AutoDock-GPU version: v1.6

**********************************************************
**    AutoDock-GPU AUTODOCKTOOLS-COMPATIBLE DLG FILE    **
**********************************************************


    DOCKING PARAMETERS
    ________________________


Ligand file:                               ligand_ref.pdbqt
Grid fld file:                             protein.maps.fld

Random seed:                               1770967834, 6504
Number of runs:                            20
Number of energy evaluations:              11867937
Number of generations:                     42000
Size of population:                        150
Rate of crossover:                         80.000000%
Tournament selection probability limit:    60.000000%
Rate of mutation:                          2.000000%
Maximal allowed delta movement:            +/- 6.000000A
Maximal allowed delta angle:               +/- 90.000000

Rate of local search:                      100.000000%
Maximal number of local search iterations: 300
Rho lower bound:                           0.010000
Spread of local search delta movement:     2.000000A
Spread of local search delta angle:        74.999999
Limit of consecutive successes/failures:   4

Handle symmetry during clustering:         YES
RMSD tolerance:                            2.000000A

Program call in command line was:          ./autodock-gpu --ffile protein.maps.fld --lfile ligand_ref.pdbqt --nrun 20 


    GRID PARAMETERS
    ________________________


Receptor name:                             #MACROMOLECULE
Number of grid points (x, y, z):           61, 61, 61
Grid center (x, y, z):                     10.261000, -3.492000, -0.127000A
Grid size (x, y, z):                       22.500000, 22.500000, 22.500000A
Grid spacing:                              0.375000A


    LIGAND PARAMETERS
    ________________________


Ligand name:                               ligand_ref
Number of atoms:                           77
Number of rotatable bonds:                 34
Number of atom types:                      6


    DUMMY DATA (only for ADT-compatibility)
    ________________________


DPF> outlev 1
DPF> ga_run 20
DPF> fld protein.maps.fld
DPF> move ligand_ref.pdbqt


    COUNTER STATES
    ________________________


Number of energy evaluations performed:    11876282
Number of generations used:                515


    INPUT LIGAND PDBQT FILE:
    ________________________


INPUT-LIGAND-PDBQT: REMARK  Name = ligand_ref.pdb
INPUT-LIGAND-PDBQT: REMARK  40 active torsions:
INPUT-LIGAND-PDBQT: REMARK  status: ('A' for Active; 'I' for Inactive)
INPUT-LIGAND-PDBQT: REMARK    1  A    between atoms: N_1  and  CA_2
INPUT-LIGAND-PDBQT: REMARK    2  A    between atoms: CA_2  and  C_3
INPUT-LIGAND-PDBQT: REMARK    3  A    between atoms: CA_2  and  CB_5
INPUT-LIGAND-PDBQT: REMARK    4  A    between atoms: CB_5  and  CG_6
INPUT-LIGAND-PDBQT: REMARK    5  A    between atoms: CG_6  and  CD_7
INPUT-LIGAND-PDBQT: REMARK    6  A    between atoms: CD_7  and  OE2_9
INPUT-LIGAND-PDBQT: REMARK    7  A    between atoms: N_10  and  CA_11
INPUT-LIGAND-PDBQT: REMARK    8  A    between atoms: CA_11  and  C_12
INPUT-LIGAND-PDBQT: REMARK    9  A    between atoms: CA_11  and  CB_14
INPUT-LIGAND-PDBQT: REMARK   10  A    between atoms: CB_14  and  CG1_15
INPUT-LIGAND-PDBQT: REMARK   11  A    between atoms: CB_14  and  CG2_16
INPUT-LIGAND-PDBQT: REMARK   12  A    between atoms: N_17  and  CA_18
INPUT-LIGAND-PDBQT: REMARK   13  A    between atoms: CA_18  and  C_19
INPUT-LIGAND-PDBQT: REMARK   14  A    between atoms: CA_18  and  CB_21
INPUT-LIGAND-PDBQT: REMARK   15  A    between atoms: CB_21  and  CG_22
INPUT-LIGAND-PDBQT: REMARK   16  A    between atoms: N_25  and  CA_26
INPUT-LIGAND-PDBQT: REMARK   17  A    between atoms: CA_26  and  C4_33
INPUT-LIGAND-PDBQT: REMARK   18  A    between atoms: CA_26  and  C6_34
INPUT-LIGAND-PDBQT: REMARK   19  A    between atoms: C_27  and  C8_36
INPUT-LIGAND-PDBQT: REMARK   20  A    between atoms: C1_29  and  C3_32
INPUT-LIGAND-PDBQT: REMARK   21  A    between atoms: O1_30  and  C6_34
INPUT-LIGAND-PDBQT: REMARK   22  A    between atoms: C2_31  and  C3_32
INPUT-LIGAND-PDBQT: REMARK   23  A    between atoms: C3_32  and  C4_33
INPUT-LIGAND-PDBQT: REMARK   24  A    between atoms: C6_34  and  C7_35
INPUT-LIGAND-PDBQT: REMARK   25  A    between atoms: C7_35  and  C8_36
INPUT-LIGAND-PDBQT: REMARK   26  A    between atoms: C8_36  and  C9_37
INPUT-LIGAND-PDBQT: REMARK   27  A    between atoms: N_38  and  CA_39
INPUT-LIGAND-PDBQT: REMARK   28  A    between atoms: CA_39  and  C_40
INPUT-LIGAND-PDBQT: REMARK   29  A    between atoms: CA_39  and  CB_42
INPUT-LIGAND-PDBQT: REMARK   30  A    between atoms: N_43  and  CA_44
INPUT-LIGAND-PDBQT: REMARK   31  A    between atoms: CA_44  and  C_45
INPUT-LIGAND-PDBQT: REMARK   32  A    between atoms: CA_44  and  CB_47
INPUT-LIGAND-PDBQT: REMARK   33  A    between atoms: CB_47  and  CG_48
INPUT-LIGAND-PDBQT: REMARK   34  A    between atoms: CG_48  and  CD_49
INPUT-LIGAND-PDBQT: REMARK   35  A    between atoms: CD_49  and  OE2_51
INPUT-LIGAND-PDBQT: REMARK   36  A    between atoms: N_52  and  CA_53
INPUT-LIGAND-PDBQT: REMARK   37  A    between atoms: CA_53  and  C_54
INPUT-LIGAND-PDBQT: REMARK   38  A    between atoms: CA_53  and  CB_56
INPUT-LIGAND-PDBQT: REMARK   39  A    between atoms: C_54  and  OXT_63
INPUT-LIGAND-PDBQT: REMARK   40  A    between atoms: CB_56  and  CG_57
INPUT-LIGAND-PDBQT: REMARK                            x       y       z     vdW  Elec       q    Type
INPUT-LIGAND-PDBQT: REMARK                         _______ _______ _______ _____ _____    ______ ____
INPUT-LIGAND-PDBQT: ROOT
INPUT-LIGAND-PDBQT: ATOM      1  C6  1OL C   4      13.765  -2.881   1.280  0.00  0.00    +0.172 C 
INPUT-LIGAND-PDBQT: ENDROOT
INPUT-LIGAND-PDBQT: BRANCH   1   2
INPUT-LIGAND-PDBQT: ATOM      2  O1  1OL C   4      14.354  -2.071   2.313  0.00  0.00    -0.221 OA
INPUT-LIGAND-PDBQT: ATOM      3  H   1OL C   4      15.242  -1.792   2.039  0.00  0.00    +0.000 HD
INPUT-LIGAND-PDBQT: ENDBRANCH   1   2
INPUT-LIGAND-PDBQT: BRANCH   1   4
INPUT-LIGAND-PDBQT: ATOM      4  CA  1OL C   4      13.733  -2.113  -0.057  0.00  0.00    +0.126 C 
INPUT-LIGAND-PDBQT: BRANCH   4   7
INPUT-LIGAND-PDBQT: ATOM      5  C   ASN C   3      11.651  -1.001  -0.662  0.00  0.00    +0.262 C 
INPUT-LIGAND-PDBQT: ATOM      6  O   ASN C   3      11.216  -1.993  -1.262  0.00  0.00    -0.271 OA
INPUT-LIGAND-PDBQT: ATOM      7  N   1OL C   4      12.818  -0.983  -0.033  0.00  0.00    -0.203 N 
INPUT-LIGAND-PDBQT: ATOM      8  H   1OL C   4      13.074  -0.175   0.468  0.00  0.00    +0.000 HD
INPUT-LIGAND-PDBQT: BRANCH   5   9
INPUT-LIGAND-PDBQT: ATOM      9  CA  ASN C   3      10.848   0.283  -0.577  0.00  0.00    +0.182 C 
INPUT-LIGAND-PDBQT: BRANCH   9  12
INPUT-LIGAND-PDBQT: ATOM     10  C   VAL C   2      11.634   2.532  -1.073  0.00  0.00    +0.262 C 
INPUT-LIGAND-PDBQT: ATOM     11  O   VAL C   2      11.023   3.034  -0.115  0.00  0.00    -0.271 OA
INPUT-LIGAND-PDBQT: ATOM     12  N   ASN C   3      11.558   1.247  -1.392  0.00  0.00    -0.196 N 
INPUT-LIGAND-PDBQT: ATOM     13  H   ASN C   3      12.001   0.936  -2.214  0.00  0.00    +0.000 HD
INPUT-LIGAND-PDBQT: BRANCH  10  14
INPUT-LIGAND-PDBQT: ATOM     14  CA  VAL C   2      12.459   3.376  -2.010  0.00  0.00    +0.173 C 
INPUT-LIGAND-PDBQT: BRANCH  14  17
INPUT-LIGAND-PDBQT: ATOM     15  C   GLU C   1      11.459   5.216  -3.206  0.00  0.00    +0.259 C 
INPUT-LIGAND-PDBQT: ATOM     16  O   GLU C   1      11.685   4.668  -4.278  0.00  0.00    -0.272 OA
INPUT-LIGAND-PDBQT: ATOM     17  N   VAL C   2      11.846   4.691  -2.054  0.00  0.00    -0.197 N 
INPUT-LIGAND-PDBQT: ATOM     18  H   VAL C   2      11.717   5.197  -1.219  0.00  0.00    +0.000 HD
INPUT-LIGAND-PDBQT: BRANCH  15  19
INPUT-LIGAND-PDBQT: ATOM     19  CA  GLU C   1      10.741   6.575  -3.159  0.00  0.00    +0.170 C 
INPUT-LIGAND-PDBQT: BRANCH  19  20
INPUT-LIGAND-PDBQT: ATOM     20  N   GLU C   1      11.157   7.433  -4.314  0.00  0.00    -0.123 NA
INPUT-LIGAND-PDBQT: ATOM     21  H   GLU C   1      12.164   7.591  -4.275  0.00  0.00    +0.000 HD
INPUT-LIGAND-PDBQT: ATOM     22  H   GLU C   1      10.670   8.328  -4.265  0.00  0.00    +0.000 HD
INPUT-LIGAND-PDBQT: ENDBRANCH  19  20
INPUT-LIGAND-PDBQT: BRANCH  19  23
INPUT-LIGAND-PDBQT: ATOM     23  CB  GLU C   1       9.229   6.322  -3.194  0.00  0.00    +0.040 C 
INPUT-LIGAND-PDBQT: BRANCH  23  24
INPUT-LIGAND-PDBQT: ATOM     24  CG  GLU C   1       8.683   5.692  -1.902  0.00  0.00    +0.116 C 
INPUT-LIGAND-PDBQT: BRANCH  24  25
INPUT-LIGAND-PDBQT: ATOM     25  CD  GLU C   1       7.195   5.392  -1.955  0.00  0.00    +0.365 C 
INPUT-LIGAND-PDBQT: ATOM     26  OE1 GLU C   1       6.504   5.978  -2.826  0.00  0.00    -0.246 OA
INPUT-LIGAND-PDBQT: BRANCH  25  27
INPUT-LIGAND-PDBQT: ATOM     27  OE2 GLU C   1       6.706   4.589  -1.128  0.00  0.00    -0.246 OA
INPUT-LIGAND-PDBQT: ATOM     28  H   GLU C   1       7.258   4.174  -0.495  0.00  0.00    +0.000 HD
INPUT-LIGAND-PDBQT: ENDBRANCH  25  27
INPUT-LIGAND-PDBQT: ENDBRANCH  24  25
INPUT-LIGAND-PDBQT: ENDBRANCH  23  24
INPUT-LIGAND-PDBQT: ENDBRANCH  19  23
INPUT-LIGAND-PDBQT: ENDBRANCH  15  19
INPUT-LIGAND-PDBQT: ENDBRANCH  14  17
INPUT-LIGAND-PDBQT: BRANCH  14  29
INPUT-LIGAND-PDBQT: ATOM     29  CB  VAL C   2      13.943   3.379  -1.521  0.00  0.00    +0.029 C 
INPUT-LIGAND-PDBQT: ATOM     30  CG1 VAL C   2      14.885   3.684  -2.713  0.00  0.00    +0.002 C 
INPUT-LIGAND-PDBQT: ATOM     31  CG2 VAL C   2      14.143   4.384  -0.370  0.00  0.00    +0.002 C 
INPUT-LIGAND-PDBQT: ENDBRANCH  14  29
INPUT-LIGAND-PDBQT: ENDBRANCH  10  14
INPUT-LIGAND-PDBQT: ENDBRANCH   9  12
INPUT-LIGAND-PDBQT: BRANCH   9  32
INPUT-LIGAND-PDBQT: ATOM     32  CB  ASN C   3       9.432   0.074  -1.114  0.00  0.00    +0.120 C 
INPUT-LIGAND-PDBQT: BRANCH  32  33
INPUT-LIGAND-PDBQT: ATOM     33  CG  ASN C   3       8.493   1.181  -0.686  0.00  0.00    +0.263 C 
INPUT-LIGAND-PDBQT: ATOM     34  ND2 ASN C   3       8.180   2.105  -1.612  0.00  0.00    -0.088 N 
INPUT-LIGAND-PDBQT: ATOM     35  OD1 ASN C   3       8.066   1.214   0.462  0.00  0.00    -0.272 OA
INPUT-LIGAND-PDBQT: ATOM     36  H   ASN C   3       8.549   2.035  -2.522  0.00  0.00    +0.000 HD
INPUT-LIGAND-PDBQT: ATOM     37  H   ASN C   3       7.582   2.852  -1.380  0.00  0.00    +0.000 HD
INPUT-LIGAND-PDBQT: ENDBRANCH  32  33
INPUT-LIGAND-PDBQT: ENDBRANCH   9  32
INPUT-LIGAND-PDBQT: ENDBRANCH   5   9
INPUT-LIGAND-PDBQT: ENDBRANCH   4   7
INPUT-LIGAND-PDBQT: BRANCH   4  38
INPUT-LIGAND-PDBQT: ATOM     38  C4  1OL C   4      15.131  -1.588  -0.435  0.00  0.00    +0.024 C 
INPUT-LIGAND-PDBQT: BRANCH  38  41
INPUT-LIGAND-PDBQT: ATOM     39  C1  1OL C   4      15.055  -1.969  -2.899  0.00  0.00    +0.000 C 
INPUT-LIGAND-PDBQT: ATOM     40  C2  1OL C   4      16.351   0.024  -2.004  0.00  0.00    +0.000 C 
INPUT-LIGAND-PDBQT: ATOM     41  C3  1OL C   4      15.109  -0.894  -1.811  0.00  0.00    +0.002 C 
INPUT-LIGAND-PDBQT: ENDBRANCH  38  41
INPUT-LIGAND-PDBQT: ENDBRANCH   4  38
INPUT-LIGAND-PDBQT: ENDBRANCH   1   4
INPUT-LIGAND-PDBQT: BRANCH   1  42
INPUT-LIGAND-PDBQT: ATOM     42  C7  1OL C   4      12.355  -3.328   1.708  0.00  0.00    +0.044 C 
INPUT-LIGAND-PDBQT: BRANCH  42  43
INPUT-LIGAND-PDBQT: ATOM     43  C8  1OL C   4      12.303  -4.570   2.603  0.00  0.00    +0.081 C 
INPUT-LIGAND-PDBQT: ATOM     44  C9  1OL C   4      11.028  -4.569   3.448  0.00  0.00    +0.010 C 
INPUT-LIGAND-PDBQT: BRANCH  43  45
INPUT-LIGAND-PDBQT: ATOM     45  C   1OL C   4      12.339  -5.826   1.721  0.00  0.00    +0.241 C 
INPUT-LIGAND-PDBQT: ATOM     46  O   1OL C   4      11.603  -5.891   0.720  0.00  0.00    -0.273 OA
INPUT-LIGAND-PDBQT: ATOM     47  N   ALA C   5      13.217  -6.778   2.074  0.00  0.00    -0.198 N 
INPUT-LIGAND-PDBQT: ATOM     48  H   ALA C   5      13.825  -6.599   2.828  0.00  0.00    +0.000 HD
INPUT-LIGAND-PDBQT: BRANCH  47  49
INPUT-LIGAND-PDBQT: ATOM     49  CA  ALA C   5      13.315  -8.071   1.392  0.00  0.00    +0.173 C 
INPUT-LIGAND-PDBQT: ATOM     50  CB  ALA C   5      14.389  -8.932   2.012  0.00  0.00    +0.033 C 
INPUT-LIGAND-PDBQT: BRANCH  49  51
INPUT-LIGAND-PDBQT: ATOM     51  C   ALA C   5      11.929  -8.667   1.577  0.00  0.00    +0.262 C 
INPUT-LIGAND-PDBQT: ATOM     52  O   ALA C   5      11.366  -8.705   2.710  0.00  0.00    -0.271 OA
INPUT-LIGAND-PDBQT: ATOM     53  N   GLU C   6      11.414  -9.285   0.438  0.00  0.00    -0.196 N 
INPUT-LIGAND-PDBQT: ATOM     54  H   GLU C   6      12.054  -9.479  -0.284  0.00  0.00    +0.000 HD
INPUT-LIGAND-PDBQT: BRANCH  53  55
INPUT-LIGAND-PDBQT: ATOM     55  CA  GLU C   6       9.988  -9.686   0.196  0.00  0.00    +0.173 C 
INPUT-LIGAND-PDBQT: BRANCH  55  56
INPUT-LIGAND-PDBQT: ATOM     56  C   GLU C   6       9.201 -10.695   0.998  0.00  0.00    +0.262 C 
INPUT-LIGAND-PDBQT: ATOM     57  O   GLU C   6       9.336 -11.907   1.087  0.00  0.00    -0.271 OA
INPUT-LIGAND-PDBQT: ATOM     58  N   PHE C   7       8.330  -9.780   1.583  0.00  0.00    -0.194 N 
INPUT-LIGAND-PDBQT: ATOM     59  H   PHE C   7       8.587  -8.901   1.221  0.00  0.00    +0.000 HD
INPUT-LIGAND-PDBQT: BRANCH  58  60
INPUT-LIGAND-PDBQT: ATOM     60  CA  PHE C   7       7.191  -9.518   2.502  0.00  0.00    +0.202 C 
INPUT-LIGAND-PDBQT: BRANCH  60  61
INPUT-LIGAND-PDBQT: ATOM     61  C   PHE C   7       7.151 -10.435   3.738  0.00  0.00    +0.385 C 
INPUT-LIGAND-PDBQT: ATOM     62  O   PHE C   7       8.132 -11.103   4.167  0.00  0.00    -0.244 OA
INPUT-LIGAND-PDBQT: BRANCH  61  63
INPUT-LIGAND-PDBQT: ATOM     63  OXT PHE C   7       6.123 -10.480   4.474  0.00  0.00    -0.244 OA
INPUT-LIGAND-PDBQT: ATOM     64  H   PHE C   7       5.350 -10.011   4.228  0.00  0.00    +0.000 HD
INPUT-LIGAND-PDBQT: ENDBRANCH  61  63
INPUT-LIGAND-PDBQT: ENDBRANCH  60  61
INPUT-LIGAND-PDBQT: BRANCH  60  65
INPUT-LIGAND-PDBQT: ATOM     65  CB  PHE C   7       5.897  -9.491   1.743  0.00  0.00    +0.060 C 
INPUT-LIGAND-PDBQT: BRANCH  65  66
INPUT-LIGAND-PDBQT: ATOM     66  CG  PHE C   7       5.473 -10.880   1.596  0.00  0.00    -0.020 A 
INPUT-LIGAND-PDBQT: ATOM     67  CD1 PHE C   7       6.430 -11.828   1.276  0.00  0.00    -0.004 A 
INPUT-LIGAND-PDBQT: ATOM     68  CD2 PHE C   7       4.153 -11.259   1.768  0.00  0.00    -0.004 A 
INPUT-LIGAND-PDBQT: ATOM     69  CE1 PHE C   7       6.076 -13.164   1.122  0.00  0.00    -0.000 A 
INPUT-LIGAND-PDBQT: ATOM     70  CE2 PHE C   7       3.787 -12.586   1.647  0.00  0.00    -0.000 A 
INPUT-LIGAND-PDBQT: ATOM     71  CZ  PHE C   7       4.752 -13.530   1.322  0.00  0.00    -0.000 A 
INPUT-LIGAND-PDBQT: ENDBRANCH  65  66
INPUT-LIGAND-PDBQT: ENDBRANCH  60  65
INPUT-LIGAND-PDBQT: ENDBRANCH  58  60
INPUT-LIGAND-PDBQT: ENDBRANCH  55  56
INPUT-LIGAND-PDBQT: BRANCH  55  72
INPUT-LIGAND-PDBQT: ATOM     72  CB  GLU C   6       9.726  -9.796  -1.312  0.00  0.00    +0.043 C 
INPUT-LIGAND-PDBQT: BRANCH  72  73
INPUT-LIGAND-PDBQT: ATOM     73  CG  GLU C   6       8.737  -8.710  -1.756  0.00  0.00    +0.116 C 
INPUT-LIGAND-PDBQT: BRANCH  73  74
INPUT-LIGAND-PDBQT: ATOM     74  CD  GLU C   6       7.526  -9.231  -2.540  0.00  0.00    +0.365 C 
INPUT-LIGAND-PDBQT: ATOM     75  OE1 GLU C   6       7.695 -10.191  -3.320  0.00  0.00    -0.246 OA
INPUT-LIGAND-PDBQT: BRANCH  74  76
INPUT-LIGAND-PDBQT: ATOM     76  OE2 GLU C   6       6.411  -8.681  -2.357  0.00  0.00    -0.246 OA
INPUT-LIGAND-PDBQT: ATOM     77  H   GLU C   6       6.335  -7.963  -1.760  0.00  0.00    +0.000 HD
INPUT-LIGAND-PDBQT: ENDBRANCH  74  76
INPUT-LIGAND-PDBQT: ENDBRANCH  73  74
INPUT-LIGAND-PDBQT: ENDBRANCH  72  73
INPUT-LIGAND-PDBQT: ENDBRANCH  55  72
INPUT-LIGAND-PDBQT: ENDBRANCH  53  55
INPUT-LIGAND-PDBQT: ENDBRANCH  49  51
INPUT-LIGAND-PDBQT: ENDBRANCH  47  49
INPUT-LIGAND-PDBQT: ENDBRANCH  43  45
INPUT-LIGAND-PDBQT: ENDBRANCH  42  43
INPUT-LIGAND-PDBQT: ENDBRANCH   1  42
INPUT-LIGAND-PDBQT: TORSDOF 34


    FINAL DOCKED STATE:
    ________________________


Run:   1 / 20
Time taken for this run:   5.932s

DOCKED: MODEL        1
DOCKED: USER    Run = 1
DOCKED: USER
DOCKED: USER    Estimated Free Energy of Binding    = +10.14 kcal/mol  [=(1)+(2)+(3)-(4)]
DOCKED: USER
DOCKED: USER    (1) Final Intermolecular Energy     =  +0.00 kcal/mol
DOCKED: USER        vdW + Hbond + desolv Energy     =  +0.00 kcal/mol
DOCKED: USER        Electrostatic Energy            =  +0.00 kcal/mol
DOCKED: USER        Moving Ligand-Fixed Receptor    =  +0.00 kcal/mol
DOCKED: USER        Moving Ligand-Moving Receptor   =  +0.00 kcal/mol
DOCKED: USER    (2) Final Total Internal Energy     = -33.55 kcal/mol
DOCKED: USER    (3) Torsional Free Energy           = +10.14 kcal/mol
DOCKED: USER    (4) Unbound System's Energy         = -33.55 kcal/mol
DOCKED: USER
DOCKED: USER
DOCKED: REMARK  Name = ligand_ref.pdb
DOCKED: REMARK  40 active torsions:
DOCKED: REMARK  status: ('A' for Active; 'I' for Inactive)
DOCKED: REMARK    1  A    between atoms: N_1  and  CA_2
DOCKED: REMARK    2  A    between atoms: CA_2  and  C_3
DOCKED: REMARK    3  A    between atoms: CA_2  and  CB_5
DOCKED: REMARK    4  A    between atoms: CB_5  and  CG_6
DOCKED: REMARK    5  A    between atoms: CG_6  and  CD_7
DOCKED: REMARK    6  A    between atoms: CD_7  and  OE2_9
DOCKED: REMARK    7  A    between atoms: N_10  and  CA_11
DOCKED: REMARK    8  A    between atoms: CA_11  and  C_12
DOCKED: REMARK    9  A    between atoms: CA_11  and  CB_14
DOCKED: REMARK   10  A    between atoms: CB_14  and  CG1_15
DOCKED: REMARK   11  A    between atoms: CB_14  and  CG2_16
DOCKED: REMARK   12  A    between atoms: N_17  and  CA_18
DOCKED: REMARK   13  A    between atoms: CA_18  and  C_19
DOCKED: REMARK   14  A    between atoms: CA_18  and  CB_21
DOCKED: REMARK   15  A    between atoms: CB_21  and  CG_22
DOCKED: REMARK   16  A    between atoms: N_25  and  CA_26
DOCKED: REMARK   17  A    between atoms: CA_26  and  C4_33
DOCKED: REMARK   18  A    between atoms: CA_26  and  C6_34
DOCKED: REMARK   19  A    between atoms: C_27  and  C8_36
DOCKED: REMARK   20  A    between atoms: C1_29  and  C3_32
DOCKED: REMARK   21  A    between atoms: O1_30  and  C6_34
DOCKED: REMARK   22  A    between atoms: C2_31  and  C3_32
DOCKED: REMARK   23  A    between atoms: C3_32  and  C4_33
DOCKED: REMARK   24  A    between atoms: C6_34  and  C7_35
DOCKED: REMARK   25  A    between atoms: C7_35  and  C8_36
DOCKED: REMARK   26  A    between atoms: C8_36  and  C9_37
DOCKED: REMARK   27  A    between atoms: N_38  and  CA_39
DOCKED: REMARK   28  A    between atoms: CA_39  and  C_40
DOCKED: REMARK   29  A    between atoms: CA_39  and  CB_42
DOCKED: REMARK   30  A    between atoms: N_43  and  CA_44
DOCKED: REMARK   31  A    between atoms: CA_44  and  C_45
DOCKED: REMARK   32  A    between atoms: CA_44  and  CB_47
DOCKED: REMARK   33  A    between atoms: CB_47  and  CG_48
DOCKED: REMARK   34  A    between atoms: CG_48  and  CD_49
DOCKED: REMARK   35  A    between atoms: CD_49  and  OE2_51
DOCKED: REMARK   36  A    between atoms: N_52  and  CA_53
DOCKED: REMARK   37  A    between atoms: CA_53  and  C_54
DOCKED: REMARK   38  A    between atoms: CA_53  and  CB_56
DOCKED: REMARK   39  A    between atoms: C_54  and  OXT_63
DOCKED: REMARK   40  A    between atoms: CB_56  and  CG_57
DOCKED: REMARK                            x       y       z     vdW  Elec       q    Type
DOCKED: REMARK                         _______ _______ _______ _____ _____    ______ ____
DOCKED: USER                              x       y       z     vdW  Elec       q    Type
DOCKED: USER                           _______ _______ _______ _____ _____    ______ ____
DOCKED: ROOT
DOCKED: ATOM      1  C6  1OL C   4      11.784  -1.878   1.458 +0.00 +0.00    +0.172 C  
DOCKED: ENDROOT
DOCKED: BRANCH   1   2
DOCKED: ATOM      2  O1  1OL C   4      12.277  -0.867   2.355 +0.00 -0.00    -0.221 OA 
DOCKED: ATOM      3  H   1OL C   4      12.840  -0.246   1.865 +0.00 +0.00    +0.000 HD 
DOCKED: ENDBRANCH   1   2
DOCKED: BRANCH   1   4
DOCKED: ATOM      4  CA  1OL C   4      10.252  -2.008   1.579 +0.00 +0.00    +0.126 C  
DOCKED: BRANCH   4   7
DOCKED: ATOM      5  C   ASN C   3       8.622  -1.356   3.269 +0.00 +0.00    +0.262 C  
DOCKED: ATOM      6  O   ASN C   3       8.071  -2.465   3.263 +0.00 -0.00    -0.271 OA 
DOCKED: ATOM      7  N   1OL C   4       9.683  -1.065   2.528 +0.00 -0.00    -0.203 N  
DOCKED: ATOM      8  H   1OL C   4      10.099  -0.178   2.625 +0.00 +0.00    +0.000 HD 
DOCKED: BRANCH   5   9
DOCKED: ATOM      9  CA  ASN C   3       8.129  -0.235   4.165 +0.00 +0.00    +0.182 C  
DOCKED: BRANCH   9  12
DOCKED: ATOM     10  C   VAL C   2       9.786  -0.789   5.858 +0.00 +0.00    +0.262 C  
DOCKED: ATOM     11  O   VAL C   2       9.330  -1.931   6.034 +0.00 -0.00    -0.271 OA 
DOCKED: ATOM     12  N   ASN C   3       9.241   0.094   5.033 +0.00 -0.00    -0.196 N  
DOCKED: ATOM     13  H   ASN C   3       9.605   1.008   5.008 +0.00 +0.00    +0.000 HD 
DOCKED: BRANCH  10  14
DOCKED: ATOM     14  CA  VAL C   2      10.968  -0.283   6.645 +0.00 +0.00    +0.173 C  
DOCKED: BRANCH  14  17
DOCKED: ATOM     15  C   GLU C   1      13.190   0.482   6.103 +0.00 +0.00    +0.259 C  
DOCKED: ATOM     16  O   GLU C   1      13.386   0.802   7.269 +0.00 -0.00    -0.272 OA 
DOCKED: ATOM     17  N   VAL C   2      12.028  -0.003   5.694 +0.00 -0.00    -0.197 N  
DOCKED: ATOM     18  H   VAL C   2      11.881  -0.175   4.735 +0.00 +0.00    +0.000 HD 
DOCKED: BRANCH  15  19
DOCKED: ATOM     19  CA  GLU C   1      14.290   0.671   5.045 +0.00 +0.00    +0.170 C  
DOCKED: BRANCH  19  20
DOCKED: ATOM     20  N   GLU C   1      13.972  -0.110   3.807 +0.00 -0.00    -0.123 NA 
DOCKED: ATOM     21  H   GLU C   1      13.982   0.514   2.999 +0.00 +0.00    +0.000 HD 
DOCKED: ATOM     22  H   GLU C   1      13.049  -0.532   3.899 +0.00 +0.00    +0.000 HD 
DOCKED: ENDBRANCH  19  20
DOCKED: BRANCH  19  23
DOCKED: ATOM     23  CB  GLU C   1      14.397   2.167   4.725 +0.00 +0.00    +0.040 C  
DOCKED: BRANCH  23  24
DOCKED: ATOM     24  CG  GLU C   1      13.034   2.871   4.623 +0.00 +0.00    +0.116 C  
DOCKED: BRANCH  24  25
DOCKED: ATOM     25  CD  GLU C   1      12.216   2.438   3.418 +0.00 +0.00    +0.365 C  
DOCKED: ATOM     26  OE1 GLU C   1      11.836   3.324   2.612 +0.00 -0.00    -0.246 OA 
DOCKED: BRANCH  25  27
DOCKED: ATOM     27  OE2 GLU C   1      11.936   1.226   3.277 +0.00 -0.00    -0.246 OA 
DOCKED: ATOM     28  H   GLU C   1      12.371   0.718   2.620 +0.00 +0.00    +0.000 HD 
DOCKED: ENDBRANCH  25  27
DOCKED: ENDBRANCH  24  25
DOCKED: ENDBRANCH  23  24
DOCKED: ENDBRANCH  19  23
DOCKED: ENDBRANCH  15  19
DOCKED: ENDBRANCH  14  17
DOCKED: BRANCH  14  29
DOCKED: ATOM     29  CB  VAL C   2      10.526   0.953   7.492 +0.00 +0.00    +0.029 C  
DOCKED: ATOM     30  CG1 VAL C   2      10.588   2.233   6.619 +0.00 +0.00    +0.002 C  
DOCKED: ATOM     31  CG2 VAL C   2       9.120   0.741   8.086 +0.00 +0.00    +0.002 C  
DOCKED: ENDBRANCH  14  29
DOCKED: ENDBRANCH  10  14
DOCKED: ENDBRANCH   9  12
DOCKED: BRANCH   9  32
DOCKED: ATOM     32  CB  ASN C   3       7.723   0.984   3.336 +0.00 +0.00    +0.120 C  
DOCKED: BRANCH  32  33
DOCKED: ATOM     33  CG  ASN C   3       8.324   2.263   3.876 +0.00 +0.00    +0.263 C  
DOCKED: ATOM     34  ND2 ASN C   3       9.527   2.621   3.393 +0.00 -0.00    -0.088 N  
DOCKED: ATOM     35  OD1 ASN C   3       7.724   2.913   4.724 +0.00 -0.00    -0.272 OA 
DOCKED: ATOM     36  H   ASN C   3       9.970   2.065   2.711 +0.00 +0.00    +0.000 HD 
DOCKED: ATOM     37  H   ASN C   3       9.966   3.439   3.720 +0.00 +0.00    +0.000 HD 
DOCKED: ENDBRANCH  32  33
DOCKED: ENDBRANCH   9  32
DOCKED: ENDBRANCH   5   9
DOCKED: ENDBRANCH   4   7
DOCKED: BRANCH   4  38
DOCKED: ATOM     38  C4  1OL C   4       9.562  -1.792   0.219 +0.00 +0.00    +0.024 C  
DOCKED: BRANCH  38  41
DOCKED: ATOM     39  C1  1OL C   4       9.229  -4.261   0.349 +0.00 +0.00    +0.000 C  
DOCKED: ATOM     40  C2  1OL C   4      10.874  -3.331  -1.350 +0.00 +0.00    +0.000 C  
DOCKED: ATOM     41  C3  1OL C   4       9.530  -3.098  -0.600 +0.00 +0.00    +0.002 C  
DOCKED: ENDBRANCH  38  41
DOCKED: ENDBRANCH   4  38
DOCKED: ENDBRANCH   1   4
DOCKED: BRANCH   1  42
DOCKED: ATOM     42  C7  1OL C   4      12.488  -3.217   1.744 +0.00 +0.00    +0.044 C  
DOCKED: BRANCH  42  43
DOCKED: ATOM     43  C8  1OL C   4      14.011  -3.140   1.894 +0.00 +0.00    +0.081 C  
DOCKED: ATOM     44  C9  1OL C   4      14.663  -4.441   1.422 +0.00 +0.00    +0.010 C  
DOCKED: BRANCH  43  45
DOCKED: ATOM     45  C   1OL C   4      14.538  -1.964   1.061 +0.00 +0.00    +0.241 C  
DOCKED: ATOM     46  O   1OL C   4      14.917  -0.928   1.637 +0.00 -0.00    -0.273 OA 
DOCKED: ATOM     47  N   ALA C   5      14.596  -2.152  -0.267 +0.00 -0.00    -0.198 N  
DOCKED: ATOM     48  H   ALA C   5      14.362  -3.039  -0.626 +0.00 +0.00    +0.000 HD 
DOCKED: BRANCH  47  49
DOCKED: ATOM     49  CA  ALA C   5      14.991  -1.101  -1.209 +0.00 +0.00    +0.173 C  
DOCKED: ATOM     50  CB  ALA C   5      14.736  -1.526  -2.635 +0.00 +0.00    +0.033 C  
DOCKED: BRANCH  49  51
DOCKED: ATOM     51  C   ALA C   5      14.122   0.076  -0.800 +0.00 +0.00    +0.262 C  
DOCKED: ATOM     52  O   ALA C   5      12.979  -0.088  -0.281 +0.00 -0.00    -0.271 OA 
DOCKED: ATOM     53  N   GLU C   6      14.626   1.320  -1.179 +0.00 -0.00    -0.196 N  
DOCKED: ATOM     54  H   GLU C   6      15.347   1.316  -1.849 +0.00 +0.00    +0.000 HD 
DOCKED: BRANCH  53  55
DOCKED: ATOM     55  CA  GLU C   6      14.186   2.664  -0.674 +0.00 +0.00    +0.173 C  
DOCKED: BRANCH  55  56
DOCKED: ATOM     56  C   GLU C   6      13.079   3.511  -1.254 +0.00 +0.00    +0.262 C  
DOCKED: ATOM     57  O   GLU C   6      13.136   4.458  -2.026 +0.00 -0.00    -0.271 OA 
DOCKED: ATOM     58  N   PHE C   7      12.030   2.837  -0.636 +0.00 -0.00    -0.194 N  
DOCKED: ATOM     59  H   PHE C   7      12.452   2.131  -0.094 +0.00 +0.00    +0.000 HD 
DOCKED: BRANCH  58  60
DOCKED: ATOM     60  CA  PHE C   7      10.567   2.691  -0.416 +0.00 +0.00    +0.202 C  
DOCKED: BRANCH  60  61
DOCKED: ATOM     61  C   PHE C   7      10.184   1.586   0.584 +0.00 +0.00    +0.385 C  
DOCKED: ATOM     62  O   PHE C   7       9.000   1.285   0.902 +0.00 -0.00    -0.244 OA 
DOCKED: BRANCH  61  63
DOCKED: ATOM     63  OXT PHE C   7      11.068   0.824   1.072 +0.00 -0.00    -0.244 OA 
DOCKED: ATOM     64  H   PHE C   7      11.923   1.158   1.258 +0.00 +0.00    +0.000 HD 
DOCKED: ENDBRANCH  61  63
DOCKED: ENDBRANCH  60  61
DOCKED: BRANCH  60  65
DOCKED: ATOM     65  CB  PHE C   7       9.846   2.579  -1.727 +0.00 +0.00    +0.060 C  
DOCKED: BRANCH  65  66
DOCKED: ATOM     66  CG  PHE C   7      10.644   1.689  -2.565 +0.00 -0.00    -0.020 A  
DOCKED: ATOM     67  CD1 PHE C   7      10.656   0.338  -2.262 +0.00 -0.00    -0.004 A  
DOCKED: ATOM     68  CD2 PHE C   7      11.376   2.164  -3.639 +0.00 -0.00    -0.004 A  
DOCKED: ATOM     69  CE1 PHE C   7      11.403  -0.550  -3.028 +0.00 -0.00    -0.000 A  
DOCKED: ATOM     70  CE2 PHE C   7      12.102   1.293  -4.428 +0.00 -0.00    -0.000 A  
DOCKED: ATOM     71  CZ  PHE C   7      12.112  -0.060  -4.115 +0.00 -0.00    -0.000 A  
DOCKED: ENDBRANCH  65  66
DOCKED: ENDBRANCH  60  65
DOCKED: ENDBRANCH  58  60
DOCKED: ENDBRANCH  55  56
DOCKED: BRANCH  55  72
DOCKED: ATOM     72  CB  GLU C   6      15.411   3.492  -0.262 +0.00 +0.00    +0.043 C  
DOCKED: BRANCH  72  73
DOCKED: ATOM     73  CG  GLU C   6      15.739   3.248   1.217 +0.00 +0.00    +0.116 C  
DOCKED: BRANCH  73  74
DOCKED: ATOM     74  CD  GLU C   6      15.175   1.941   1.789 +0.00 +0.00    +0.365 C  
DOCKED: ATOM     75  OE1 GLU C   6      15.948   1.186   2.413 +0.00 -0.00    -0.246 OA 
DOCKED: BRANCH  74  76
DOCKED: ATOM     76  OE2 GLU C   6      13.955   1.689   1.619 +0.00 -0.00    -0.246 OA 
DOCKED: ATOM     77  H   GLU C   6      13.631   0.823   1.766 +0.00 +0.00    +0.000 HD 
DOCKED: ENDBRANCH  74  76
DOCKED: ENDBRANCH  73  74
DOCKED: ENDBRANCH  72  73
DOCKED: ENDBRANCH  55  72
DOCKED: ENDBRANCH  53  55
DOCKED: ENDBRANCH  49  51
DOCKED: ENDBRANCH  47  49
DOCKED: ENDBRANCH  43  45
DOCKED: ENDBRANCH  42  43
DOCKED: ENDBRANCH   1  42
DOCKED: TORSDOF 34
DOCKED: TER
DOCKED: ENDMDL
________________________________________________________________________________


    FINAL DOCKED STATE:
    ________________________


Run:   2 / 20
Time taken for this run:   5.932s

DOCKED: MODEL        2
DOCKED: USER    Run = 2
DOCKED: USER
DOCKED: USER    Estimated Free Energy of Binding    = +10.14 kcal/mol  [=(1)+(2)+(3)-(4)]
DOCKED: USER
DOCKED: USER    (1) Final Intermolecular Energy     =  +0.00 kcal/mol
DOCKED: USER        vdW + Hbond + desolv Energy     =  +0.00 kcal/mol
DOCKED: USER        Electrostatic Energy            =  +0.00 kcal/mol
DOCKED: USER        Moving Ligand-Fixed Receptor    =  +0.00 kcal/mol
DOCKED: USER        Moving Ligand-Moving Receptor   =  +0.00 kcal/mol
DOCKED: USER    (2) Final Total Internal Energy     = -34.16 kcal/mol
DOCKED: USER    (3) Torsional Free Energy           = +10.14 kcal/mol
DOCKED: USER    (4) Unbound System's Energy         = -34.16 kcal/mol
DOCKED: USER
DOCKED: USER
DOCKED: REMARK  Name = ligand_ref.pdb
DOCKED: REMARK  40 active torsions:
DOCKED: REMARK  status: ('A' for Active; 'I' for Inactive)
DOCKED: REMARK    1  A    between atoms: N_1  and  CA_2
DOCKED: REMARK    2  A    between atoms: CA_2  and  C_3
DOCKED: REMARK    3  A    between atoms: CA_2  and  CB_5
DOCKED: REMARK    4  A    between atoms: CB_5  and  CG_6
DOCKED: REMARK    5  A    between atoms: CG_6  and  CD_7
DOCKED: REMARK    6  A    between atoms: CD_7  and  OE2_9
DOCKED: REMARK    7  A    between atoms: N_10  and  CA_11
DOCKED: REMARK    8  A    between atoms: CA_11  and  C_12
DOCKED: REMARK    9  A    between atoms: CA_11  and  CB_14
DOCKED: REMARK   10  A    between atoms: CB_14  and  CG1_15
DOCKED: REMARK   11  A    between atoms: CB_14  and  CG2_16
DOCKED: REMARK   12  A    between atoms: N_17  and  CA_18
DOCKED: REMARK   13  A    between atoms: CA_18  and  C_19
DOCKED: REMARK   14  A    between atoms: CA_18  and  CB_21
DOCKED: REMARK   15  A    between atoms: CB_21  and  CG_22
DOCKED: REMARK   16  A    between atoms: N_25  and  CA_26
DOCKED: REMARK   17  A    between atoms: CA_26  and  C4_33
DOCKED: REMARK   18  A    between atoms: CA_26  and  C6_34
DOCKED: REMARK   19  A    between atoms: C_27  and  C8_36
DOCKED: REMARK   20  A    between atoms: C1_29  and  C3_32
DOCKED: REMARK   21  A    between atoms: O1_30  and  C6_34
DOCKED: REMARK   22  A    between atoms: C2_31  and  C3_32
DOCKED: REMARK   23  A    between atoms: C3_32  and  C4_33
DOCKED: REMARK   24  A    between atoms: C6_34  and  C7_35
DOCKED: REMARK   25  A    between atoms: C7_35  and  C8_36
DOCKED: REMARK   26  A    between atoms: C8_36  and  C9_37
DOCKED: REMARK   27  A    between atoms: N_38  and  CA_39
DOCKED: REMARK   28  A    between atoms: CA_39  and  C_40
DOCKED: REMARK   29  A    between atoms: CA_39  and  CB_42
DOCKED: REMARK   30  A    between atoms: N_43  and  CA_44
DOCKED: REMARK   31  A    between atoms: CA_44  and  C_45
DOCKED: REMARK   32  A    between atoms: CA_44  and  CB_47
DOCKED: REMARK   33  A    between atoms: CB_47  and  CG_48
DOCKED: REMARK   34  A    between atoms: CG_48  and  CD_49
DOCKED: REMARK   35  A    between atoms: CD_49  and  OE2_51
DOCKED: REMARK   36  A    between atoms: N_52  and  CA_53
DOCKED: REMARK   37  A    between atoms: CA_53  and  C_54
DOCKED: REMARK   38  A    between atoms: CA_53  and  CB_56
DOCKED: REMARK   39  A    between atoms: C_54  and  OXT_63
DOCKED: REMARK   40  A    between atoms: CB_56  and  CG_57
DOCKED: REMARK                            x       y       z     vdW  Elec       q    Type
DOCKED: REMARK                         _______ _______ _______ _____ _____    ______ ____
DOCKED: USER                              x       y       z     vdW  Elec       q    Type
DOCKED: USER                           _______ _______ _______ _____ _____    ______ ____
DOCKED: ROOT
DOCKED: ATOM      1  C6  1OL C   4       7.097  -5.084  -4.509 +0.00 +0.00    +0.172 C  
DOCKED: ENDROOT
DOCKED: BRANCH   1   2
DOCKED: ATOM      2  O1  1OL C   4       7.878  -4.118  -3.786 +0.00 -0.00    -0.221 OA 
DOCKED: ATOM      3  H   1OL C   4       7.349  -3.318  -3.638 +0.00 +0.00    +0.000 HD 
DOCKED: ENDBRANCH   1   2
DOCKED: BRANCH   1   4
DOCKED: ATOM      4  CA  1OL C   4       5.894  -5.550  -3.663 +0.00 +0.00    +0.126 C  
DOCKED: BRANCH   4   7
DOCKED: ATOM      5  C   ASN C   3       4.306  -4.677  -2.035 +0.00 +0.00    +0.262 C  
DOCKED: ATOM      6  O   ASN C   3       3.757  -5.776  -1.879 +0.00 -0.00    -0.271 OA 
DOCKED: ATOM      7  N   1OL C   4       5.347  -4.489  -2.834 +0.00 -0.00    -0.203 N  
DOCKED: ATOM      8  H   1OL C   4       5.765  -3.598  -2.866 +0.00 +0.00    +0.000 HD 
DOCKED: BRANCH   5   9
DOCKED: ATOM      9  CA  ASN C   3       3.834  -3.447  -1.283 +0.00 +0.00    +0.182 C  
DOCKED: BRANCH   9  12
DOCKED: ATOM     10  C   VAL C   2       5.015  -1.514  -0.394 +0.00 +0.00    +0.262 C  
DOCKED: ATOM     11  O   VAL C   2       4.029  -1.118   0.249 +0.00 -0.00    -0.271 OA 
DOCKED: ATOM     12  N   ASN C   3       4.987  -2.577  -1.187 +0.00 -0.00    -0.196 N  
DOCKED: ATOM     13  H   ASN C   3       5.781  -2.782  -1.732 +0.00 +0.00    +0.000 HD 
DOCKED: BRANCH  10  14
DOCKED: ATOM     14  CA  VAL C   2       6.317  -0.756  -0.385 +0.00 +0.00    +0.173 C  
DOCKED: BRANCH  14  17
DOCKED: ATOM     15  C   GLU C   1       6.005   0.577  -2.370 +0.00 +0.00    +0.259 C  
DOCKED: ATOM     16  O   GLU C   1       5.086   1.188  -1.839 +0.00 -0.00    -0.272 OA 
DOCKED: ATOM     17  N   VAL C   2       6.628  -0.421  -1.762 +0.00 -0.00    -0.197 N  
DOCKED: ATOM     18  H   VAL C   2       7.308  -0.940  -2.249 +0.00 +0.00    +0.000 HD 
DOCKED: BRANCH  15  19
DOCKED: ATOM     19  CA  GLU C   1       6.451   0.924  -3.800 +0.00 +0.00    +0.170 C  
DOCKED: BRANCH  19  20
DOCKED: ATOM     20  N   GLU C   1       7.766   0.281  -4.114 +0.00 -0.00    -0.123 NA 
DOCKED: ATOM     21  H   GLU C   1       7.779  -0.669  -3.741 +0.00 +0.00    +0.000 HD 
DOCKED: ATOM     22  H   GLU C   1       8.519   0.823  -3.690 +0.00 +0.00    +0.000 HD 
DOCKED: ENDBRANCH  19  20
DOCKED: BRANCH  19  23
DOCKED: ATOM     23  CB  GLU C   1       5.369   0.439  -4.772 +0.00 +0.00    +0.040 C  
DOCKED: BRANCH  23  24
DOCKED: ATOM     24  CG  GLU C   1       5.831  -0.716  -5.676 +0.00 +0.00    +0.116 C  
DOCKED: BRANCH  24  25
DOCKED: ATOM     25  CD  GLU C   1       6.544  -1.827  -4.925 +0.00 +0.00    +0.365 C  
DOCKED: ATOM     26  OE1 GLU C   1       7.449  -2.461  -5.524 +0.00 -0.00    -0.246 OA 
DOCKED: BRANCH  25  27
DOCKED: ATOM     27  OE2 GLU C   1       6.202  -2.083  -3.748 +0.00 -0.00    -0.246 OA 
DOCKED: ATOM     28  H   GLU C   1       6.853  -2.272  -3.101 +0.00 +0.00    +0.000 HD 
DOCKED: ENDBRANCH  25  27
DOCKED: ENDBRANCH  24  25
DOCKED: ENDBRANCH  23  24
DOCKED: ENDBRANCH  19  23
DOCKED: ENDBRANCH  15  19
DOCKED: ENDBRANCH  14  17
DOCKED: BRANCH  14  29
DOCKED: ATOM     29  CB  VAL C   2       6.180   0.482   0.559 +0.00 +0.00    +0.029 C  
DOCKED: ATOM     30  CG1 VAL C   2       6.037   0.006   2.027 +0.00 +0.00    +0.002 C  
DOCKED: ATOM     31  CG2 VAL C   2       7.375   1.440   0.389 +0.00 +0.00    +0.002 C  
DOCKED: ENDBRANCH  14  29
DOCKED: ENDBRANCH  10  14
DOCKED: ENDBRANCH   9  12
DOCKED: BRANCH   9  32
DOCKED: ATOM     32  CB  ASN C   3       2.703  -2.750  -2.039 +0.00 +0.00    +0.120 C  
DOCKED: BRANCH  32  33
DOCKED: ATOM     33  CG  ASN C   3       3.226  -1.756  -3.053 +0.00 +0.00    +0.263 C  
DOCKED: ATOM     34  ND2 ASN C   3       3.458  -0.505  -2.615 +0.00 -0.00    -0.088 N  
DOCKED: ATOM     35  OD1 ASN C   3       3.407  -2.101  -4.214 +0.00 -0.00    -0.272 OA 
DOCKED: ATOM     36  H   ASN C   3       3.297  -0.276  -1.671 +0.00 +0.00    +0.000 HD 
DOCKED: ATOM     37  H   ASN C   3       3.788   0.182  -3.238 +0.00 +0.00    +0.000 HD 
DOCKED: ENDBRANCH  32  33
DOCKED: ENDBRANCH   9  32
DOCKED: ENDBRANCH   5   9
DOCKED: ENDBRANCH   4   7
DOCKED: BRANCH   4  38
DOCKED: ATOM     38  C4  1OL C   4       4.760  -6.094  -4.553 +0.00 +0.00    +0.024 C  
DOCKED: BRANCH  38  41
DOCKED: ATOM     39  C1  1OL C   4       2.444  -5.488  -5.253 +0.00 +0.00    +0.000 C  
DOCKED: ATOM     40  C2  1OL C   4       4.408  -4.364  -6.406 +0.00 +0.00    +0.000 C  
DOCKED: ATOM     41  C3  1OL C   4       3.865  -4.950  -5.070 +0.00 +0.00    +0.002 C  
DOCKED: ENDBRANCH  38  41
DOCKED: ENDBRANCH   4  38
DOCKED: ENDBRANCH   1   4
DOCKED: BRANCH   1  42
DOCKED: ATOM     42  C7  1OL C   4       7.987  -6.270  -4.925 +0.00 +0.00    +0.044 C  
DOCKED: BRANCH  42  43
DOCKED: ATOM     43  C8  1OL C   4       8.349  -6.330  -6.412 +0.00 +0.00    +0.081 C  
DOCKED: ATOM     44  C9  1OL C   4       7.174  -5.856  -7.269 +0.00 +0.00    +0.010 C  
DOCKED: BRANCH  43  45
DOCKED: ATOM     45  C   1OL C   4       9.570  -5.436  -6.669 +0.00 +0.00    +0.241 C  
DOCKED: ATOM     46  O   1OL C   4      10.555  -5.905  -7.268 +0.00 -0.00    -0.273 OA 
DOCKED: ATOM     47  N   ALA C   5       9.475  -4.163  -6.256 +0.00 -0.00    -0.198 N  
DOCKED: ATOM     48  H   ALA C   5       8.620  -3.856  -5.874 +0.00 +0.00    +0.000 HD 
DOCKED: BRANCH  47  49
DOCKED: ATOM     49  CA  ALA C   5      10.581  -3.206  -6.345 +0.00 +0.00    +0.173 C  
DOCKED: ATOM     50  CB  ALA C   5      10.089  -1.789  -6.173 +0.00 +0.00    +0.033 C  
DOCKED: BRANCH  49  51
DOCKED: ATOM     51  C   ALA C   5      11.500  -3.631  -5.212 +0.00 +0.00    +0.262 C  
DOCKED: ATOM     52  O   ALA C   5      12.714  -3.930  -5.415 +0.00 -0.00    -0.271 OA 
DOCKED: ATOM     53  N   GLU C   6      10.859  -3.801  -3.986 +0.00 -0.00    -0.196 N  
DOCKED: ATOM     54  H   GLU C   6       9.876  -3.856  -4.008 +0.00 +0.00    +0.000 HD 
DOCKED: BRANCH  53  55
DOCKED: ATOM     55  CA  GLU C   6      11.506  -3.908  -2.636 +0.00 +0.00    +0.173 C  
DOCKED: BRANCH  55  56
DOCKED: ATOM     56  C   GLU C   6      11.127  -4.880  -1.544 +0.00 +0.00    +0.262 C  
DOCKED: ATOM     57  O   GLU C   6      11.834  -5.503  -0.765 +0.00 -0.00    -0.271 OA 
DOCKED: ATOM     58  N   PHE C   7       9.750  -4.789  -1.729 +0.00 -0.00    -0.194 N  
DOCKED: ATOM     59  H   PHE C   7       9.625  -4.162  -2.478 +0.00 +0.00    +0.000 HD 
DOCKED: BRANCH  58  60
DOCKED: ATOM     60  CA  PHE C   7       8.383  -5.203  -1.319 +0.00 +0.00    +0.202 C  
DOCKED: BRANCH  60  61
DOCKED: ATOM     61  C   PHE C   7       7.456  -4.035  -0.935 +0.00 +0.00    +0.385 C  
DOCKED: ATOM     62  O   PHE C   7       6.750  -3.993   0.110 +0.00 -0.00    -0.244 OA 
DOCKED: BRANCH  61  63
DOCKED: ATOM     63  OXT PHE C   7       7.441  -2.972  -1.622 +0.00 -0.00    -0.244 OA 
DOCKED: ATOM     64  H   PHE C   7       7.798  -2.970  -2.488 +0.00 +0.00    +0.000 HD 
DOCKED: ENDBRANCH  61  63
DOCKED: ENDBRANCH  60  61
DOCKED: BRANCH  60  65
DOCKED: ATOM     65  CB  PHE C   7       8.449  -6.275  -0.270 +0.00 +0.00    +0.060 C  
DOCKED: BRANCH  65  66
DOCKED: ATOM     66  CG  PHE C   7       7.269  -7.114  -0.460 +0.00 -0.00    -0.020 A  
DOCKED: ATOM     67  CD1 PHE C   7       6.260  -7.050   0.486 +0.00 -0.00    -0.004 A  
DOCKED: ATOM     68  CD2 PHE C   7       7.145  -7.958  -1.550 +0.00 -0.00    -0.004 A  
DOCKED: ATOM     69  CE1 PHE C   7       5.118  -7.832   0.352 +0.00 -0.00    -0.000 A  
DOCKED: ATOM     70  CE2 PHE C   7       6.005  -8.721  -1.714 +0.00 -0.00    -0.000 A  
DOCKED: ATOM     71  CZ  PHE C   7       4.999  -8.654  -0.759 +0.00 -0.00    -0.000 A  
DOCKED: ENDBRANCH  65  66
DOCKED: ENDBRANCH  60  65
DOCKED: ENDBRANCH  58  60
DOCKED: ENDBRANCH  55  56
DOCKED: BRANCH  55  72
DOCKED: ATOM     72  CB  GLU C   6      11.822  -2.507  -2.096 +0.00 +0.00    +0.043 C  
DOCKED: BRANCH  72  73
DOCKED: ATOM     73  CG  GLU C   6      10.595  -1.930  -1.378 +0.00 +0.00    +0.116 C  
DOCKED: BRANCH  73  74
DOCKED: ATOM     74  CD  GLU C   6       9.537  -1.323  -2.309 +0.00 +0.00    +0.365 C  
DOCKED: ATOM     75  OE1 GLU C   6       9.238  -0.120  -2.159 +0.00 -0.00    -0.246 OA 
DOCKED: BRANCH  74  76
DOCKED: ATOM     76  OE2 GLU C   6       9.024  -2.055  -3.192 +0.00 -0.00    -0.246 OA 
DOCKED: ATOM     77  H   GLU C   6       8.124  -1.946  -3.427 +0.00 +0.00    +0.000 HD 
DOCKED: ENDBRANCH  74  76
DOCKED: ENDBRANCH  73  74
DOCKED: ENDBRANCH  72  73
DOCKED: ENDBRANCH  55  72
DOCKED: ENDBRANCH  53  55
DOCKED: ENDBRANCH  49  51
DOCKED: ENDBRANCH  47  49
DOCKED: ENDBRANCH  43  45
DOCKED: ENDBRANCH  42  43
DOCKED: ENDBRANCH   1  42
DOCKED: TORSDOF 34
DOCKED: TER
DOCKED: ENDMDL
________________________________________________________________________________


    FINAL DOCKED STATE:
    ________________________


Run:   3 / 20
Time taken for this run:   5.932s

DOCKED: MODEL        3
DOCKED: USER    Run = 3
DOCKED: USER
DOCKED: USER    Estimated Free Energy of Binding    = +10.14 kcal/mol  [=(1)+(2)+(3)-(4)]
DOCKED: USER
DOCKED: USER    (1) Final Intermolecular Energy     =  +0.00 kcal/mol
DOCKED: USER        vdW + Hbond + desolv Energy     =  +0.00 kcal/mol
DOCKED: USER        Electrostatic Energy            =  +0.00 kcal/mol
DOCKED: USER        Moving Ligand-Fixed Receptor    =  +0.00 kcal/mol
DOCKED: USER        Moving Ligand-Moving Receptor   =  +0.00 kcal/mol
DOCKED: USER    (2) Final Total Internal Energy     = -32.53 kcal/mol
DOCKED: USER    (3) Torsional Free Energy           = +10.14 kcal/mol
DOCKED: USER    (4) Unbound System's Energy         = -32.53 kcal/mol
DOCKED: USER
DOCKED: USER
DOCKED: REMARK  Name = ligand_ref.pdb
DOCKED: REMARK  40 active torsions:
DOCKED: REMARK  status: ('A' for Active; 'I' for Inactive)
DOCKED: REMARK    1  A    between atoms: N_1  and  CA_2
DOCKED: REMARK    2  A    between atoms: CA_2  and  C_3
DOCKED: REMARK    3  A    between atoms: CA_2  and  CB_5
DOCKED: REMARK    4  A    between atoms: CB_5  and  CG_6
DOCKED: REMARK    5  A    between atoms: CG_6  and  CD_7
DOCKED: REMARK    6  A    between atoms: CD_7  and  OE2_9
DOCKED: REMARK    7  A    between atoms: N_10  and  CA_11
DOCKED: REMARK    8  A    between atoms: CA_11  and  C_12
DOCKED: REMARK    9  A    between atoms: CA_11  and  CB_14
DOCKED: REMARK   10  A    between atoms: CB_14  and  CG1_15
DOCKED: REMARK   11  A    between atoms: CB_14  and  CG2_16
DOCKED: REMARK   12  A    between atoms: N_17  and  CA_18
DOCKED: REMARK   13  A    between atoms: CA_18  and  C_19
DOCKED: REMARK   14  A    between atoms: CA_18  and  CB_21
DOCKED: REMARK   15  A    between atoms: CB_21  and  CG_22
DOCKED: REMARK   16  A    between atoms: N_25  and  CA_26
DOCKED: REMARK   17  A    between atoms: CA_26  and  C4_33
DOCKED: REMARK   18  A    between atoms: CA_26  and  C6_34
DOCKED: REMARK   19  A    between atoms: C_27  and  C8_36
DOCKED: REMARK   20  A    between atoms: C1_29  and  C3_32
DOCKED: REMARK   21  A    between atoms: O1_30  and  C6_34
DOCKED: REMARK   22  A    between atoms: C2_31  and  C3_32
DOCKED: REMARK   23  A    between atoms: C3_32  and  C4_33
DOCKED: REMARK   24  A    between atoms: C6_34  and  C7_35
DOCKED: REMARK   25  A    between atoms: C7_35  and  C8_36
DOCKED: REMARK   26  A    between atoms: C8_36  and  C9_37
DOCKED: REMARK   27  A    between atoms: N_38  and  CA_39
DOCKED: REMARK   28  A    between atoms: CA_39  and  C_40
DOCKED: REMARK   29  A    between atoms: CA_39  and  CB_42
DOCKED: REMARK   30  A    between atoms: N_43  and  CA_44
DOCKED: REMARK   31  A    between atoms: CA_44  and  C_45
DOCKED: REMARK   32  A    between atoms: CA_44  and  CB_47
DOCKED: REMARK   33  A    between atoms: CB_47  and  CG_48
DOCKED: REMARK   34  A    between atoms: CG_48  and  CD_49
DOCKED: REMARK   35  A    between atoms: CD_49  and  OE2_51
DOCKED: REMARK   36  A    between atoms: N_52  and  CA_53
DOCKED: REMARK   37  A    between atoms: CA_53  and  C_54
DOCKED: REMARK   38  A    between atoms: CA_53  and  CB_56
DOCKED: REMARK   39  A    between atoms: C_54  and  OXT_63
DOCKED: REMARK   40  A    between atoms: CB_56  and  CG_57
DOCKED: REMARK                            x       y       z     vdW  Elec       q    Type
DOCKED: REMARK                         _______ _______ _______ _____ _____    ______ ____
DOCKED: USER                              x       y       z     vdW  Elec       q    Type
DOCKED: USER                           _______ _______ _______ _____ _____    ______ ____
DOCKED: ROOT
DOCKED: ATOM      1  C6  1OL C   4       4.267  -1.036   0.567 +0.00 +0.00    +0.172 C  
DOCKED: ENDROOT
DOCKED: BRANCH   1   2
DOCKED: ATOM      2  O1  1OL C   4       4.154   0.221   1.258 +0.00 -0.00    -0.221 OA 
DOCKED: ATOM      3  H   1OL C   4       4.133   0.945   0.613 +0.00 +0.00    +0.000 HD 
DOCKED: ENDBRANCH   1   2
DOCKED: BRANCH   1   4
DOCKED: ATOM      4  CA  1OL C   4       2.870  -1.623   0.281 +0.00 +0.00    +0.126 C  
DOCKED: BRANCH   4   7
DOCKED: ATOM      5  C   ASN C   3       0.530  -1.234   0.842 +0.00 +0.00    +0.262 C  
DOCKED: ATOM      6  O   ASN C   3       0.149  -2.257   0.256 +0.00 -0.00    -0.271 OA 
DOCKED: ATOM      7  N   1OL C   4       1.804  -0.878   0.933 +0.00 -0.00    -0.203 N  
DOCKED: ATOM      8  H   1OL C   4       2.037  -0.080   1.461 +0.00 +0.00    +0.000 HD 
DOCKED: BRANCH   5   9
DOCKED: ATOM      9  CA  ASN C   3      -0.453  -0.313   1.538 +0.00 +0.00    +0.182 C  
DOCKED: BRANCH   9  12
DOCKED: ATOM     10  C   VAL C   2       0.496  -0.487   3.772 +0.00 +0.00    +0.262 C  
DOCKED: ATOM     11  O   VAL C   2       0.053  -1.634   3.949 +0.00 -0.00    -0.271 OA 
DOCKED: ATOM     12  N   ASN C   3       0.254   0.227   2.682 +0.00 -0.00    -0.196 N  
DOCKED: ATOM     13  H   ASN C   3       0.567   1.160   2.647 +0.00 +0.00    +0.000 HD 
DOCKED: BRANCH  10  14
DOCKED: ATOM     14  CA  VAL C   2       1.291   0.222   4.838 +0.00 +0.00    +0.173 C  
DOCKED: BRANCH  14  17
DOCKED: ATOM     15  C   GLU C   1       3.074   1.846   4.854 +0.00 +0.00    +0.259 C  
DOCKED: ATOM     16  O   GLU C   1       3.044   1.896   6.078 +0.00 -0.00    -0.272 OA 
DOCKED: ATOM     17  N   VAL C   2       2.225   1.104   4.161 +0.00 -0.00    -0.197 N  
DOCKED: ATOM     18  H   VAL C   2       2.226   1.149   3.177 +0.00 +0.00    +0.000 HD 
DOCKED: BRANCH  15  19
DOCKED: ATOM     19  CA  GLU C   1       4.088   2.688   4.061 +0.00 +0.00    +0.170 C  
DOCKED: BRANCH  19  20
DOCKED: ATOM     20  N   GLU C   1       4.458   2.004   2.782 +0.00 -0.00    -0.123 NA 
DOCKED: ATOM     21  H   GLU C   1       4.339   2.651   2.003 +0.00 +0.00    +0.000 HD 
DOCKED: ATOM     22  H   GLU C   1       3.855   1.192   2.644 +0.00 +0.00    +0.000 HD 
DOCKED: ENDBRANCH  19  20
DOCKED: BRANCH  19  23
DOCKED: ATOM     23  CB  GLU C   1       3.458   4.057   3.777 +0.00 +0.00    +0.040 C  
DOCKED: BRANCH  23  24
DOCKED: ATOM     24  CG  GLU C   1       2.847   4.170   2.370 +0.00 +0.00    +0.116 C  
DOCKED: BRANCH  24  25
DOCKED: ATOM     25  CD  GLU C   1       1.911   3.027   2.022 +0.00 +0.00    +0.365 C  
DOCKED: ATOM     26  OE1 GLU C   1       0.687   3.167   2.272 +0.00 -0.00    -0.246 OA 
DOCKED: BRANCH  25  27
DOCKED: ATOM     27  OE2 GLU C   1       2.384   1.985   1.514 +0.00 -0.00    -0.246 OA 
DOCKED: ATOM     28  H   GLU C   1       3.167   2.027   1.001 +0.00 +0.00    +0.000 HD 
DOCKED: ENDBRANCH  25  27
DOCKED: ENDBRANCH  24  25
DOCKED: ENDBRANCH  23  24
DOCKED: ENDBRANCH  19  23
DOCKED: ENDBRANCH  15  19
DOCKED: ENDBRANCH  14  17
DOCKED: BRANCH  14  29
DOCKED: ATOM     29  CB  VAL C   2       0.306   0.956   5.805 +0.00 +0.00    +0.029 C  
DOCKED: ATOM     30  CG1 VAL C   2      -0.371   2.136   5.063 +0.00 +0.00    +0.002 C  
DOCKED: ATOM     31  CG2 VAL C   2      -0.735  -0.023   6.380 +0.00 +0.00    +0.002 C  
DOCKED: ENDBRANCH  14  29
DOCKED: ENDBRANCH  10  14
DOCKED: ENDBRANCH   9  12
DOCKED: BRANCH   9  32
DOCKED: ATOM     32  CB  ASN C   3      -0.893   0.815   0.605 +0.00 +0.00    +0.120 C  
DOCKED: BRANCH  32  33
DOCKED: ATOM     33  CG  ASN C   3      -0.009   0.918  -0.619 +0.00 +0.00    +0.263 C  
DOCKED: ATOM     34  ND2 ASN C   3       0.926   1.884  -0.614 +0.00 -0.00    -0.088 N  
DOCKED: ATOM     35  OD1 ASN C   3      -0.173   0.150  -1.560 +0.00 -0.00    -0.272 OA 
DOCKED: ATOM     36  H   ASN C   3       1.018   2.477   0.166 +0.00 +0.00    +0.000 HD 
DOCKED: ATOM     37  H   ASN C   3       1.519   2.000  -1.392 +0.00 +0.00    +0.000 HD 
DOCKED: ENDBRANCH  32  33
DOCKED: ENDBRANCH   9  32
DOCKED: ENDBRANCH   5   9
DOCKED: ENDBRANCH   4   7
DOCKED: BRANCH   4  38
DOCKED: ATOM     38  C4  1OL C   4       2.574  -1.656  -1.230 +0.00 +0.00    +0.024 C  
DOCKED: BRANCH  38  41
DOCKED: ATOM     39  C1  1OL C   4       2.677   0.288  -2.790 +0.00 +0.00    +0.000 C  
DOCKED: ATOM     40  C2  1OL C   4       4.463  -1.511  -2.951 +0.00 +0.00    +0.000 C  
DOCKED: ATOM     41  C3  1OL C   4       3.521  -0.715  -2.001 +0.00 +0.00    +0.002 C  
DOCKED: ENDBRANCH  38  41
DOCKED: ENDBRANCH   4  38
DOCKED: ENDBRANCH   1   4
DOCKED: BRANCH   1  42
DOCKED: ATOM     42  C7  1OL C   4       5.130  -2.009   1.391 +0.00 +0.00    +0.044 C  
DOCKED: BRANCH  42  43
DOCKED: ATOM     43  C8  1OL C   4       5.237  -1.689   2.885 +0.00 +0.00    +0.081 C  
DOCKED: ATOM     44  C9  1OL C   4       5.332  -2.977   3.703 +0.00 +0.00    +0.010 C  
DOCKED: BRANCH  43  45
DOCKED: ATOM     45  C   1OL C   4       6.485  -0.828   3.126 +0.00 +0.00    +0.241 C  
DOCKED: ATOM     46  O   1OL C   4       7.405  -1.272   3.837 +0.00 -0.00    -0.273 OA 
DOCKED: ATOM     47  N   ALA C   5       6.521   0.359   2.502 +0.00 -0.00    -0.198 N  
DOCKED: ATOM     48  H   ALA C   5       5.788   0.587   1.884 +0.00 +0.00    +0.000 HD 
DOCKED: BRANCH  47  49
DOCKED: ATOM     49  CA  ALA C   5       7.597   1.335   2.696 +0.00 +0.00    +0.173 C  
DOCKED: ATOM     50  CB  ALA C   5       8.952   0.685   2.551 +0.00 +0.00    +0.033 C  
DOCKED: BRANCH  49  51
DOCKED: ATOM     51  C   ALA C   5       7.337   2.360   1.604 +0.00 +0.00    +0.262 C  
DOCKED: ATOM     52  O   ALA C   5       6.328   3.124   1.634 +0.00 -0.00    -0.271 OA 
DOCKED: ATOM     53  N   GLU C   6       8.211   2.278   0.521 +0.00 -0.00    -0.196 N  
DOCKED: ATOM     54  H   GLU C   6       8.747   1.456   0.450 +0.00 +0.00    +0.000 HD 
DOCKED: BRANCH  53  55
DOCKED: ATOM     55  CA  GLU C   6       8.421   3.311  -0.548 +0.00 +0.00    +0.173 C  
DOCKED: BRANCH  55  56
DOCKED: ATOM     56  C   GLU C   6       7.830   4.700  -0.570 +0.00 +0.00    +0.262 C  
DOCKED: ATOM     57  O   GLU C   6       8.383   5.790  -0.583 +0.00 -0.00    -0.271 OA 
DOCKED: ATOM     58  N   PHE C   7       6.497   4.299  -0.593 +0.00 -0.00    -0.194 N  
DOCKED: ATOM     59  H   PHE C   7       6.516   3.314  -0.572 +0.00 +0.00    +0.000 HD 
DOCKED: BRANCH  58  60
DOCKED: ATOM     60  CA  PHE C   7       5.058   4.671  -0.636 +0.00 +0.00    +0.202 C  
DOCKED: BRANCH  60  61
DOCKED: ATOM     61  C   PHE C   7       4.093   3.498  -0.381 +0.00 +0.00    +0.385 C  
DOCKED: ATOM     62  O   PHE C   7       2.846   3.542  -0.571 +0.00 -0.00    -0.244 OA 
DOCKED: BRANCH  61  63
DOCKED: ATOM     63  OXT PHE C   7       4.536   2.357  -0.060 +0.00 -0.00    -0.244 OA 
DOCKED: ATOM     64  H   PHE C   7       4.819   2.195   0.818 +0.00 +0.00    +0.000 HD 
DOCKED: ENDBRANCH  61  63
DOCKED: ENDBRANCH  60  61
DOCKED: BRANCH  60  65
DOCKED: ATOM     65  CB  PHE C   7       4.747   5.431  -1.891 +0.00 +0.00    +0.060 C  
DOCKED: BRANCH  65  66
DOCKED: ATOM     66  CG  PHE C   7       4.840   4.474  -2.990 +0.00 -0.00    -0.020 A  
DOCKED: ATOM     67  CD1 PHE C   7       6.082   4.243  -3.556 +0.00 -0.00    -0.004 A  
DOCKED: ATOM     68  CD2 PHE C   7       3.726   3.805  -3.467 +0.00 -0.00    -0.004 A  
DOCKED: ATOM     69  CE1 PHE C   7       6.222   3.343  -4.606 +0.00 -0.00    -0.000 A  
DOCKED: ATOM     70  CE2 PHE C   7       3.850   2.886  -4.491 +0.00 -0.00    -0.000 A  
DOCKED: ATOM     71  CZ  PHE C   7       5.099   2.663  -5.056 +0.00 -0.00    -0.000 A  
DOCKED: ENDBRANCH  65  66
DOCKED: ENDBRANCH  60  65
DOCKED: ENDBRANCH  58  60
DOCKED: ENDBRANCH  55  56
DOCKED: BRANCH  55  72
DOCKED: ATOM     72  CB  GLU C   6       8.408   2.641  -1.929 +0.00 +0.00    +0.043 C  
DOCKED: BRANCH  72  73
DOCKED: ATOM     73  CG  GLU C   6       7.895   1.200  -1.812 +0.00 +0.00    +0.116 C  
DOCKED: BRANCH  73  74
DOCKED: ATOM     74  CD  GLU C   6       6.421   1.079  -1.404 +0.00 +0.00    +0.365 C  
DOCKED: ATOM     75  OE1 GLU C   6       5.548   1.317  -2.264 +0.00 -0.00    -0.246 OA 
DOCKED: BRANCH  74  76
DOCKED: ATOM     76  OE2 GLU C   6       6.151   0.732  -0.227 +0.00 -0.00    -0.246 OA 
DOCKED: ATOM     77  H   GLU C   6       5.780   1.351   0.371 +0.00 +0.00    +0.000 HD 
DOCKED: ENDBRANCH  74  76
DOCKED: ENDBRANCH  73  74
DOCKED: ENDBRANCH  72  73
DOCKED: ENDBRANCH  55  72
DOCKED: ENDBRANCH  53  55
DOCKED: ENDBRANCH  49  51
DOCKED: ENDBRANCH  47  49
DOCKED: ENDBRANCH  43  45
DOCKED: ENDBRANCH  42  43
DOCKED: ENDBRANCH   1  42
DOCKED: TORSDOF 34
DOCKED: TER
DOCKED: ENDMDL
________________________________________________________________________________


    FINAL DOCKED STATE:
    ________________________


Run:   4 / 20
Time taken for this run:   5.932s

DOCKED: MODEL        4
DOCKED: USER    Run = 4
DOCKED: USER
DOCKED: USER    Estimated Free Energy of Binding    = +10.14 kcal/mol  [=(1)+(2)+(3)-(4)]
DOCKED: USER
DOCKED: USER    (1) Final Intermolecular Energy     =  +0.00 kcal/mol
DOCKED: USER        vdW + Hbond + desolv Energy     =  +0.00 kcal/mol
DOCKED: USER        Electrostatic Energy            =  +0.00 kcal/mol
DOCKED: USER        Moving Ligand-Fixed Receptor    =  +0.00 kcal/mol
DOCKED: USER        Moving Ligand-Moving Receptor   =  +0.00 kcal/mol
DOCKED: USER    (2) Final Total Internal Energy     = -33.74 kcal/mol
DOCKED: USER    (3) Torsional Free Energy           = +10.14 kcal/mol
DOCKED: USER    (4) Unbound System's Energy         = -33.74 kcal/mol
DOCKED: USER
DOCKED: USER
DOCKED: REMARK  Name = ligand_ref.pdb
DOCKED: REMARK  40 active torsions:
DOCKED: REMARK  status: ('A' for Active; 'I' for Inactive)
DOCKED: REMARK    1  A    between atoms: N_1  and  CA_2
DOCKED: REMARK    2  A    between atoms: CA_2  and  C_3
DOCKED: REMARK    3  A    between atoms: CA_2  and  CB_5
DOCKED: REMARK    4  A    between atoms: CB_5  and  CG_6
DOCKED: REMARK    5  A    between atoms: CG_6  and  CD_7
DOCKED: REMARK    6  A    between atoms: CD_7  and  OE2_9
DOCKED: REMARK    7  A    between atoms: N_10  and  CA_11
DOCKED: REMARK    8  A    between atoms: CA_11  and  C_12
DOCKED: REMARK    9  A    between atoms: CA_11  and  CB_14
DOCKED: REMARK   10  A    between atoms: CB_14  and  CG1_15
DOCKED: REMARK   11  A    between atoms: CB_14  and  CG2_16
DOCKED: REMARK   12  A    between atoms: N_17  and  CA_18
DOCKED: REMARK   13  A    between atoms: CA_18  and  C_19
DOCKED: REMARK   14  A    between atoms: CA_18  and  CB_21
DOCKED: REMARK   15  A    between atoms: CB_21  and  CG_22
DOCKED: REMARK   16  A    between atoms: N_25  and  CA_26
DOCKED: REMARK   17  A    between atoms: CA_26  and  C4_33
DOCKED: REMARK   18  A    between atoms: CA_26  and  C6_34
DOCKED: REMARK   19  A    between atoms: C_27  and  C8_36
DOCKED: REMARK   20  A    between atoms: C1_29  and  C3_32
DOCKED: REMARK   21  A    between atoms: O1_30  and  C6_34
DOCKED: REMARK   22  A    between atoms: C2_31  and  C3_32
DOCKED: REMARK   23  A    between atoms: C3_32  and  C4_33
DOCKED: REMARK   24  A    between atoms: C6_34  and  C7_35
DOCKED: REMARK   25  A    between atoms: C7_35  and  C8_36
DOCKED: REMARK   26  A    between atoms: C8_36  and  C9_37
DOCKED: REMARK   27  A    between atoms: N_38  and  CA_39
DOCKED: REMARK   28  A    between atoms: CA_39  and  C_40
DOCKED: REMARK   29  A    between atoms: CA_39  and  CB_42
DOCKED: REMARK   30  A    between atoms: N_43  and  CA_44
DOCKED: REMARK   31  A    between atoms: CA_44  and  C_45
DOCKED: REMARK   32  A    between atoms: CA_44  and  CB_47
DOCKED: REMARK   33  A    between atoms: CB_47  and  CG_48
DOCKED: REMARK   34  A    between atoms: CG_48  and  CD_49
DOCKED: REMARK   35  A    between atoms: CD_49  and  OE2_51
DOCKED: REMARK   36  A    between atoms: N_52  and  CA_53
DOCKED: REMARK   37  A    between atoms: CA_53  and  C_54
DOCKED: REMARK   38  A    between atoms: CA_53  and  CB_56
DOCKED: REMARK   39  A    between atoms: C_54  and  OXT_63
DOCKED: REMARK   40  A    between atoms: CB_56  and  CG_57
DOCKED: REMARK                            x       y       z     vdW  Elec       q    Type
DOCKED: REMARK                         _______ _______ _______ _____ _____    ______ ____
DOCKED: USER                              x       y       z     vdW  Elec       q    Type
DOCKED: USER                           _______ _______ _______ _____ _____    ______ ____
DOCKED: ROOT
DOCKED: ATOM      1  C6  1OL C   4       8.346  -7.521   2.452 +0.00 +0.00    +0.172 C  
DOCKED: ENDROOT
DOCKED: BRANCH   1   2
DOCKED: ATOM      2  O1  1OL C   4       9.559  -8.288   2.357 +0.00 -0.00    -0.221 OA 
DOCKED: ATOM      3  H   1OL C   4       9.930  -8.418   3.244 +0.00 +0.00    +0.000 HD 
DOCKED: ENDBRANCH   1   2
DOCKED: BRANCH   1   4
DOCKED: ATOM      4  CA  1OL C   4       8.624  -6.032   2.163 +0.00 +0.00    +0.126 C  
DOCKED: BRANCH   4   7
DOCKED: ATOM      5  C   ASN C   3      10.420  -4.592   1.365 +0.00 +0.00    +0.262 C  
DOCKED: ATOM      6  O   ASN C   3       9.706  -3.580   1.378 +0.00 -0.00    -0.271 OA 
DOCKED: ATOM      7  N   1OL C   4       9.997  -5.787   1.754 +0.00 -0.00    -0.203 N  
DOCKED: ATOM      8  H   1OL C   4      10.637  -6.535   1.766 +0.00 +0.00    +0.000 HD 
DOCKED: BRANCH   5   9
DOCKED: ATOM      9  CA  ASN C   3      11.869  -4.529   0.920 +0.00 +0.00    +0.182 C  
DOCKED: BRANCH   9  12
DOCKED: ATOM     10  C   VAL C   2      13.936  -5.374   1.887 +0.00 +0.00    +0.262 C  
DOCKED: ATOM     11  O   VAL C   2      14.578  -5.208   0.837 +0.00 -0.00    -0.271 OA 
DOCKED: ATOM     12  N   ASN C   3      12.636  -5.129   1.991 +0.00 -0.00    -0.196 N  
DOCKED: ATOM     13  H   ASN C   3      12.176  -5.364   2.829 +0.00 +0.00    +0.000 HD 
DOCKED: BRANCH  10  14
DOCKED: ATOM     14  CA  VAL C   2      14.579  -5.952   3.121 +0.00 +0.00    +0.173 C  
DOCKED: BRANCH  14  17
DOCKED: ATOM     15  C   GLU C   1      13.903  -8.244   2.796 +0.00 +0.00    +0.259 C  
DOCKED: ATOM     16  O   GLU C   1      14.556  -8.310   1.762 +0.00 -0.00    -0.272 OA 
DOCKED: ATOM     17  N   VAL C   2      13.809  -7.124   3.496 +0.00 -0.00    -0.197 N  
DOCKED: ATOM     18  H   VAL C   2      13.212  -7.086   4.278 +0.00 +0.00    +0.000 HD 
DOCKED: BRANCH  15  19
DOCKED: ATOM     19  CA  GLU C   1      13.122  -9.466   3.307 +0.00 +0.00    +0.170 C  
DOCKED: BRANCH  19  20
DOCKED: ATOM     20  N   GLU C   1      11.646  -9.231   3.205 +0.00 -0.00    -0.123 NA 
DOCKED: ATOM     21  H   GLU C   1      11.462  -8.530   2.487 +0.00 +0.00    +0.000 HD 
DOCKED: ATOM     22  H   GLU C   1      11.292  -8.899   4.102 +0.00 +0.00    +0.000 HD 
DOCKED: ENDBRANCH  19  20
DOCKED: BRANCH  19  23
DOCKED: ATOM     23  CB  GLU C   1      13.532 -10.684   2.470 +0.00 +0.00    +0.040 C  
DOCKED: BRANCH  23  24
DOCKED: ATOM     24  CG  GLU C   1      12.379 -11.273   1.640 +0.00 +0.00    +0.116 C  
DOCKED: BRANCH  24  25
DOCKED: ATOM     25  CD  GLU C   1      11.960 -10.395   0.474 +0.00 +0.00    +0.365 C  
DOCKED: ATOM     26  OE1 GLU C   1      12.593 -10.505  -0.606 +0.00 -0.00    -0.246 OA 
DOCKED: BRANCH  25  27
DOCKED: ATOM     27  OE2 GLU C   1      11.015  -9.588   0.628 +0.00 -0.00    -0.246 OA 
DOCKED: ATOM     28  H   GLU C   1      11.132  -8.825   1.158 +0.00 +0.00    +0.000 HD 
DOCKED: ENDBRANCH  25  27
DOCKED: ENDBRANCH  24  25
DOCKED: ENDBRANCH  23  24
DOCKED: ENDBRANCH  19  23
DOCKED: ENDBRANCH  15  19
DOCKED: ENDBRANCH  14  17
DOCKED: BRANCH  14  29
DOCKED: ATOM     29  CB  VAL C   2      16.084  -6.245   2.822 +0.00 +0.00    +0.029 C  
DOCKED: ATOM     30  CG1 VAL C   2      16.855  -4.909   2.668 +0.00 +0.00    +0.002 C  
DOCKED: ATOM     31  CG2 VAL C   2      16.703  -7.132   3.920 +0.00 +0.00    +0.002 C  
DOCKED: ENDBRANCH  14  29
DOCKED: ENDBRANCH  10  14
DOCKED: ENDBRANCH   9  12
DOCKED: BRANCH   9  32
DOCKED: ATOM     32  CB  ASN C   3      12.072  -5.307  -0.380 +0.00 +0.00    +0.120 C  
DOCKED: BRANCH  32  33
DOCKED: ATOM     33  CG  ASN C   3      11.866  -6.794  -0.189 +0.00 +0.00    +0.263 C  
DOCKED: ATOM     34  ND2 ASN C   3      12.963  -7.534   0.052 +0.00 -0.00    -0.088 N  
DOCKED: ATOM     35  OD1 ASN C   3      10.741  -7.274  -0.270 +0.00 -0.00    -0.272 OA 
DOCKED: ATOM     36  H   ASN C   3      13.846  -7.102   0.108 +0.00 +0.00    +0.000 HD 
DOCKED: ATOM     37  H   ASN C   3      12.884  -8.508   0.171 +0.00 +0.00    +0.000 HD 
DOCKED: ENDBRANCH  32  33
DOCKED: ENDBRANCH   9  32
DOCKED: ENDBRANCH   5   9
DOCKED: ENDBRANCH   4   7
DOCKED: BRANCH   4  38
DOCKED: ATOM     38  C4  1OL C   4       7.693  -5.492   1.060 +0.00 +0.00    +0.024 C  
DOCKED: BRANCH  38  41
DOCKED: ATOM     39  C1  1OL C   4       8.062  -5.341  -1.402 +0.00 +0.00    +0.000 C  
DOCKED: ATOM     40  C2  1OL C   4       6.588  -7.199  -0.493 +0.00 +0.00    +0.000 C  
DOCKED: ATOM     41  C3  1OL C   4       7.840  -6.309  -0.238 +0.00 +0.00    +0.002 C  
DOCKED: ENDBRANCH  38  41
DOCKED: ENDBRANCH   4  38
DOCKED: ENDBRANCH   1   4
DOCKED: BRANCH   1  42
DOCKED: ATOM     42  C7  1OL C   4       7.711  -7.718   3.841 +0.00 +0.00    +0.044 C  
DOCKED: BRANCH  42  43
DOCKED: ATOM     43  C8  1OL C   4       7.523  -9.174   4.277 +0.00 +0.00    +0.081 C  
DOCKED: ATOM     44  C9  1OL C   4       7.408 -10.089   3.056 +0.00 +0.00    +0.010 C  
DOCKED: BRANCH  43  45
DOCKED: ATOM     45  C   1OL C   4       8.724  -9.601   5.133 +0.00 +0.00    +0.241 C  
DOCKED: ATOM     46  O   1OL C   4       9.736  -8.879   5.168 +0.00 -0.00    -0.273 OA 
DOCKED: ATOM     47  N   ALA C   5       8.581 -10.734   5.838 +0.00 -0.00    -0.198 N  
DOCKED: ATOM     48  H   ALA C   5       7.708 -11.191   5.821 +0.00 +0.00    +0.000 HD 
DOCKED: BRANCH  47  49
DOCKED: ATOM     49  CA  ALA C   5       9.660 -11.325   6.634 +0.00 +0.00    +0.173 C  
DOCKED: ATOM     50  CB  ALA C   5      10.933 -11.429   5.829 +0.00 +0.00    +0.033 C  
DOCKED: BRANCH  49  51
DOCKED: ATOM     51  C   ALA C   5       9.800 -10.360   7.800 +0.00 +0.00    +0.262 C  
DOCKED: ATOM     52  O   ALA C   5       9.218 -10.562   8.906 +0.00 -0.00    -0.271 OA 
DOCKED: ATOM     53  N   GLU C   6      10.490  -9.187   7.495 +0.00 -0.00    -0.196 N  
DOCKED: ATOM     54  H   GLU C   6      10.618  -8.989   6.539 +0.00 +0.00    +0.000 HD 
DOCKED: BRANCH  53  55
DOCKED: ATOM     55  CA  GLU C   6      11.059  -8.196   8.467 +0.00 +0.00    +0.173 C  
DOCKED: BRANCH  55  56
DOCKED: ATOM     56  C   GLU C   6      10.930  -6.694   8.382 +0.00 +0.00    +0.262 C  
DOCKED: ATOM     57  O   GLU C   6      11.118  -5.838   9.235 +0.00 -0.00    -0.271 OA 
DOCKED: ATOM     58  N   PHE C   7      10.561  -6.648   7.040 +0.00 -0.00    -0.194 N  
DOCKED: ATOM     59  H   PHE C   7      10.531  -7.586   6.741 +0.00 +0.00    +0.000 HD 
DOCKED: BRANCH  58  60
DOCKED: ATOM     60  CA  PHE C   7      10.192  -5.836   5.850 +0.00 +0.00    +0.202 C  
DOCKED: BRANCH  60  61
DOCKED: ATOM     61  C   PHE C   7      11.212  -5.900   4.699 +0.00 +0.00    +0.385 C  
DOCKED: ATOM     62  O   PHE C   7      12.227  -5.157   4.597 +0.00 -0.00    -0.244 OA 
DOCKED: BRANCH  61  63
DOCKED: ATOM     63  OXT PHE C   7      11.138  -6.810   3.822 +0.00 -0.00    -0.244 OA 
DOCKED: ATOM     64  H   PHE C   7      10.825  -7.661   4.056 +0.00 +0.00    +0.000 HD 
DOCKED: ENDBRANCH  61  63
DOCKED: ENDBRANCH  60  61
DOCKED: BRANCH  60  65
DOCKED: ATOM     65  CB  PHE C   7       9.845  -4.434   6.256 +0.00 +0.00    +0.060 C  
DOCKED: BRANCH  65  66
DOCKED: ATOM     66  CG  PHE C   7       8.855  -3.957   5.296 +0.00 -0.00    -0.020 A  
DOCKED: ATOM     67  CD1 PHE C   7       7.647  -4.628   5.210 +0.00 -0.00    -0.004 A  
DOCKED: ATOM     68  CD2 PHE C   7       9.098  -2.863   4.483 +0.00 -0.00    -0.004 A  
DOCKED: ATOM     69  CE1 PHE C   7       6.672  -4.215   4.309 +0.00 -0.00    -0.000 A  
DOCKED: ATOM     70  CE2 PHE C   7       8.131  -2.420   3.602 +0.00 -0.00    -0.000 A  
DOCKED: ATOM     71  CZ  PHE C   7       6.924  -3.101   3.519 +0.00 -0.00    -0.000 A  
DOCKED: ENDBRANCH  65  66
DOCKED: ENDBRANCH  60  65
DOCKED: ENDBRANCH  58  60
DOCKED: ENDBRANCH  55  56
DOCKED: BRANCH  55  72
DOCKED: ATOM     72  CB  GLU C   6      12.457  -8.644   8.912 +0.00 +0.00    +0.043 C  
DOCKED: BRANCH  72  73
DOCKED: ATOM     73  CG  GLU C   6      13.323  -8.965   7.686 +0.00 +0.00    +0.116 C  
DOCKED: BRANCH  73  74
DOCKED: ATOM     74  CD  GLU C   6      13.019  -8.110   6.449 +0.00 +0.00    +0.365 C  
DOCKED: ATOM     75  OE1 GLU C   6      13.629  -7.029   6.313 +0.00 -0.00    -0.246 OA 
DOCKED: BRANCH  74  76
DOCKED: ATOM     76  OE2 GLU C   6      12.181  -8.536   5.616 +0.00 -0.00    -0.246 OA 
DOCKED: ATOM     77  H   GLU C   6      11.728  -7.935   5.057 +0.00 +0.00    +0.000 HD 
DOCKED: ENDBRANCH  74  76
DOCKED: ENDBRANCH  73  74
DOCKED: ENDBRANCH  72  73
DOCKED: ENDBRANCH  55  72
DOCKED: ENDBRANCH  53  55
DOCKED: ENDBRANCH  49  51
DOCKED: ENDBRANCH  47  49
DOCKED: ENDBRANCH  43  45
DOCKED: ENDBRANCH  42  43
DOCKED: ENDBRANCH   1  42
DOCKED: TORSDOF 34
DOCKED: TER
DOCKED: ENDMDL
________________________________________________________________________________


    FINAL DOCKED STATE:
    ________________________


Run:   5 / 20
Time taken for this run:   5.932s

DOCKED: MODEL        5
DOCKED: USER    Run = 5
DOCKED: USER
DOCKED: USER    Estimated Free Energy of Binding    = +10.14 kcal/mol  [=(1)+(2)+(3)-(4)]
DOCKED: USER
DOCKED: USER    (1) Final Intermolecular Energy     =  +0.00 kcal/mol
DOCKED: USER        vdW + Hbond + desolv Energy     =  +0.00 kcal/mol
DOCKED: USER        Electrostatic Energy            =  +0.00 kcal/mol
DOCKED: USER        Moving Ligand-Fixed Receptor    =  +0.00 kcal/mol
DOCKED: USER        Moving Ligand-Moving Receptor   =  +0.00 kcal/mol
DOCKED: USER    (2) Final Total Internal Energy     = -31.54 kcal/mol
DOCKED: USER    (3) Torsional Free Energy           = +10.14 kcal/mol
DOCKED: USER    (4) Unbound System's Energy         = -31.54 kcal/mol
DOCKED: USER
DOCKED: USER
DOCKED: REMARK  Name = ligand_ref.pdb
DOCKED: REMARK  40 active torsions:
DOCKED: REMARK  status: ('A' for Active; 'I' for Inactive)
DOCKED: REMARK    1  A    between atoms: N_1  and  CA_2
DOCKED: REMARK    2  A    between atoms: CA_2  and  C_3
DOCKED: REMARK    3  A    between atoms: CA_2  and  CB_5
DOCKED: REMARK    4  A    between atoms: CB_5  and  CG_6
DOCKED: REMARK    5  A    between atoms: CG_6  and  CD_7
DOCKED: REMARK    6  A    between atoms: CD_7  and  OE2_9
DOCKED: REMARK    7  A    between atoms: N_10  and  CA_11
DOCKED: REMARK    8  A    between atoms: CA_11  and  C_12
DOCKED: REMARK    9  A    between atoms: CA_11  and  CB_14
DOCKED: REMARK   10  A    between atoms: CB_14  and  CG1_15
DOCKED: REMARK   11  A    between atoms: CB_14  and  CG2_16
DOCKED: REMARK   12  A    between atoms: N_17  and  CA_18
DOCKED: REMARK   13  A    between atoms: CA_18  and  C_19
DOCKED: REMARK   14  A    between atoms: CA_18  and  CB_21
DOCKED: REMARK   15  A    between atoms: CB_21  and  CG_22
DOCKED: REMARK   16  A    between atoms: N_25  and  CA_26
DOCKED: REMARK   17  A    between atoms: CA_26  and  C4_33
DOCKED: REMARK   18  A    between atoms: CA_26  and  C6_34
DOCKED: REMARK   19  A    between atoms: C_27  and  C8_36
DOCKED: REMARK   20  A    between atoms: C1_29  and  C3_32
DOCKED: REMARK   21  A    between atoms: O1_30  and  C6_34
DOCKED: REMARK   22  A    between atoms: C2_31  and  C3_32
DOCKED: REMARK   23  A    between atoms: C3_32  and  C4_33
DOCKED: REMARK   24  A    between atoms: C6_34  and  C7_35
DOCKED: REMARK   25  A    between atoms: C7_35  and  C8_36
DOCKED: REMARK   26  A    between atoms: C8_36  and  C9_37
DOCKED: REMARK   27  A    between atoms: N_38  and  CA_39
DOCKED: REMARK   28  A    between atoms: CA_39  and  C_40
DOCKED: REMARK   29  A    between atoms: CA_39  and  CB_42
DOCKED: REMARK   30  A    between atoms: N_43  and  CA_44
DOCKED: REMARK   31  A    between atoms: CA_44  and  C_45
DOCKED: REMARK   32  A    between atoms: CA_44  and  CB_47
DOCKED: REMARK   33  A    between atoms: CB_47  and  CG_48
DOCKED: REMARK   34  A    between atoms: CG_48  and  CD_49
DOCKED: REMARK   35  A    between atoms: CD_49  and  OE2_51
DOCKED: REMARK   36  A    between atoms: N_52  and  CA_53
DOCKED: REMARK   37  A    between atoms: CA_53  and  C_54
DOCKED: REMARK   38  A    between atoms: CA_53  and  CB_56
DOCKED: REMARK   39  A    between atoms: C_54  and  OXT_63
DOCKED: REMARK   40  A    between atoms: CB_56  and  CG_57
DOCKED: REMARK                            x       y       z     vdW  Elec       q    Type
DOCKED: REMARK                         _______ _______ _______ _____ _____    ______ ____
DOCKED: USER                              x       y       z     vdW  Elec       q    Type
DOCKED: USER                           _______ _______ _______ _____ _____    ______ ____
DOCKED: ROOT
DOCKED: ATOM      1  C6  1OL C   4      11.093  -8.103  -1.904 +0.00 +0.00    +0.172 C  
DOCKED: ENDROOT
DOCKED: BRANCH   1   2
DOCKED: ATOM      2  O1  1OL C   4      11.646  -7.263  -0.875 +0.00 -0.00    -0.221 OA 
DOCKED: ATOM      3  H   1OL C   4      12.085  -6.499  -1.281 +0.00 +0.00    +0.000 HD 
DOCKED: ENDBRANCH   1   2
DOCKED: BRANCH   1   4
DOCKED: ATOM      4  CA  1OL C   4      10.976  -7.326  -3.231 +0.00 +0.00    +0.126 C  
DOCKED: BRANCH   4   7
DOCKED: ATOM      5  C   ASN C   3      12.309  -5.855  -4.644 +0.00 +0.00    +0.262 C  
DOCKED: ATOM      6  O   ASN C   3      11.491  -5.893  -5.573 +0.00 -0.00    -0.271 OA 
DOCKED: ATOM      7  N   1OL C   4      12.128  -6.476  -3.487 +0.00 -0.00    -0.203 N  
DOCKED: ATOM      8  H   1OL C   4      12.797  -6.356  -2.775 +0.00 +0.00    +0.000 HD 
DOCKED: BRANCH   5   9
DOCKED: ATOM      9  CA  ASN C   3      13.592  -5.053  -4.757 +0.00 +0.00    +0.182 C  
DOCKED: BRANCH   9  12
DOCKED: ATOM     10  C   VAL C   2      14.769  -3.622  -3.179 +0.00 +0.00    +0.262 C  
DOCKED: ATOM     11  O   VAL C   2      15.856  -3.749  -3.765 +0.00 -0.00    -0.271 OA 
DOCKED: ATOM     12  N   ASN C   3      13.662  -4.251  -3.553 +0.00 -0.00    -0.196 N  
DOCKED: ATOM     13  H   ASN C   3      12.858  -4.170  -2.991 +0.00 +0.00    +0.000 HD 
DOCKED: BRANCH  10  14
DOCKED: ATOM     14  CA  VAL C   2      14.641  -2.792  -1.928 +0.00 +0.00    +0.173 C  
DOCKED: BRANCH  14  17
DOCKED: ATOM     15  C   GLU C   1      14.163  -4.756  -0.613 +0.00 +0.00    +0.259 C  
DOCKED: ATOM     16  O   GLU C   1      13.189  -5.010  -1.311 +0.00 -0.00    -0.272 OA 
DOCKED: ATOM     17  N   VAL C   2      14.897  -3.671  -0.802 +0.00 -0.00    -0.197 N  
DOCKED: ATOM     18  H   VAL C   2      15.625  -3.458  -0.173 +0.00 +0.00    +0.000 HD 
DOCKED: BRANCH  15  19
DOCKED: ATOM     19  CA  GLU C   1      14.552  -5.680   0.552 +0.00 +0.00    +0.170 C  
DOCKED: BRANCH  19  20
DOCKED: ATOM     20  N   GLU C   1      13.427  -6.609   0.890 +0.00 -0.00    -0.123 NA 
DOCKED: ATOM     21  H   GLU C   1      13.447  -7.411   0.260 +0.00 +0.00    +0.000 HD 
DOCKED: ATOM     22  H   GLU C   1      12.539  -6.117   0.786 +0.00 +0.00    +0.000 HD 
DOCKED: ENDBRANCH  19  20
DOCKED: BRANCH  19  23
DOCKED: ATOM     23  CB  GLU C   1      15.799  -6.473   0.142 +0.00 +0.00    +0.040 C  
DOCKED: BRANCH  23  24
DOCKED: ATOM     24  CG  GLU C   1      15.997  -6.559  -1.381 +0.00 +0.00    +0.116 C  
DOCKED: BRANCH  24  25
DOCKED: ATOM     25  CD  GLU C   1      15.156  -7.637  -2.042 +0.00 +0.00    +0.365 C  
DOCKED: ATOM     26  OE1 GLU C   1      15.736  -8.467  -2.786 +0.00 -0.00    -0.246 OA 
DOCKED: BRANCH  25  27
DOCKED: ATOM     27  OE2 GLU C   1      13.920  -7.655  -1.839 +0.00 -0.00    -0.246 OA 
DOCKED: ATOM     28  H   GLU C   1      13.538  -7.065  -1.220 +0.00 +0.00    +0.000 HD 
DOCKED: ENDBRANCH  25  27
DOCKED: ENDBRANCH  24  25
DOCKED: ENDBRANCH  23  24
DOCKED: ENDBRANCH  19  23
DOCKED: ENDBRANCH  15  19
DOCKED: ENDBRANCH  14  17
DOCKED: BRANCH  14  29
DOCKED: ATOM     29  CB  VAL C   2      15.615  -1.574  -2.023 +0.00 +0.00    +0.029 C  
DOCKED: ATOM     30  CG1 VAL C   2      15.195  -0.660  -3.202 +0.00 +0.00    +0.002 C  
DOCKED: ATOM     31  CG2 VAL C   2      15.659  -0.797  -0.693 +0.00 +0.00    +0.002 C  
DOCKED: ENDBRANCH  14  29
DOCKED: ENDBRANCH  10  14
DOCKED: ENDBRANCH   9  12
DOCKED: BRANCH   9  32
DOCKED: ATOM     32  CB  ASN C   3      14.804  -5.980  -4.850 +0.00 +0.00    +0.120 C  
DOCKED: BRANCH  32  33
DOCKED: ATOM     33  CG  ASN C   3      14.492  -7.250  -5.610 +0.00 +0.00    +0.263 C  
DOCKED: ATOM     34  ND2 ASN C   3      14.082  -8.307  -4.886 +0.00 -0.00    -0.088 N  
DOCKED: ATOM     35  OD1 ASN C   3      14.629  -7.287  -6.827 +0.00 -0.00    -0.272 OA 
DOCKED: ATOM     36  H   ASN C   3      13.987  -8.228  -3.910 +0.00 +0.00    +0.000 HD 
DOCKED: ATOM     37  H   ASN C   3      13.877  -9.160  -5.333 +0.00 +0.00    +0.000 HD 
DOCKED: ENDBRANCH  32  33
DOCKED: ENDBRANCH   9  32
DOCKED: ENDBRANCH   5   9
DOCKED: ENDBRANCH   4   7
DOCKED: BRANCH   4  38
DOCKED: ATOM     38  C4  1OL C   4      10.814  -8.283  -4.428 +0.00 +0.00    +0.024 C  
DOCKED: BRANCH  38  41
DOCKED: ATOM     39  C1  1OL C   4       8.859  -6.744  -4.610 +0.00 +0.00    +0.000 C  
DOCKED: ATOM     40  C2  1OL C   4       8.512  -9.225  -5.029 +0.00 +0.00    +0.000 C  
DOCKED: ATOM     41  C3  1OL C   4       9.489  -8.021  -5.170 +0.00 +0.00    +0.002 C  
DOCKED: ENDBRANCH  38  41
DOCKED: ENDBRANCH   4  38
DOCKED: ENDBRANCH   1   4
DOCKED: BRANCH   1  42
DOCKED: ATOM     42  C7  1OL C   4       9.729  -8.655  -1.451 +0.00 +0.00    +0.044 C  
DOCKED: BRANCH  42  43
DOCKED: ATOM     43  C8  1OL C   4       8.611  -7.616  -1.319 +0.00 +0.00    +0.081 C  
DOCKED: ATOM     44  C9  1OL C   4       7.348  -8.094  -2.037 +0.00 +0.00    +0.010 C  
DOCKED: BRANCH  43  45
DOCKED: ATOM     45  C   1OL C   4       8.308  -7.391   0.169 +0.00 +0.00    +0.241 C  
DOCKED: ATOM     46  O   1OL C   4       7.182  -7.680   0.614 +0.00 -0.00    -0.273 OA 
DOCKED: ATOM     47  N   ALA C   5       9.318  -6.925   0.920 +0.00 -0.00    -0.198 N  
DOCKED: ATOM     48  H   ALA C   5      10.202  -6.814   0.500 +0.00 +0.00    +0.000 HD 
DOCKED: BRANCH  47  49
DOCKED: ATOM     49  CA  ALA C   5       9.170  -6.575   2.335 +0.00 +0.00    +0.173 C  
DOCKED: ATOM     50  CB  ALA C   5       9.618  -7.709   3.225 +0.00 +0.00    +0.033 C  
DOCKED: BRANCH  49  51
DOCKED: ATOM     51  C   ALA C   5      10.057  -5.349   2.483 +0.00 +0.00    +0.262 C  
DOCKED: ATOM     52  O   ALA C   5      11.303  -5.398   2.264 +0.00 -0.00    -0.271 OA 
DOCKED: ATOM     53  N   GLU C   6       9.410  -4.234   3.014 +0.00 -0.00    -0.196 N  
DOCKED: ATOM     54  H   GLU C   6       8.539  -4.394   3.444 +0.00 +0.00    +0.000 HD 
DOCKED: BRANCH  53  55
DOCKED: ATOM     55  CA  GLU C   6       9.899  -2.815   3.000 +0.00 +0.00    +0.173 C  
DOCKED: BRANCH  55  56
DOCKED: ATOM     56  C   GLU C   6       9.682  -1.812   1.892 +0.00 +0.00    +0.262 C  
DOCKED: ATOM     57  O   GLU C   6       9.375  -0.630   1.950 +0.00 -0.00    -0.271 OA 
DOCKED: ATOM     58  N   PHE C   7       9.968  -2.679   0.841 +0.00 -0.00    -0.194 N  
DOCKED: ATOM     59  H   PHE C   7      10.168  -3.547   1.261 +0.00 +0.00    +0.000 HD 
DOCKED: BRANCH  58  60
DOCKED: ATOM     60  CA  PHE C   7      10.111  -2.900  -0.622 +0.00 +0.00    +0.202 C  
DOCKED: BRANCH  60  61
DOCKED: ATOM     61  C   PHE C   7      10.580  -4.315  -1.006 +0.00 +0.00    +0.385 C  
DOCKED: ATOM     62  O   PHE C   7      10.859  -4.684  -2.181 +0.00 -0.00    -0.244 OA 
DOCKED: BRANCH  61  63
DOCKED: ATOM     63  OXT PHE C   7      10.820  -5.179  -0.114 +0.00 -0.00    -0.244 OA 
DOCKED: ATOM     64  H   PHE C   7      11.706  -5.366   0.130 +0.00 +0.00    +0.000 HD 
DOCKED: ENDBRANCH  61  63
DOCKED: ENDBRANCH  60  61
DOCKED: BRANCH  60  65
DOCKED: ATOM     65  CB  PHE C   7      10.942  -1.814  -1.240 +0.00 +0.00    +0.060 C  
DOCKED: BRANCH  65  66
DOCKED: ATOM     66  CG  PHE C   7      10.798  -1.952  -2.686 +0.00 -0.00    -0.020 A  
DOCKED: ATOM     67  CD1 PHE C   7       9.542  -2.237  -3.196 +0.00 -0.00    -0.004 A  
DOCKED: ATOM     68  CD2 PHE C   7      11.876  -1.807  -3.541 +0.00 -0.00    -0.004 A  
DOCKED: ATOM     69  CE1 PHE C   7       9.354  -2.382  -4.566 +0.00 -0.00    -0.000 A  
DOCKED: ATOM     70  CE2 PHE C   7      11.703  -1.919  -4.907 +0.00 -0.00    -0.000 A  
DOCKED: ATOM     71  CZ  PHE C   7      10.442  -2.209  -5.411 +0.00 -0.00    -0.000 A  
DOCKED: ENDBRANCH  65  66
DOCKED: ENDBRANCH  60  65
DOCKED: ENDBRANCH  58  60
DOCKED: ENDBRANCH  55  56
DOCKED: BRANCH  55  72
DOCKED: ATOM     72  CB  GLU C   6      11.313  -2.745   3.591 +0.00 +0.00    +0.043 C  
DOCKED: BRANCH  72  73
DOCKED: ATOM     73  CG  GLU C   6      12.235  -1.946   2.660 +0.00 +0.00    +0.116 C  
DOCKED: BRANCH  73  74
DOCKED: ATOM     74  CD  GLU C   6      13.007  -2.795   1.642 +0.00 +0.00    +0.365 C  
DOCKED: ATOM     75  OE1 GLU C   6      14.243  -2.644   1.563 +0.00 -0.00    -0.246 OA 
DOCKED: BRANCH  74  76
DOCKED: ATOM     76  OE2 GLU C   6      12.367  -3.615   0.937 +0.00 -0.00    -0.246 OA 
DOCKED: ATOM     77  H   GLU C   6      12.647  -4.508   0.888 +0.00 +0.00    +0.000 HD 
DOCKED: ENDBRANCH  74  76
DOCKED: ENDBRANCH  73  74
DOCKED: ENDBRANCH  72  73
DOCKED: ENDBRANCH  55  72
DOCKED: ENDBRANCH  53  55
DOCKED: ENDBRANCH  49  51
DOCKED: ENDBRANCH  47  49
DOCKED: ENDBRANCH  43  45
DOCKED: ENDBRANCH  42  43
DOCKED: ENDBRANCH   1  42
DOCKED: TORSDOF 34
DOCKED: TER
DOCKED: ENDMDL
________________________________________________________________________________


    FINAL DOCKED STATE:
    ________________________


Run:   6 / 20
Time taken for this run:   5.932s

DOCKED: MODEL        6
DOCKED: USER    Run = 6
DOCKED: USER
DOCKED: USER    Estimated Free Energy of Binding    = +10.14 kcal/mol  [=(1)+(2)+(3)-(4)]
DOCKED: USER
DOCKED: USER    (1) Final Intermolecular Energy     =  +0.00 kcal/mol
DOCKED: USER        vdW + Hbond + desolv Energy     =  +0.00 kcal/mol
DOCKED: USER        Electrostatic Energy            =  +0.00 kcal/mol
DOCKED: USER        Moving Ligand-Fixed Receptor    =  +0.00 kcal/mol
DOCKED: USER        Moving Ligand-Moving Receptor   =  +0.00 kcal/mol
DOCKED: USER    (2) Final Total Internal Energy     = -33.35 kcal/mol
DOCKED: USER    (3) Torsional Free Energy           = +10.14 kcal/mol
DOCKED: USER    (4) Unbound System's Energy         = -33.35 kcal/mol
DOCKED: USER
DOCKED: USER
DOCKED: REMARK  Name = ligand_ref.pdb
DOCKED: REMARK  40 active torsions:
DOCKED: REMARK  status: ('A' for Active; 'I' for Inactive)
DOCKED: REMARK    1  A    between atoms: N_1  and  CA_2
DOCKED: REMARK    2  A    between atoms: CA_2  and  C_3
DOCKED: REMARK    3  A    between atoms: CA_2  and  CB_5
DOCKED: REMARK    4  A    between atoms: CB_5  and  CG_6
DOCKED: REMARK    5  A    between atoms: CG_6  and  CD_7
DOCKED: REMARK    6  A    between atoms: CD_7  and  OE2_9
DOCKED: REMARK    7  A    between atoms: N_10  and  CA_11
DOCKED: REMARK    8  A    between atoms: CA_11  and  C_12
DOCKED: REMARK    9  A    between atoms: CA_11  and  CB_14
DOCKED: REMARK   10  A    between atoms: CB_14  and  CG1_15
DOCKED: REMARK   11  A    between atoms: CB_14  and  CG2_16
DOCKED: REMARK   12  A    between atoms: N_17  and  CA_18
DOCKED: REMARK   13  A    between atoms: CA_18  and  C_19
DOCKED: REMARK   14  A    between atoms: CA_18  and  CB_21
DOCKED: REMARK   15  A    between atoms: CB_21  and  CG_22
DOCKED: REMARK   16  A    between atoms: N_25  and  CA_26
DOCKED: REMARK   17  A    between atoms: CA_26  and  C4_33
DOCKED: REMARK   18  A    between atoms: CA_26  and  C6_34
DOCKED: REMARK   19  A    between atoms: C_27  and  C8_36
DOCKED: REMARK   20  A    between atoms: C1_29  and  C3_32
DOCKED: REMARK   21  A    between atoms: O1_30  and  C6_34
DOCKED: REMARK   22  A    between atoms: C2_31  and  C3_32
DOCKED: REMARK   23  A    between atoms: C3_32  and  C4_33
DOCKED: REMARK   24  A    between atoms: C6_34  and  C7_35
DOCKED: REMARK   25  A    between atoms: C7_35  and  C8_36
DOCKED: REMARK   26  A    between atoms: C8_36  and  C9_37
DOCKED: REMARK   27  A    between atoms: N_38  and  CA_39
DOCKED: REMARK   28  A    between atoms: CA_39  and  C_40
DOCKED: REMARK   29  A    between atoms: CA_39  and  CB_42
DOCKED: REMARK   30  A    between atoms: N_43  and  CA_44
DOCKED: REMARK   31  A    between atoms: CA_44  and  C_45
DOCKED: REMARK   32  A    between atoms: CA_44  and  CB_47
DOCKED: REMARK   33  A    between atoms: CB_47  and  CG_48
DOCKED: REMARK   34  A    between atoms: CG_48  and  CD_49
DOCKED: REMARK   35  A    between atoms: CD_49  and  OE2_51
DOCKED: REMARK   36  A    between atoms: N_52  and  CA_53
DOCKED: REMARK   37  A    between atoms: CA_53  and  C_54
DOCKED: REMARK   38  A    between atoms: CA_53  and  CB_56
DOCKED: REMARK   39  A    between atoms: C_54  and  OXT_63
DOCKED: REMARK   40  A    between atoms: CB_56  and  CG_57
DOCKED: REMARK                            x       y       z     vdW  Elec       q    Type
DOCKED: REMARK                         _______ _______ _______ _____ _____    ______ ____
DOCKED: USER                              x       y       z     vdW  Elec       q    Type
DOCKED: USER                           _______ _______ _______ _____ _____    ______ ____
DOCKED: ROOT
DOCKED: ATOM      1  C6  1OL C   4       7.321  -5.210  -1.694 +0.00 +0.00    +0.172 C  
DOCKED: ENDROOT
DOCKED: BRANCH   1   2
DOCKED: ATOM      2  O1  1OL C   4       8.320  -5.174  -0.660 +0.00 -0.00    -0.221 OA 
DOCKED: ATOM      3  H   1OL C   4       8.946  -5.905  -0.789 +0.00 +0.00    +0.000 HD 
DOCKED: ENDBRANCH   1   2
DOCKED: BRANCH   1   4
DOCKED: ATOM      4  CA  1OL C   4       7.170  -3.822  -2.349 +0.00 +0.00    +0.126 C  
DOCKED: BRANCH   4   7
DOCKED: ATOM      5  C   ASN C   3       7.593  -1.628  -1.375 +0.00 +0.00    +0.262 C  
DOCKED: ATOM      6  O   ASN C   3       6.404  -1.292  -1.447 +0.00 -0.00    -0.271 OA 
DOCKED: ATOM      7  N   1OL C   4       8.037  -2.821  -1.747 +0.00 -0.00    -0.203 N  
DOCKED: ATOM      8  H   1OL C   4       8.988  -3.036  -1.611 +0.00 +0.00    +0.000 HD 
DOCKED: BRANCH   5   9
DOCKED: ATOM      9  CA  ASN C   3       8.645  -0.689  -0.817 +0.00 +0.00    +0.182 C  
DOCKED: BRANCH   9  12
DOCKED: ATOM     10  C   VAL C   2       8.358  -1.009   1.579 +0.00 +0.00    +0.262 C  
DOCKED: ATOM     11  O   VAL C   2       7.407  -0.212   1.643 +0.00 -0.00    -0.271 OA 
DOCKED: ATOM     12  N   ASN C   3       9.033  -1.247   0.462 +0.00 -0.00    -0.196 N  
DOCKED: ATOM     13  H   ASN C   3       9.828  -1.826   0.504 +0.00 +0.00    +0.000 HD 
DOCKED: BRANCH  10  14
DOCKED: ATOM     14  CA  VAL C   2       8.876  -1.716   2.804 +0.00 +0.00    +0.173 C  
DOCKED: BRANCH  14  17
DOCKED: ATOM     15  C   GLU C   1       9.544  -3.974   3.325 +0.00 +0.00    +0.259 C  
DOCKED: ATOM     16  O   GLU C   1       9.813  -3.650   4.475 +0.00 -0.00    -0.272 OA 
DOCKED: ATOM     17  N   VAL C   2       9.135  -3.094   2.425 +0.00 -0.00    -0.197 N  
DOCKED: ATOM     18  H   VAL C   2       9.004  -3.375   1.491 +0.00 +0.00    +0.000 HD 
DOCKED: BRANCH  15  19
DOCKED: ATOM     19  CA  GLU C   1       9.714  -5.431   2.863 +0.00 +0.00    +0.170 C  
DOCKED: BRANCH  19  20
DOCKED: ATOM     20  N   GLU C   1       8.928  -5.685   1.614 +0.00 -0.00    -0.123 NA 
DOCKED: ATOM     21  H   GLU C   1       9.522  -6.150   0.927 +0.00 +0.00    +0.000 HD 
DOCKED: ATOM     22  H   GLU C   1       8.599  -4.797   1.234 +0.00 +0.00    +0.000 HD 
DOCKED: ENDBRANCH  19  20
DOCKED: BRANCH  19  23
DOCKED: ATOM     23  CB  GLU C   1      11.206  -5.689   2.622 +0.00 +0.00    +0.040 C  
DOCKED: BRANCH  23  24
DOCKED: ATOM     24  CG  GLU C   1      11.921  -4.530   1.908 +0.00 +0.00    +0.116 C  
DOCKED: BRANCH  24  25
DOCKED: ATOM     25  CD  GLU C   1      11.520  -4.376   0.451 +0.00 +0.00    +0.365 C  
DOCKED: ATOM     26  OE1 GLU C   1      12.428  -4.390  -0.417 +0.00 -0.00    -0.246 OA 
DOCKED: BRANCH  25  27
DOCKED: ATOM     27  OE2 GLU C   1      10.310  -4.226   0.165 +0.00 -0.00    -0.246 OA 
DOCKED: ATOM     28  H   GLU C   1       9.821  -4.941  -0.193 +0.00 +0.00    +0.000 HD 
DOCKED: ENDBRANCH  25  27
DOCKED: ENDBRANCH  24  25
DOCKED: ENDBRANCH  23  24
DOCKED: ENDBRANCH  19  23
DOCKED: ENDBRANCH  15  19
DOCKED: ENDBRANCH  14  17
DOCKED: BRANCH  14  29
DOCKED: ATOM     29  CB  VAL C   2      10.130  -0.955   3.340 +0.00 +0.00    +0.029 C  
DOCKED: ATOM     30  CG1 VAL C   2      11.370  -1.323   2.486 +0.00 +0.00    +0.002 C  
DOCKED: ATOM     31  CG2 VAL C   2       9.887   0.567   3.358 +0.00 +0.00    +0.002 C  
DOCKED: ENDBRANCH  14  29
DOCKED: ENDBRANCH  10  14
DOCKED: ENDBRANCH   9  12
DOCKED: BRANCH   9  32
DOCKED: ATOM     32  CB  ASN C   3       9.854  -0.611  -1.750 +0.00 +0.00    +0.120 C  
DOCKED: BRANCH  32  33
DOCKED: ATOM     33  CG  ASN C   3      11.160  -0.772  -1.003 +0.00 +0.00    +0.263 C  
DOCKED: ATOM     34  ND2 ASN C   3      11.636  -2.023  -0.872 +0.00 -0.00    -0.088 N  
DOCKED: ATOM     35  OD1 ASN C   3      11.726   0.210  -0.539 +0.00 -0.00    -0.272 OA 
DOCKED: ATOM     36  H   ASN C   3      11.144  -2.781  -1.263 +0.00 +0.00    +0.000 HD 
DOCKED: ATOM     37  H   ASN C   3      12.476  -2.182  -0.384 +0.00 +0.00    +0.000 HD 
DOCKED: ENDBRANCH  32  33
DOCKED: ENDBRANCH   9  32
DOCKED: ENDBRANCH   5   9
DOCKED: ENDBRANCH   4   7
DOCKED: BRANCH   4  38
DOCKED: ATOM     38  C4  1OL C   4       7.480  -3.877  -3.857 +0.00 +0.00    +0.024 C  
DOCKED: BRANCH  38  41
DOCKED: ATOM     39  C1  1OL C   4       6.678  -4.636  -6.094 +0.00 +0.00    +0.000 C  
DOCKED: ATOM     40  C2  1OL C   4       5.040  -4.592  -4.153 +0.00 +0.00    +0.000 C  
DOCKED: ATOM     41  C3  1OL C   4       6.516  -4.834  -4.585 +0.00 +0.00    +0.002 C  
DOCKED: ENDBRANCH  38  41
DOCKED: ENDBRANCH   4  38
DOCKED: ENDBRANCH   1   4
DOCKED: BRANCH   1  42
DOCKED: ATOM     42  C7  1OL C   4       5.985  -5.707  -1.112 +0.00 +0.00    +0.044 C  
DOCKED: BRANCH  42  43
DOCKED: ATOM     43  C8  1OL C   4       6.081  -6.935  -0.202 +0.00 +0.00    +0.081 C  
DOCKED: ATOM     44  C9  1OL C   4       4.816  -7.787  -0.316 +0.00 +0.00    +0.010 C  
DOCKED: BRANCH  43  45
DOCKED: ATOM     45  C   1OL C   4       7.305  -7.767  -0.609 +0.00 +0.00    +0.241 C  
DOCKED: ATOM     46  O   1OL C   4       8.302  -7.792   0.134 +0.00 -0.00    -0.273 OA 
DOCKED: ATOM     47  N   ALA C   5       7.199  -8.465  -1.751 +0.00 -0.00    -0.198 N  
DOCKED: ATOM     48  H   ALA C   5       6.336  -8.458  -2.226 +0.00 +0.00    +0.000 HD 
DOCKED: BRANCH  47  49
DOCKED: ATOM     49  CA  ALA C   5       8.304  -9.237  -2.324 +0.00 +0.00    +0.173 C  
DOCKED: ATOM     50  CB  ALA C   5       7.953  -9.746  -3.702 +0.00 +0.00    +0.033 C  
DOCKED: BRANCH  49  51
DOCKED: ATOM     51  C   ALA C   5       9.446  -8.235  -2.360 +0.00 +0.00    +0.262 C  
DOCKED: ATOM     52  O   ALA C   5       9.241  -6.998  -2.537 +0.00 -0.00    -0.271 OA 
DOCKED: ATOM     53  N   GLU C   6      10.715  -8.811  -2.329 +0.00 -0.00    -0.196 N  
DOCKED: ATOM     54  H   GLU C   6      10.764  -9.776  -2.514 +0.00 +0.00    +0.000 HD 
DOCKED: BRANCH  53  55
DOCKED: ATOM     55  CA  GLU C   6      12.015  -8.116  -2.044 +0.00 +0.00    +0.173 C  
DOCKED: BRANCH  55  56
DOCKED: ATOM     56  C   GLU C   6      12.886  -7.412  -3.058 +0.00 +0.00    +0.262 C  
DOCKED: ATOM     57  O   GLU C   6      13.878  -7.808  -3.652 +0.00 -0.00    -0.271 OA 
DOCKED: ATOM     58  N   PHE C   7      12.165  -6.221  -3.078 +0.00 -0.00    -0.194 N  
DOCKED: ATOM     59  H   PHE C   7      11.431  -6.344  -2.433 +0.00 +0.00    +0.000 HD 
DOCKED: BRANCH  58  60
DOCKED: ATOM     60  CA  PHE C   7      11.993  -4.849  -3.625 +0.00 +0.00    +0.202 C  
DOCKED: BRANCH  60  61
DOCKED: ATOM     61  C   PHE C   7      10.824  -4.062  -3.004 +0.00 +0.00    +0.385 C  
DOCKED: ATOM     62  O   PHE C   7      10.500  -2.886  -3.327 +0.00 -0.00    -0.244 OA 
DOCKED: BRANCH  61  63
DOCKED: ATOM     63  OXT PHE C   7      10.036  -4.618  -2.185 +0.00 -0.00    -0.244 OA 
DOCKED: ATOM     64  H   PHE C   7      10.347  -5.303  -1.627 +0.00 +0.00    +0.000 HD 
DOCKED: ENDBRANCH  61  63
DOCKED: ENDBRANCH  60  61
DOCKED: BRANCH  60  65
DOCKED: ATOM     65  CB  PHE C   7      11.954  -4.880  -5.124 +0.00 +0.00    +0.060 C  
DOCKED: BRANCH  65  66
DOCKED: ATOM     66  CG  PHE C   7      11.112  -6.014  -5.495 +0.00 -0.00    -0.020 A  
DOCKED: ATOM     67  CD1 PHE C   7      11.719  -7.129  -6.047 +0.00 -0.00    -0.004 A  
DOCKED: ATOM     68  CD2 PHE C   7       9.741  -5.992  -5.306 +0.00 -0.00    -0.004 A  
DOCKED: ATOM     69  CE1 PHE C   7      10.960  -8.233  -6.419 +0.00 -0.00    -0.000 A  
DOCKED: ATOM     70  CE2 PHE C   7       8.974  -7.091  -5.644 +0.00 -0.00    -0.000 A  
DOCKED: ATOM     71  CZ  PHE C   7       9.589  -8.204  -6.200 +0.00 -0.00    -0.000 A  
DOCKED: ENDBRANCH  65  66
DOCKED: ENDBRANCH  60  65
DOCKED: ENDBRANCH  58  60
DOCKED: ENDBRANCH  55  56
DOCKED: BRANCH  55  72
DOCKED: ATOM     72  CB  GLU C   6      12.828  -8.927  -1.028 +0.00 +0.00    +0.043 C  
DOCKED: BRANCH  72  73
DOCKED: ATOM     73  CG  GLU C   6      12.488  -8.478   0.399 +0.00 +0.00    +0.116 C  
DOCKED: BRANCH  73  74
DOCKED: ATOM     74  CD  GLU C   6      11.137  -7.764   0.539 +0.00 +0.00    +0.365 C  
DOCKED: ATOM     75  OE1 GLU C   6      10.358  -8.145   1.437 +0.00 -0.00    -0.246 OA 
DOCKED: BRANCH  74  76
DOCKED: ATOM     76  OE2 GLU C   6      10.875  -6.818  -0.245 +0.00 -0.00    -0.246 OA 
DOCKED: ATOM     77  H   GLU C   6      10.013  -6.450  -0.263 +0.00 +0.00    +0.000 HD 
DOCKED: ENDBRANCH  74  76
DOCKED: ENDBRANCH  73  74
DOCKED: ENDBRANCH  72  73
DOCKED: ENDBRANCH  55  72
DOCKED: ENDBRANCH  53  55
DOCKED: ENDBRANCH  49  51
DOCKED: ENDBRANCH  47  49
DOCKED: ENDBRANCH  43  45
DOCKED: ENDBRANCH  42  43
DOCKED: ENDBRANCH   1  42
DOCKED: TORSDOF 34
DOCKED: TER
DOCKED: ENDMDL
________________________________________________________________________________


    FINAL DOCKED STATE:
    ________________________


Run:   7 / 20
Time taken for this run:   5.932s

DOCKED: MODEL        7
DOCKED: USER    Run = 7
DOCKED: USER
DOCKED: USER    Estimated Free Energy of Binding    = +10.14 kcal/mol  [=(1)+(2)+(3)-(4)]
DOCKED: USER
DOCKED: USER    (1) Final Intermolecular Energy     =  +0.00 kcal/mol
DOCKED: USER        vdW + Hbond + desolv Energy     =  +0.00 kcal/mol
DOCKED: USER        Electrostatic Energy            =  +0.00 kcal/mol
DOCKED: USER        Moving Ligand-Fixed Receptor    =  +0.00 kcal/mol
DOCKED: USER        Moving Ligand-Moving Receptor   =  +0.00 kcal/mol
DOCKED: USER    (2) Final Total Internal Energy     = -33.15 kcal/mol
DOCKED: USER    (3) Torsional Free Energy           = +10.14 kcal/mol
DOCKED: USER    (4) Unbound System's Energy         = -33.15 kcal/mol
DOCKED: USER
DOCKED: USER
DOCKED: REMARK  Name = ligand_ref.pdb
DOCKED: REMARK  40 active torsions:
DOCKED: REMARK  status: ('A' for Active; 'I' for Inactive)
DOCKED: REMARK    1  A    between atoms: N_1  and  CA_2
DOCKED: REMARK    2  A    between atoms: CA_2  and  C_3
DOCKED: REMARK    3  A    between atoms: CA_2  and  CB_5
DOCKED: REMARK    4  A    between atoms: CB_5  and  CG_6
DOCKED: REMARK    5  A    between atoms: CG_6  and  CD_7
DOCKED: REMARK    6  A    between atoms: CD_7  and  OE2_9
DOCKED: REMARK    7  A    between atoms: N_10  and  CA_11
DOCKED: REMARK    8  A    between atoms: CA_11  and  C_12
DOCKED: REMARK    9  A    between atoms: CA_11  and  CB_14
DOCKED: REMARK   10  A    between atoms: CB_14  and  CG1_15
DOCKED: REMARK   11  A    between atoms: CB_14  and  CG2_16
DOCKED: REMARK   12  A    between atoms: N_17  and  CA_18
DOCKED: REMARK   13  A    between atoms: CA_18  and  C_19
DOCKED: REMARK   14  A    between atoms: CA_18  and  CB_21
DOCKED: REMARK   15  A    between atoms: CB_21  and  CG_22
DOCKED: REMARK   16  A    between atoms: N_25  and  CA_26
DOCKED: REMARK   17  A    between atoms: CA_26  and  C4_33
DOCKED: REMARK   18  A    between atoms: CA_26  and  C6_34
DOCKED: REMARK   19  A    between atoms: C_27  and  C8_36
DOCKED: REMARK   20  A    between atoms: C1_29  and  C3_32
DOCKED: REMARK   21  A    between atoms: O1_30  and  C6_34
DOCKED: REMARK   22  A    between atoms: C2_31  and  C3_32
DOCKED: REMARK   23  A    between atoms: C3_32  and  C4_33
DOCKED: REMARK   24  A    between atoms: C6_34  and  C7_35
DOCKED: REMARK   25  A    between atoms: C7_35  and  C8_36
DOCKED: REMARK   26  A    between atoms: C8_36  and  C9_37
DOCKED: REMARK   27  A    between atoms: N_38  and  CA_39
DOCKED: REMARK   28  A    between atoms: CA_39  and  C_40
DOCKED: REMARK   29  A    between atoms: CA_39  and  CB_42
DOCKED: REMARK   30  A    between atoms: N_43  and  CA_44
DOCKED: REMARK   31  A    between atoms: CA_44  and  C_45
DOCKED: REMARK   32  A    between atoms: CA_44  and  CB_47
DOCKED: REMARK   33  A    between atoms: CB_47  and  CG_48
DOCKED: REMARK   34  A    between atoms: CG_48  and  CD_49
DOCKED: REMARK   35  A    between atoms: CD_49  and  OE2_51
DOCKED: REMARK   36  A    between atoms: N_52  and  CA_53
DOCKED: REMARK   37  A    between atoms: CA_53  and  C_54
DOCKED: REMARK   38  A    between atoms: CA_53  and  CB_56
DOCKED: REMARK   39  A    between atoms: C_54  and  OXT_63
DOCKED: REMARK   40  A    between atoms: CB_56  and  CG_57
DOCKED: REMARK                            x       y       z     vdW  Elec       q    Type
DOCKED: REMARK                         _______ _______ _______ _____ _____    ______ ____
DOCKED: USER                              x       y       z     vdW  Elec       q    Type
DOCKED: USER                           _______ _______ _______ _____ _____    ______ ____
DOCKED: ROOT
DOCKED: ATOM      1  C6  1OL C   4      11.717  -7.699  -0.732 +0.00 +0.00    +0.172 C  
DOCKED: ENDROOT
DOCKED: BRANCH   1   2
DOCKED: ATOM      2  O1  1OL C   4      12.270  -6.820   0.263 +0.00 -0.00    -0.221 OA 
DOCKED: ATOM      3  H   1OL C   4      11.550  -6.391   0.752 +0.00 +0.00    +0.000 HD 
DOCKED: ENDBRANCH   1   2
DOCKED: BRANCH   1   4
DOCKED: ATOM      4  CA  1OL C   4      11.638  -6.987  -2.098 +0.00 +0.00    +0.126 C  
DOCKED: BRANCH   4   7
DOCKED: ATOM      5  C   ASN C   3      13.054  -5.498  -3.408 +0.00 +0.00    +0.262 C  
DOCKED: ATOM      6  O   ASN C   3      12.633  -5.936  -4.487 +0.00 -0.00    -0.271 OA 
DOCKED: ATOM      7  N   1OL C   4      12.611  -5.915  -2.229 +0.00 -0.00    -0.203 N  
DOCKED: ATOM      8  H   1OL C   4      12.953  -5.482  -1.414 +0.00 +0.00    +0.000 HD 
DOCKED: BRANCH   5   9
DOCKED: ATOM      9  CA  ASN C   3      14.107  -4.408  -3.356 +0.00 +0.00    +0.182 C  
DOCKED: BRANCH   9  12
DOCKED: ATOM     10  C   VAL C   2      13.715  -2.241  -2.320 +0.00 +0.00    +0.262 C  
DOCKED: ATOM     11  O   VAL C   2      14.087  -1.613  -3.326 +0.00 -0.00    -0.271 OA 
DOCKED: ATOM     12  N   ASN C   3      13.748  -3.564  -2.235 +0.00 -0.00    -0.196 N  
DOCKED: ATOM     13  H   ASN C   3      13.518  -3.990  -1.378 +0.00 +0.00    +0.000 HD 
DOCKED: BRANCH  10  14
DOCKED: ATOM     14  CA  VAL C   2      13.267  -1.531  -1.069 +0.00 +0.00    +0.173 C  
DOCKED: BRANCH  14  17
DOCKED: ATOM     15  C   GLU C   1      11.114  -2.562  -0.730 +0.00 +0.00    +0.259 C  
DOCKED: ATOM     16  O   GLU C   1      10.621  -1.868  -1.610 +0.00 -0.00    -0.272 OA 
DOCKED: ATOM     17  N   VAL C   2      12.378  -2.432  -0.359 +0.00 -0.00    -0.197 N  
DOCKED: ATOM     18  H   VAL C   2      12.719  -2.952   0.404 +0.00 +0.00    +0.000 HD 
DOCKED: BRANCH  15  19
DOCKED: ATOM     19  CA  GLU C   1      10.261  -3.600   0.018 +0.00 +0.00    +0.170 C  
DOCKED: BRANCH  19  20
DOCKED: ATOM     20  N   GLU C   1      11.080  -4.804   0.369 +0.00 -0.00    -0.123 NA 
DOCKED: ATOM     21  H   GLU C   1      10.598  -5.346   1.087 +0.00 +0.00    +0.000 HD 
DOCKED: ATOM     22  H   GLU C   1      11.989  -4.505   0.722 +0.00 +0.00    +0.000 HD 
DOCKED: ENDBRANCH  19  20
DOCKED: BRANCH  19  23
DOCKED: ATOM     23  CB  GLU C   1       9.702  -2.942   1.284 +0.00 +0.00    +0.040 C  
DOCKED: BRANCH  23  24
DOCKED: ATOM     24  CG  GLU C   1      10.290  -3.515   2.584 +0.00 +0.00    +0.116 C  
DOCKED: BRANCH  24  25
DOCKED: ATOM     25  CD  GLU C   1      11.636  -2.918   2.956 +0.00 +0.00    +0.365 C  
DOCKED: ATOM     26  OE1 GLU C   1      11.660  -2.004   3.819 +0.00 -0.00    -0.246 OA 
DOCKED: BRANCH  25  27
DOCKED: ATOM     27  OE2 GLU C   1      12.668  -3.342   2.387 +0.00 -0.00    -0.246 OA 
DOCKED: ATOM     28  H   GLU C   1      12.595  -3.892   1.633 +0.00 +0.00    +0.000 HD 
DOCKED: ENDBRANCH  25  27
DOCKED: ENDBRANCH  24  25
DOCKED: ENDBRANCH  23  24
DOCKED: ENDBRANCH  19  23
DOCKED: ENDBRANCH  15  19
DOCKED: ENDBRANCH  14  17
DOCKED: BRANCH  14  29
DOCKED: ATOM     29  CB  VAL C   2      14.526  -1.098  -0.250 +0.00 +0.00    +0.029 C  
DOCKED: ATOM     30  CG1 VAL C   2      15.186   0.133  -0.919 +0.00 +0.00    +0.002 C  
DOCKED: ATOM     31  CG2 VAL C   2      14.157  -0.814   1.219 +0.00 +0.00    +0.002 C  
DOCKED: ENDBRANCH  14  29
DOCKED: ENDBRANCH  10  14
DOCKED: ENDBRANCH   9  12
DOCKED: BRANCH   9  32
DOCKED: ATOM     32  CB  ASN C   3      15.498  -5.007  -3.146 +0.00 +0.00    +0.120 C  
DOCKED: BRANCH  32  33
DOCKED: ATOM     33  CG  ASN C   3      15.433  -6.455  -2.711 +0.00 +0.00    +0.263 C  
DOCKED: ATOM     34  ND2 ASN C   3      15.043  -6.693  -1.446 +0.00 -0.00    -0.088 N  
DOCKED: ATOM     35  OD1 ASN C   3      15.741  -7.345  -3.495 +0.00 -0.00    -0.272 OA 
DOCKED: ATOM     36  H   ASN C   3      14.805  -5.943  -0.855 +0.00 +0.00    +0.000 HD 
DOCKED: ATOM     37  H   ASN C   3      14.996  -7.618  -1.112 +0.00 +0.00    +0.000 HD 
DOCKED: ENDBRANCH  32  33
DOCKED: ENDBRANCH   9  32
DOCKED: ENDBRANCH   5   9
DOCKED: ENDBRANCH   4   7
DOCKED: BRANCH   4  38
DOCKED: ATOM     38  C4  1OL C   4      11.857  -7.976  -3.259 +0.00 +0.00    +0.024 C  
DOCKED: BRANCH  38  41
DOCKED: ATOM     39  C1  1OL C   4      13.803  -9.518  -3.013 +0.00 +0.00    +0.000 C  
DOCKED: ATOM     40  C2  1OL C   4      11.494 -10.506  -3.396 +0.00 +0.00    +0.000 C  
DOCKED: ATOM     41  C3  1OL C   4      12.307  -9.354  -2.735 +0.00 +0.00    +0.002 C  
DOCKED: ENDBRANCH  38  41
DOCKED: ENDBRANCH   4  38
DOCKED: ENDBRANCH   1   4
DOCKED: BRANCH   1  42
DOCKED: ATOM     42  C7  1OL C   4      10.335  -8.201  -0.276 +0.00 +0.00    +0.044 C  
DOCKED: BRANCH  42  43
DOCKED: ATOM     43  C8  1OL C   4      10.344  -9.491   0.550 +0.00 +0.00    +0.081 C  
DOCKED: ATOM     44  C9  1OL C   4      10.137 -10.707  -0.354 +0.00 +0.00    +0.010 C  
DOCKED: BRANCH  43  45
DOCKED: ATOM     45  C   1OL C   4      11.690  -9.611   1.279 +0.00 +0.00    +0.241 C  
DOCKED: ATOM     46  O   1OL C   4      11.721  -9.536   2.520 +0.00 -0.00    -0.273 OA 
DOCKED: ATOM     47  N   ALA C   5      12.767  -9.837   0.510 +0.00 -0.00    -0.198 N  
DOCKED: ATOM     48  H   ALA C   5      12.633  -9.975  -0.456 +0.00 +0.00    +0.000 HD 
DOCKED: BRANCH  47  49
DOCKED: ATOM     49  CA  ALA C   5      14.132  -9.890   1.039 +0.00 +0.00    +0.173 C  
DOCKED: ATOM     50  CB  ALA C   5      15.128 -10.179  -0.058 +0.00 +0.00    +0.033 C  
DOCKED: BRANCH  49  51
DOCKED: ATOM     51  C   ALA C   5      14.327  -8.505   1.635 +0.00 +0.00    +0.262 C  
DOCKED: ATOM     52  O   ALA C   5      14.853  -7.563   0.973 +0.00 -0.00    -0.271 OA 
DOCKED: ATOM     53  N   GLU C   6      14.017  -8.416   2.991 +0.00 -0.00    -0.196 N  
DOCKED: ATOM     54  H   GLU C   6      13.927  -9.267   3.478 +0.00 +0.00    +0.000 HD 
DOCKED: BRANCH  53  55
DOCKED: ATOM     55  CA  GLU C   6      13.806  -7.162   3.788 +0.00 +0.00    +0.173 C  
DOCKED: BRANCH  55  56
DOCKED: ATOM     56  C   GLU C   6      14.870  -6.157   4.161 +0.00 +0.00    +0.262 C  
DOCKED: ATOM     57  O   GLU C   6      15.498  -6.026   5.202 +0.00 -0.00    -0.271 OA 
DOCKED: ATOM     58  N   PHE C   7      14.885  -5.489   2.939 +0.00 -0.00    -0.194 N  
DOCKED: ATOM     59  H   PHE C   7      14.207  -5.938   2.384 +0.00 +0.00    +0.000 HD 
DOCKED: BRANCH  58  60
DOCKED: ATOM     60  CA  PHE C   7      15.452  -4.412   2.087 +0.00 +0.00    +0.202 C  
DOCKED: BRANCH  60  61
DOCKED: ATOM     61  C   PHE C   7      14.836  -4.328   0.679 +0.00 +0.00    +0.385 C  
DOCKED: ATOM     62  O   PHE C   7      15.445  -3.914  -0.347 +0.00 -0.00    -0.244 OA 
DOCKED: BRANCH  61  63
DOCKED: ATOM     63  OXT PHE C   7      13.681  -4.790   0.452 +0.00 -0.00    -0.244 OA 
DOCKED: ATOM     64  H   PHE C   7      13.151  -5.095   1.162 +0.00 +0.00    +0.000 HD 
DOCKED: ENDBRANCH  61  63
DOCKED: ENDBRANCH  60  61
DOCKED: BRANCH  60  65
DOCKED: ATOM     65  CB  PHE C   7      16.951  -4.484   2.074 +0.00 +0.00    +0.060 C  
DOCKED: BRANCH  65  66
DOCKED: ATOM     66  CG  PHE C   7      17.298  -5.817   1.590 +0.00 -0.00    -0.020 A  
DOCKED: ATOM     67  CD1 PHE C   7      17.505  -5.988   0.232 +0.00 -0.00    -0.004 A  
DOCKED: ATOM     68  CD2 PHE C   7      17.421  -6.893   2.451 +0.00 -0.00    -0.004 A  
DOCKED: ATOM     69  CE1 PHE C   7      17.835  -7.239  -0.279 +0.00 -0.00    -0.000 A  
DOCKED: ATOM     70  CE2 PHE C   7      17.776  -8.137   1.966 +0.00 -0.00    -0.000 A  
DOCKED: ATOM     71  CZ  PHE C   7      17.978  -8.302   0.602 +0.00 -0.00    -0.000 A  
DOCKED: ENDBRANCH  65  66
DOCKED: ENDBRANCH  60  65
DOCKED: ENDBRANCH  58  60
DOCKED: ENDBRANCH  55  56
DOCKED: BRANCH  55  72
DOCKED: ATOM     72  CB  GLU C   6      12.820  -7.431   4.933 +0.00 +0.00    +0.043 C  
DOCKED: BRANCH  72  73
DOCKED: ATOM     73  CG  GLU C   6      11.427  -6.903   4.565 +0.00 +0.00    +0.116 C  
DOCKED: BRANCH  73  74
DOCKED: ATOM     74  CD  GLU C   6      11.272  -6.478   3.099 +0.00 +0.00    +0.365 C  
DOCKED: ATOM     75  OE1 GLU C   6      10.340  -6.975   2.434 +0.00 -0.00    -0.246 OA 
DOCKED: BRANCH  74  76
DOCKED: ATOM     76  OE2 GLU C   6      12.080  -5.637   2.630 +0.00 -0.00    -0.246 OA 
DOCKED: ATOM     77  H   GLU C   6      11.980  -5.332   1.750 +0.00 +0.00    +0.000 HD 
DOCKED: ENDBRANCH  74  76
DOCKED: ENDBRANCH  73  74
DOCKED: ENDBRANCH  72  73
DOCKED: ENDBRANCH  55  72
DOCKED: ENDBRANCH  53  55
DOCKED: ENDBRANCH  49  51
DOCKED: ENDBRANCH  47  49
DOCKED: ENDBRANCH  43  45
DOCKED: ENDBRANCH  42  43
DOCKED: ENDBRANCH   1  42
DOCKED: TORSDOF 34
DOCKED: TER
DOCKED: ENDMDL
________________________________________________________________________________


    FINAL DOCKED STATE:
    ________________________


Run:   8 / 20
Time taken for this run:   5.932s

DOCKED: MODEL        8
DOCKED: USER    Run = 8
DOCKED: USER
DOCKED: USER    Estimated Free Energy of Binding    = +10.14 kcal/mol  [=(1)+(2)+(3)-(4)]
DOCKED: USER
DOCKED: USER    (1) Final Intermolecular Energy     =  +0.00 kcal/mol
DOCKED: USER        vdW + Hbond + desolv Energy     =  +0.00 kcal/mol
DOCKED: USER        Electrostatic Energy            =  +0.00 kcal/mol
DOCKED: USER        Moving Ligand-Fixed Receptor    =  +0.00 kcal/mol
DOCKED: USER        Moving Ligand-Moving Receptor   =  +0.00 kcal/mol
DOCKED: USER    (2) Final Total Internal Energy     = -33.70 kcal/mol
DOCKED: USER    (3) Torsional Free Energy           = +10.14 kcal/mol
DOCKED: USER    (4) Unbound System's Energy         = -33.70 kcal/mol
DOCKED: USER
DOCKED: USER
DOCKED: REMARK  Name = ligand_ref.pdb
DOCKED: REMARK  40 active torsions:
DOCKED: REMARK  status: ('A' for Active; 'I' for Inactive)
DOCKED: REMARK    1  A    between atoms: N_1  and  CA_2
DOCKED: REMARK    2  A    between atoms: CA_2  and  C_3
DOCKED: REMARK    3  A    between atoms: CA_2  and  CB_5
DOCKED: REMARK    4  A    between atoms: CB_5  and  CG_6
DOCKED: REMARK    5  A    between atoms: CG_6  and  CD_7
DOCKED: REMARK    6  A    between atoms: CD_7  and  OE2_9
DOCKED: REMARK    7  A    between atoms: N_10  and  CA_11
DOCKED: REMARK    8  A    between atoms: CA_11  and  C_12
DOCKED: REMARK    9  A    between atoms: CA_11  and  CB_14
DOCKED: REMARK   10  A    between atoms: CB_14  and  CG1_15
DOCKED: REMARK   11  A    between atoms: CB_14  and  CG2_16
DOCKED: REMARK   12  A    between atoms: N_17  and  CA_18
DOCKED: REMARK   13  A    between atoms: CA_18  and  C_19
DOCKED: REMARK   14  A    between atoms: CA_18  and  CB_21
DOCKED: REMARK   15  A    between atoms: CB_21  and  CG_22
DOCKED: REMARK   16  A    between atoms: N_25  and  CA_26
DOCKED: REMARK   17  A    between atoms: CA_26  and  C4_33
DOCKED: REMARK   18  A    between atoms: CA_26  and  C6_34
DOCKED: REMARK   19  A    between atoms: C_27  and  C8_36
DOCKED: REMARK   20  A    between atoms: C1_29  and  C3_32
DOCKED: REMARK   21  A    between atoms: O1_30  and  C6_34
DOCKED: REMARK   22  A    between atoms: C2_31  and  C3_32
DOCKED: REMARK   23  A    between atoms: C3_32  and  C4_33
DOCKED: REMARK   24  A    between atoms: C6_34  and  C7_35
DOCKED: REMARK   25  A    between atoms: C7_35  and  C8_36
DOCKED: REMARK   26  A    between atoms: C8_36  and  C9_37
DOCKED: REMARK   27  A    between atoms: N_38  and  CA_39
DOCKED: REMARK   28  A    between atoms: CA_39  and  C_40
DOCKED: REMARK   29  A    between atoms: CA_39  and  CB_42
DOCKED: REMARK   30  A    between atoms: N_43  and  CA_44
DOCKED: REMARK   31  A    between atoms: CA_44  and  C_45
DOCKED: REMARK   32  A    between atoms: CA_44  and  CB_47
DOCKED: REMARK   33  A    between atoms: CB_47  and  CG_48
DOCKED: REMARK   34  A    between atoms: CG_48  and  CD_49
DOCKED: REMARK   35  A    between atoms: CD_49  and  OE2_51
DOCKED: REMARK   36  A    between atoms: N_52  and  CA_53
DOCKED: REMARK   37  A    between atoms: CA_53  and  C_54
DOCKED: REMARK   38  A    between atoms: CA_53  and  CB_56
DOCKED: REMARK   39  A    between atoms: C_54  and  OXT_63
DOCKED: REMARK   40  A    between atoms: CB_56  and  CG_57
DOCKED: REMARK                            x       y       z     vdW  Elec       q    Type
DOCKED: REMARK                         _______ _______ _______ _____ _____    ______ ____
DOCKED: USER                              x       y       z     vdW  Elec       q    Type
DOCKED: USER                           _______ _______ _______ _____ _____    ______ ____
DOCKED: ROOT
DOCKED: ATOM      1  C6  1OL C   4      11.997  -0.754   1.230 +0.00 +0.00    +0.172 C  
DOCKED: ENDROOT
DOCKED: BRANCH   1   2
DOCKED: ATOM      2  O1  1OL C   4      11.085   0.199   1.806 +0.00 -0.00    -0.221 OA 
DOCKED: ATOM      3  H   1OL C   4      11.323   1.093   1.513 +0.00 +0.00    +0.000 HD 
DOCKED: ENDBRANCH   1   2
DOCKED: BRANCH   1   4
DOCKED: ATOM      4  CA  1OL C   4      12.806  -0.106   0.089 +0.00 +0.00    +0.126 C  
DOCKED: BRANCH   4   7
DOCKED: ATOM      5  C   ASN C   3      13.109   2.067  -0.970 +0.00 +0.00    +0.262 C  
DOCKED: ATOM      6  O   ASN C   3      14.078   1.682  -1.639 +0.00 -0.00    -0.271 OA 
DOCKED: ATOM      7  N   1OL C   4      12.427   1.277  -0.153 +0.00 -0.00    -0.203 N  
DOCKED: ATOM      8  H   1OL C   4      11.635   1.639   0.306 +0.00 +0.00    +0.000 HD 
DOCKED: BRANCH   5   9
DOCKED: ATOM      9  CA  ASN C   3      12.606   3.495  -1.062 +0.00 +0.00    +0.182 C  
DOCKED: BRANCH   9  12
DOCKED: ATOM     10  C   VAL C   2      10.384   4.477  -0.912 +0.00 +0.00    +0.262 C  
DOCKED: ATOM     11  O   VAL C   2      10.825   5.625  -0.735 +0.00 -0.00    -0.271 OA 
DOCKED: ATOM     12  N   ASN C   3      11.161   3.407  -1.020 +0.00 -0.00    -0.196 N  
DOCKED: ATOM     13  H   ASN C   3      10.739   2.519  -1.073 +0.00 +0.00    +0.000 HD 
DOCKED: BRANCH  10  14
DOCKED: ATOM     14  CA  VAL C   2       8.904   4.198  -0.937 +0.00 +0.00    +0.173 C  
DOCKED: BRANCH  14  17
DOCKED: ATOM     15  C   GLU C   1       8.944   2.750   0.991 +0.00 +0.00    +0.259 C  
DOCKED: ATOM     16  O   GLU C   1       9.611   1.923   0.381 +0.00 -0.00    -0.272 OA 
DOCKED: ATOM     17  N   VAL C   2       8.508   3.861   0.418 +0.00 -0.00    -0.197 N  
DOCKED: ATOM     18  H   VAL C   2       7.909   4.464   0.915 +0.00 +0.00    +0.000 HD 
DOCKED: BRANCH  15  19
DOCKED: ATOM     19  CA  GLU C   1       8.549   2.508   2.457 +0.00 +0.00    +0.170 C  
DOCKED: BRANCH  19  20
DOCKED: ATOM     20  N   GLU C   1       9.656   1.820   3.196 +0.00 -0.00    -0.123 NA 
DOCKED: ATOM     21  H   GLU C   1       9.685   2.159   4.157 +0.00 +0.00    +0.000 HD 
DOCKED: ATOM     22  H   GLU C   1      10.545   2.018   2.737 +0.00 +0.00    +0.000 HD 
DOCKED: ENDBRANCH  19  20
DOCKED: BRANCH  19  23
DOCKED: ATOM     23  CB  GLU C   1       8.234   3.863   3.101 +0.00 +0.00    +0.040 C  
DOCKED: BRANCH  23  24
DOCKED: ATOM     24  CG  GLU C   1       9.478   4.738   3.329 +0.00 +0.00    +0.116 C  
DOCKED: BRANCH  24  25
DOCKED: ATOM     25  CD  GLU C   1      10.375   4.237   4.448 +0.00 +0.00    +0.365 C  
DOCKED: ATOM     26  OE1 GLU C   1      10.093   4.571   5.626 +0.00 -0.00    -0.246 OA 
DOCKED: BRANCH  25  27
DOCKED: ATOM     27  OE2 GLU C   1      11.365   3.526   4.163 +0.00 -0.00    -0.246 OA 
DOCKED: ATOM     28  H   GLU C   1      11.253   2.752   3.646 +0.00 +0.00    +0.000 HD 
DOCKED: ENDBRANCH  25  27
DOCKED: ENDBRANCH  24  25
DOCKED: ENDBRANCH  23  24
DOCKED: ENDBRANCH  19  23
DOCKED: ENDBRANCH  15  19
DOCKED: ENDBRANCH  14  17
DOCKED: BRANCH  14  29
DOCKED: ATOM     29  CB  VAL C   2       8.161   5.438  -1.530 +0.00 +0.00    +0.029 C  
DOCKED: ATOM     30  CG1 VAL C   2       8.093   6.563  -0.467 +0.00 +0.00    +0.002 C  
DOCKED: ATOM     31  CG2 VAL C   2       8.842   5.923  -2.825 +0.00 +0.00    +0.002 C  
DOCKED: ENDBRANCH  14  29
DOCKED: ENDBRANCH  10  14
DOCKED: ENDBRANCH   9  12
DOCKED: BRANCH   9  32
DOCKED: ATOM     32  CB  ASN C   3      13.122   4.329   0.111 +0.00 +0.00    +0.120 C  
DOCKED: BRANCH  32  33
DOCKED: ATOM     33  CG  ASN C   3      12.701   3.753   1.446 +0.00 +0.00    +0.263 C  
DOCKED: ATOM     34  ND2 ASN C   3      13.597   3.822   2.447 +0.00 -0.00    -0.088 N  
DOCKED: ATOM     35  OD1 ASN C   3      11.595   3.242   1.573 +0.00 -0.00    -0.272 OA 
DOCKED: ATOM     36  H   ASN C   3      14.474   4.243   2.295 +0.00 +0.00    +0.000 HD 
DOCKED: ATOM     37  H   ASN C   3      13.376   3.452   3.332 +0.00 +0.00    +0.000 HD 
DOCKED: ENDBRANCH  32  33
DOCKED: ENDBRANCH   9  32
DOCKED: ENDBRANCH   5   9
DOCKED: ENDBRANCH   4   7
DOCKED: BRANCH   4  38
DOCKED: ATOM     38  C4  1OL C   4      14.318  -0.143   0.383 +0.00 +0.00    +0.024 C  
DOCKED: BRANCH  38  41
DOCKED: ATOM     39  C1  1OL C   4      15.504   1.009   2.251 +0.00 +0.00    +0.000 C  
DOCKED: ATOM     40  C2  1OL C   4      15.222  -1.514   2.346 +0.00 +0.00    +0.000 C  
DOCKED: ATOM     41  C3  1OL C   4      14.586  -0.165   1.901 +0.00 +0.00    +0.002 C  
DOCKED: ENDBRANCH  38  41
DOCKED: ENDBRANCH   4  38
DOCKED: ENDBRANCH   1   4
DOCKED: BRANCH   1  42
DOCKED: ATOM     42  C7  1OL C   4      11.219  -1.989   0.740 +0.00 +0.00    +0.044 C  
DOCKED: BRANCH  42  43
DOCKED: ATOM     43  C8  1OL C   4       9.792  -1.716   0.253 +0.00 +0.00    +0.081 C  
DOCKED: ATOM     44  C9  1OL C   4       9.353  -2.788  -0.746 +0.00 +0.00    +0.010 C  
DOCKED: BRANCH  43  45
DOCKED: ATOM     45  C   1OL C   4       8.842  -1.713   1.459 +0.00 +0.00    +0.241 C  
DOCKED: ATOM     46  O   1OL C   4       8.358  -2.786   1.859 +0.00 -0.00    -0.273 OA 
DOCKED: ATOM     47  N   ALA C   5       8.626  -0.524   2.045 +0.00 -0.00    -0.198 N  
DOCKED: ATOM     48  H   ALA C   5       9.126   0.258   1.716 +0.00 +0.00    +0.000 HD 
DOCKED: BRANCH  47  49
DOCKED: ATOM     49  CA  ALA C   5       7.681  -0.334   3.148 +0.00 +0.00    +0.173 C  
DOCKED: ATOM     50  CB  ALA C   5       6.350  -0.977   2.840 +0.00 +0.00    +0.033 C  
DOCKED: BRANCH  49  51
DOCKED: ATOM     51  C   ALA C   5       8.379  -1.001   4.322 +0.00 +0.00    +0.262 C  
DOCKED: ATOM     52  O   ALA C   5       7.730  -1.493   5.291 +0.00 -0.00    -0.271 OA 
DOCKED: ATOM     53  N   GLU C   6       9.769  -0.891   4.300 +0.00 -0.00    -0.196 N  
DOCKED: ATOM     54  H   GLU C   6      10.147  -0.223   3.684 +0.00 +0.00    +0.000 HD 
DOCKED: BRANCH  53  55
DOCKED: ATOM     55  CA  GLU C   6      10.749  -1.681   5.117 +0.00 +0.00    +0.173 C  
DOCKED: BRANCH  55  56
DOCKED: ATOM     56  C   GLU C   6      10.922  -1.604   6.616 +0.00 +0.00    +0.262 C  
DOCKED: ATOM     57  O   GLU C   6      11.543  -2.335   7.374 +0.00 -0.00    -0.271 OA 
DOCKED: ATOM     58  N   PHE C   7      10.173  -0.445   6.797 +0.00 -0.00    -0.194 N  
DOCKED: ATOM     59  H   PHE C   7       9.854  -0.193   5.900 +0.00 +0.00    +0.000 HD 
DOCKED: BRANCH  58  60
DOCKED: ATOM     60  CA  PHE C   7       9.634   0.588   7.720 +0.00 +0.00    +0.202 C  
DOCKED: BRANCH  60  61
DOCKED: ATOM     61  C   PHE C   7       9.011   1.806   7.013 +0.00 +0.00    +0.385 C  
DOCKED: ATOM     62  O   PHE C   7       8.517   2.804   7.606 +0.00 -0.00    -0.244 OA 
DOCKED: BRANCH  61  63
DOCKED: ATOM     63  OXT PHE C   7       9.065   1.917   5.754 +0.00 -0.00    -0.244 OA 
DOCKED: ATOM     64  H   PHE C   7       9.775   2.380   5.355 +0.00 +0.00    +0.000 HD 
DOCKED: ENDBRANCH  61  63
DOCKED: ENDBRANCH  60  61
DOCKED: BRANCH  60  65
DOCKED: ATOM     65  CB  PHE C   7      10.659   0.962   8.750 +0.00 +0.00    +0.060 C  
DOCKED: BRANCH  65  66
DOCKED: ATOM     66  CG  PHE C   7      11.816   1.468   8.019 +0.00 -0.00    -0.020 A  
DOCKED: ATOM     67  CD1 PHE C   7      11.786   2.776   7.565 +0.00 -0.00    -0.004 A  
DOCKED: ATOM     68  CD2 PHE C   7      12.925   0.676   7.775 +0.00 -0.00    -0.004 A  
DOCKED: ATOM     69  CE1 PHE C   7      12.862   3.304   6.861 +0.00 -0.00    -0.000 A  
DOCKED: ATOM     70  CE2 PHE C   7      14.016   1.192   7.101 +0.00 -0.00    -0.000 A  
DOCKED: ATOM     71  CZ  PHE C   7      13.976   2.503   6.646 +0.00 -0.00    -0.000 A  
DOCKED: ENDBRANCH  65  66
DOCKED: ENDBRANCH  60  65
DOCKED: ENDBRANCH  58  60
DOCKED: ENDBRANCH  55  56
DOCKED: BRANCH  55  72
DOCKED: ATOM     72  CB  GLU C   6      12.087  -1.781   4.373 +0.00 +0.00    +0.043 C  
DOCKED: BRANCH  72  73
DOCKED: ATOM     73  CG  GLU C   6      12.914  -0.508   4.600 +0.00 +0.00    +0.116 C  
DOCKED: BRANCH  73  74
DOCKED: ATOM     74  CD  GLU C   6      12.178   0.798   4.275 +0.00 +0.00    +0.365 C  
DOCKED: ATOM     75  OE1 GLU C   6      11.264   1.168   5.039 +0.00 -0.00    -0.246 OA 
DOCKED: BRANCH  74  76
DOCKED: ATOM     76  OE2 GLU C   6      12.533   1.449   3.260 +0.00 -0.00    -0.246 OA 
DOCKED: ATOM     77  H   GLU C   6      11.898   1.927   2.764 +0.00 +0.00    +0.000 HD 
DOCKED: ENDBRANCH  74  76
DOCKED: ENDBRANCH  73  74
DOCKED: ENDBRANCH  72  73
DOCKED: ENDBRANCH  55  72
DOCKED: ENDBRANCH  53  55
DOCKED: ENDBRANCH  49  51
DOCKED: ENDBRANCH  47  49
DOCKED: ENDBRANCH  43  45
DOCKED: ENDBRANCH  42  43
DOCKED: ENDBRANCH   1  42
DOCKED: TORSDOF 34
DOCKED: TER
DOCKED: ENDMDL
________________________________________________________________________________


    FINAL DOCKED STATE:
    ________________________


Run:   9 / 20
Time taken for this run:   5.932s

DOCKED: MODEL        9
DOCKED: USER    Run = 9
DOCKED: USER
DOCKED: USER    Estimated Free Energy of Binding    = +10.14 kcal/mol  [=(1)+(2)+(3)-(4)]
DOCKED: USER
DOCKED: USER    (1) Final Intermolecular Energy     =  +0.00 kcal/mol
DOCKED: USER        vdW + Hbond + desolv Energy     =  +0.00 kcal/mol
DOCKED: USER        Electrostatic Energy            =  +0.00 kcal/mol
DOCKED: USER        Moving Ligand-Fixed Receptor    =  +0.00 kcal/mol
DOCKED: USER        Moving Ligand-Moving Receptor   =  +0.00 kcal/mol
DOCKED: USER    (2) Final Total Internal Energy     = -33.61 kcal/mol
DOCKED: USER    (3) Torsional Free Energy           = +10.14 kcal/mol
DOCKED: USER    (4) Unbound System's Energy         = -33.61 kcal/mol
DOCKED: USER
DOCKED: USER
DOCKED: REMARK  Name = ligand_ref.pdb
DOCKED: REMARK  40 active torsions:
DOCKED: REMARK  status: ('A' for Active; 'I' for Inactive)
DOCKED: REMARK    1  A    between atoms: N_1  and  CA_2
DOCKED: REMARK    2  A    between atoms: CA_2  and  C_3
DOCKED: REMARK    3  A    between atoms: CA_2  and  CB_5
DOCKED: REMARK    4  A    between atoms: CB_5  and  CG_6
DOCKED: REMARK    5  A    between atoms: CG_6  and  CD_7
DOCKED: REMARK    6  A    between atoms: CD_7  and  OE2_9
DOCKED: REMARK    7  A    between atoms: N_10  and  CA_11
DOCKED: REMARK    8  A    between atoms: CA_11  and  C_12
DOCKED: REMARK    9  A    between atoms: CA_11  and  CB_14
DOCKED: REMARK   10  A    between atoms: CB_14  and  CG1_15
DOCKED: REMARK   11  A    between atoms: CB_14  and  CG2_16
DOCKED: REMARK   12  A    between atoms: N_17  and  CA_18
DOCKED: REMARK   13  A    between atoms: CA_18  and  C_19
DOCKED: REMARK   14  A    between atoms: CA_18  and  CB_21
DOCKED: REMARK   15  A    between atoms: CB_21  and  CG_22
DOCKED: REMARK   16  A    between atoms: N_25  and  CA_26
DOCKED: REMARK   17  A    between atoms: CA_26  and  C4_33
DOCKED: REMARK   18  A    between atoms: CA_26  and  C6_34
DOCKED: REMARK   19  A    between atoms: C_27  and  C8_36
DOCKED: REMARK   20  A    between atoms: C1_29  and  C3_32
DOCKED: REMARK   21  A    between atoms: O1_30  and  C6_34
DOCKED: REMARK   22  A    between atoms: C2_31  and  C3_32
DOCKED: REMARK   23  A    between atoms: C3_32  and  C4_33
DOCKED: REMARK   24  A    between atoms: C6_34  and  C7_35
DOCKED: REMARK   25  A    between atoms: C7_35  and  C8_36
DOCKED: REMARK   26  A    between atoms: C8_36  and  C9_37
DOCKED: REMARK   27  A    between atoms: N_38  and  CA_39
DOCKED: REMARK   28  A    between atoms: CA_39  and  C_40
DOCKED: REMARK   29  A    between atoms: CA_39  and  CB_42
DOCKED: REMARK   30  A    between atoms: N_43  and  CA_44
DOCKED: REMARK   31  A    between atoms: CA_44  and  C_45
DOCKED: REMARK   32  A    between atoms: CA_44  and  CB_47
DOCKED: REMARK   33  A    between atoms: CB_47  and  CG_48
DOCKED: REMARK   34  A    between atoms: CG_48  and  CD_49
DOCKED: REMARK   35  A    between atoms: CD_49  and  OE2_51
DOCKED: REMARK   36  A    between atoms: N_52  and  CA_53
DOCKED: REMARK   37  A    between atoms: CA_53  and  C_54
DOCKED: REMARK   38  A    between atoms: CA_53  and  CB_56
DOCKED: REMARK   39  A    between atoms: C_54  and  OXT_63
DOCKED: REMARK   40  A    between atoms: CB_56  and  CG_57
DOCKED: REMARK                            x       y       z     vdW  Elec       q    Type
DOCKED: REMARK                         _______ _______ _______ _____ _____    ______ ____
DOCKED: USER                              x       y       z     vdW  Elec       q    Type
DOCKED: USER                           _______ _______ _______ _____ _____    ______ ____
DOCKED: ROOT
DOCKED: ATOM      1  C6  1OL C   4      12.798  -3.026   3.113 +0.00 +0.00    +0.172 C  
DOCKED: ENDROOT
DOCKED: BRANCH   1   2
DOCKED: ATOM      2  O1  1OL C   4      12.551  -2.037   4.129 +0.00 -0.00    -0.221 OA 
DOCKED: ATOM      3  H   1OL C   4      12.234  -1.220   3.714 +0.00 +0.00    +0.000 HD 
DOCKED: ENDBRANCH   1   2
DOCKED: BRANCH   1   4
DOCKED: ATOM      4  CA  1OL C   4      14.232  -2.888   2.561 +0.00 +0.00    +0.126 C  
DOCKED: BRANCH   4   7
DOCKED: ATOM      5  C   ASN C   3      16.390  -1.959   3.207 +0.00 +0.00    +0.262 C  
DOCKED: ATOM      6  O   ASN C   3      16.974  -2.467   2.241 +0.00 -0.00    -0.271 OA 
DOCKED: ATOM      7  N   1OL C   4      15.086  -2.078   3.415 +0.00 -0.00    -0.203 N  
DOCKED: ATOM      8  H   1OL C   4      14.682  -1.601   4.176 +0.00 +0.00    +0.000 HD 
DOCKED: BRANCH   5   9
DOCKED: ATOM      9  CA  ASN C   3      17.136  -1.119   4.226 +0.00 +0.00    +0.182 C  
DOCKED: BRANCH   9  12
DOCKED: ATOM     10  C   VAL C   2      16.688   1.050   5.233 +0.00 +0.00    +0.262 C  
DOCKED: ATOM     11  O   VAL C   2      17.540   0.893   6.123 +0.00 -0.00    -0.271 OA 
DOCKED: ATOM     12  N   ASN C   3      16.398   0.122   4.331 +0.00 -0.00    -0.196 N  
DOCKED: ATOM     13  H   ASN C   3      15.653   0.283   3.708 +0.00 +0.00    +0.000 HD 
DOCKED: BRANCH  10  14
DOCKED: ATOM     14  CA  VAL C   2      15.849   2.299   5.158 +0.00 +0.00    +0.173 C  
DOCKED: BRANCH  14  17
DOCKED: ATOM     15  C   GLU C   1      13.904   1.452   6.305 +0.00 +0.00    +0.259 C  
DOCKED: ATOM     16  O   GLU C   1      14.553   1.295   7.332 +0.00 -0.00    -0.272 OA 
DOCKED: ATOM     17  N   VAL C   2      14.458   1.883   5.183 +0.00 -0.00    -0.197 N  
DOCKED: ATOM     18  H   VAL C   2      13.923   1.922   4.357 +0.00 +0.00    +0.000 HD 
DOCKED: BRANCH  15  19
DOCKED: ATOM     19  CA  GLU C   1      12.405   1.111   6.268 +0.00 +0.00    +0.170 C  
DOCKED: BRANCH  19  20
DOCKED: ATOM     20  N   GLU C   1      12.154  -0.076   5.390 +0.00 -0.00    -0.123 NA 
DOCKED: ATOM     21  H   GLU C   1      13.002  -0.640   5.329 +0.00 +0.00    +0.000 HD 
DOCKED: ATOM     22  H   GLU C   1      11.889   0.241   4.458 +0.00 +0.00    +0.000 HD 
DOCKED: ENDBRANCH  19  20
DOCKED: BRANCH  19  23
DOCKED: ATOM     23  CB  GLU C   1      11.941   0.827   7.702 +0.00 +0.00    +0.040 C  
DOCKED: BRANCH  23  24
DOCKED: ATOM     24  CG  GLU C   1      11.464  -0.619   7.917 +0.00 +0.00    +0.116 C  
DOCKED: BRANCH  24  25
DOCKED: ATOM     25  CD  GLU C   1      12.591  -1.638   7.905 +0.00 +0.00    +0.365 C  
DOCKED: ATOM     26  OE1 GLU C   1      13.208  -1.849   8.979 +0.00 -0.00    -0.246 OA 
DOCKED: BRANCH  25  27
DOCKED: ATOM     27  OE2 GLU C   1      12.876  -2.218   6.833 +0.00 -0.00    -0.246 OA 
DOCKED: ATOM     28  H   GLU C   1      13.274  -1.740   6.133 +0.00 +0.00    +0.000 HD 
DOCKED: ENDBRANCH  25  27
DOCKED: ENDBRANCH  24  25
DOCKED: ENDBRANCH  23  24
DOCKED: ENDBRANCH  19  23
DOCKED: ENDBRANCH  15  19
DOCKED: ENDBRANCH  14  17
DOCKED: BRANCH  14  29
DOCKED: ATOM     29  CB  VAL C   2      16.250   3.255   6.328 +0.00 +0.00    +0.029 C  
DOCKED: ATOM     30  CG1 VAL C   2      17.666   3.830   6.070 +0.00 +0.00    +0.002 C  
DOCKED: ATOM     31  CG2 VAL C   2      15.208   4.376   6.508 +0.00 +0.00    +0.002 C  
DOCKED: ENDBRANCH  14  29
DOCKED: ENDBRANCH  10  14
DOCKED: ENDBRANCH   9  12
DOCKED: BRANCH   9  32
DOCKED: ATOM     32  CB  ASN C   3      17.182  -1.826   5.581 +0.00 +0.00    +0.120 C  
DOCKED: BRANCH  32  33
DOCKED: ATOM     33  CG  ASN C   3      15.810  -1.938   6.210 +0.00 +0.00    +0.263 C  
DOCKED: ATOM     34  ND2 ASN C   3      15.460  -0.975   7.082 +0.00 -0.00    -0.088 N  
DOCKED: ATOM     35  OD1 ASN C   3      15.080  -2.881   5.928 +0.00 -0.00    -0.272 OA 
DOCKED: ATOM     36  H   ASN C   3      16.082  -0.237   7.276 +0.00 +0.00    +0.000 HD 
DOCKED: ATOM     37  H   ASN C   3      14.582  -1.009   7.527 +0.00 +0.00    +0.000 HD 
DOCKED: ENDBRANCH  32  33
DOCKED: ENDBRANCH   9  32
DOCKED: ENDBRANCH   5   9
DOCKED: ENDBRANCH   4   7
DOCKED: BRANCH   4  38
DOCKED: ATOM     38  C4  1OL C   4      14.900  -4.265   2.386 +0.00 +0.00    +0.024 C  
DOCKED: BRANCH  38  41
DOCKED: ATOM     39  C1  1OL C   4      16.226  -5.481   4.113 +0.00 +0.00    +0.000 C  
DOCKED: ATOM     40  C2  1OL C   4      13.927  -6.361   3.486 +0.00 +0.00    +0.000 C  
DOCKED: ATOM     41  C3  1OL C   4      14.809  -5.094   3.682 +0.00 +0.00    +0.002 C  
DOCKED: ENDBRANCH  38  41
DOCKED: ENDBRANCH   4  38
DOCKED: ENDBRANCH   1   4
DOCKED: BRANCH   1  42
DOCKED: ATOM     42  C7  1OL C   4      11.748  -2.898   1.994 +0.00 +0.00    +0.044 C  
DOCKED: BRANCH  42  43
DOCKED: ATOM     43  C8  1OL C   4      10.297  -2.770   2.467 +0.00 +0.00    +0.081 C  
DOCKED: ATOM     44  C9  1OL C   4      10.052  -3.654   3.691 +0.00 +0.00    +0.010 C  
DOCKED: BRANCH  43  45
DOCKED: ATOM     45  C   1OL C   4      10.012  -1.304   2.821 +0.00 +0.00    +0.241 C  
DOCKED: ATOM     46  O   1OL C   4      10.915  -0.458   2.693 +0.00 -0.00    -0.273 OA 
DOCKED: ATOM     47  N   ALA C   5       8.761  -1.017   3.215 +0.00 -0.00    -0.198 N  
DOCKED: ATOM     48  H   ALA C   5       8.088  -1.736   3.197 +0.00 +0.00    +0.000 HD 
DOCKED: BRANCH  47  49
DOCKED: ATOM     49  CA  ALA C   5       8.349   0.313   3.671 +0.00 +0.00    +0.173 C  
DOCKED: ATOM     50  CB  ALA C   5       9.215   0.788   4.813 +0.00 +0.00    +0.033 C  
DOCKED: BRANCH  49  51
DOCKED: ATOM     51  C   ALA C   5       8.520   1.174   2.430 +0.00 +0.00    +0.262 C  
DOCKED: ATOM     52  O   ALA C   5       7.592   1.309   1.580 +0.00 -0.00    -0.271 OA 
DOCKED: ATOM     53  N   GLU C   6       9.811   1.667   2.247 +0.00 -0.00    -0.196 N  
DOCKED: ATOM     54  H   GLU C   6      10.522   1.245   2.782 +0.00 +0.00    +0.000 HD 
DOCKED: BRANCH  53  55
DOCKED: ATOM     55  CA  GLU C   6      10.233   2.771   1.322 +0.00 +0.00    +0.173 C  
DOCKED: BRANCH  55  56
DOCKED: ATOM     56  C   GLU C   6      11.391   2.724   0.354 +0.00 +0.00    +0.262 C  
DOCKED: ATOM     57  O   GLU C   6      11.635   3.429  -0.615 +0.00 -0.00    -0.271 OA 
DOCKED: ATOM     58  N   PHE C   7      12.052   1.657   0.956 +0.00 -0.00    -0.194 N  
DOCKED: ATOM     59  H   PHE C   7      11.489   1.394   1.720 +0.00 +0.00    +0.000 HD 
DOCKED: BRANCH  58  60
DOCKED: ATOM     60  CA  PHE C   7      13.215   0.732   0.978 +0.00 +0.00    +0.202 C  
DOCKED: BRANCH  60  61
DOCKED: ATOM     61  C   PHE C   7      14.046   0.790   2.273 +0.00 +0.00    +0.385 C  
DOCKED: ATOM     62  O   PHE C   7      15.028   1.560   2.460 +0.00 -0.00    -0.244 OA 
DOCKED: BRANCH  61  63
DOCKED: ATOM     63  OXT PHE C   7      13.703   0.120   3.290 +0.00 -0.00    -0.244 OA 
DOCKED: ATOM     64  H   PHE C   7      12.795   0.009   3.493 +0.00 +0.00    +0.000 HD 
DOCKED: ENDBRANCH  61  63
DOCKED: ENDBRANCH  60  61
DOCKED: BRANCH  60  65
DOCKED: ATOM     65  CB  PHE C   7      14.042   0.895  -0.263 +0.00 +0.00    +0.060 C  
DOCKED: BRANCH  65  66
DOCKED: ATOM     66  CG  PHE C   7      14.788  -0.348  -0.432 +0.00 -0.00    -0.020 A  
DOCKED: ATOM     67  CD1 PHE C   7      14.076  -1.518  -0.635 +0.00 -0.00    -0.004 A  
DOCKED: ATOM     68  CD2 PHE C   7      16.171  -0.377  -0.392 +0.00 -0.00    -0.004 A  
DOCKED: ATOM     69  CE1 PHE C   7      14.740  -2.729  -0.798 +0.00 -0.00    -0.000 A  
DOCKED: ATOM     70  CE2 PHE C   7      16.849  -1.566  -0.580 +0.00 -0.00    -0.000 A  
DOCKED: ATOM     71  CZ  PHE C   7      16.128  -2.736  -0.780 +0.00 -0.00    -0.000 A  
DOCKED: ENDBRANCH  65  66
DOCKED: ENDBRANCH  60  65
DOCKED: ENDBRANCH  58  60
DOCKED: ENDBRANCH  55  56
DOCKED: BRANCH  55  72
DOCKED: ATOM     72  CB  GLU C   6      10.114   4.124   2.037 +0.00 +0.00    +0.043 C  
DOCKED: BRANCH  72  73
DOCKED: ATOM     73  CG  GLU C   6      10.767   4.047   3.423 +0.00 +0.00    +0.116 C  
DOCKED: BRANCH  73  74
DOCKED: ATOM     74  CD  GLU C   6      11.991   3.125   3.503 +0.00 +0.00    +0.365 C  
DOCKED: ATOM     75  OE1 GLU C   6      13.115   3.614   3.268 +0.00 -0.00    -0.246 OA 
DOCKED: BRANCH  74  76
DOCKED: ATOM     76  OE2 GLU C   6      11.815   1.920   3.814 +0.00 -0.00    -0.246 OA 
DOCKED: ATOM     77  H   GLU C   6      12.172   1.241   3.277 +0.00 +0.00    +0.000 HD 
DOCKED: ENDBRANCH  74  76
DOCKED: ENDBRANCH  73  74
DOCKED: ENDBRANCH  72  73
DOCKED: ENDBRANCH  55  72
DOCKED: ENDBRANCH  53  55
DOCKED: ENDBRANCH  49  51
DOCKED: ENDBRANCH  47  49
DOCKED: ENDBRANCH  43  45
DOCKED: ENDBRANCH  42  43
DOCKED: ENDBRANCH   1  42
DOCKED: TORSDOF 34
DOCKED: TER
DOCKED: ENDMDL
________________________________________________________________________________


    FINAL DOCKED STATE:
    ________________________


Run:   10 / 20
Time taken for this run:   5.932s

DOCKED: MODEL        10
DOCKED: USER    Run = 10
DOCKED: USER
DOCKED: USER    Estimated Free Energy of Binding    = +10.14 kcal/mol  [=(1)+(2)+(3)-(4)]
DOCKED: USER
DOCKED: USER    (1) Final Intermolecular Energy     =  +0.00 kcal/mol
DOCKED: USER        vdW + Hbond + desolv Energy     =  +0.00 kcal/mol
DOCKED: USER        Electrostatic Energy            =  +0.00 kcal/mol
DOCKED: USER        Moving Ligand-Fixed Receptor    =  +0.00 kcal/mol
DOCKED: USER        Moving Ligand-Moving Receptor   =  +0.00 kcal/mol
DOCKED: USER    (2) Final Total Internal Energy     = -32.35 kcal/mol
DOCKED: USER    (3) Torsional Free Energy           = +10.14 kcal/mol
DOCKED: USER    (4) Unbound System's Energy         = -32.35 kcal/mol
DOCKED: USER
DOCKED: USER
DOCKED: REMARK  Name = ligand_ref.pdb
DOCKED: REMARK  40 active torsions:
DOCKED: REMARK  status: ('A' for Active; 'I' for Inactive)
DOCKED: REMARK    1  A    between atoms: N_1  and  CA_2
DOCKED: REMARK    2  A    between atoms: CA_2  and  C_3
DOCKED: REMARK    3  A    between atoms: CA_2  and  CB_5
DOCKED: REMARK    4  A    between atoms: CB_5  and  CG_6
DOCKED: REMARK    5  A    between atoms: CG_6  and  CD_7
DOCKED: REMARK    6  A    between atoms: CD_7  and  OE2_9
DOCKED: REMARK    7  A    between atoms: N_10  and  CA_11
DOCKED: REMARK    8  A    between atoms: CA_11  and  C_12
DOCKED: REMARK    9  A    between atoms: CA_11  and  CB_14
DOCKED: REMARK   10  A    between atoms: CB_14  and  CG1_15
DOCKED: REMARK   11  A    between atoms: CB_14  and  CG2_16
DOCKED: REMARK   12  A    between atoms: N_17  and  CA_18
DOCKED: REMARK   13  A    between atoms: CA_18  and  C_19
DOCKED: REMARK   14  A    between atoms: CA_18  and  CB_21
DOCKED: REMARK   15  A    between atoms: CB_21  and  CG_22
DOCKED: REMARK   16  A    between atoms: N_25  and  CA_26
DOCKED: REMARK   17  A    between atoms: CA_26  and  C4_33
DOCKED: REMARK   18  A    between atoms: CA_26  and  C6_34
DOCKED: REMARK   19  A    between atoms: C_27  and  C8_36
DOCKED: REMARK   20  A    between atoms: C1_29  and  C3_32
DOCKED: REMARK   21  A    between atoms: O1_30  and  C6_34
DOCKED: REMARK   22  A    between atoms: C2_31  and  C3_32
DOCKED: REMARK   23  A    between atoms: C3_32  and  C4_33
DOCKED: REMARK   24  A    between atoms: C6_34  and  C7_35
DOCKED: REMARK   25  A    between atoms: C7_35  and  C8_36
DOCKED: REMARK   26  A    between atoms: C8_36  and  C9_37
DOCKED: REMARK   27  A    between atoms: N_38  and  CA_39
DOCKED: REMARK   28  A    between atoms: CA_39  and  C_40
DOCKED: REMARK   29  A    between atoms: CA_39  and  CB_42
DOCKED: REMARK   30  A    between atoms: N_43  and  CA_44
DOCKED: REMARK   31  A    between atoms: CA_44  and  C_45
DOCKED: REMARK   32  A    between atoms: CA_44  and  CB_47
DOCKED: REMARK   33  A    between atoms: CB_47  and  CG_48
DOCKED: REMARK   34  A    between atoms: CG_48  and  CD_49
DOCKED: REMARK   35  A    between atoms: CD_49  and  OE2_51
DOCKED: REMARK   36  A    between atoms: N_52  and  CA_53
DOCKED: REMARK   37  A    between atoms: CA_53  and  C_54
DOCKED: REMARK   38  A    between atoms: CA_53  and  CB_56
DOCKED: REMARK   39  A    between atoms: C_54  and  OXT_63
DOCKED: REMARK   40  A    between atoms: CB_56  and  CG_57
DOCKED: REMARK                            x       y       z     vdW  Elec       q    Type
DOCKED: REMARK                         _______ _______ _______ _____ _____    ______ ____
DOCKED: USER                              x       y       z     vdW  Elec       q    Type
DOCKED: USER                           _______ _______ _______ _____ _____    ______ ____
DOCKED: ROOT
DOCKED: ATOM      1  C6  1OL C   4      10.413  -6.349  -1.399 +0.00 +0.00    +0.172 C  
DOCKED: ENDROOT
DOCKED: BRANCH   1   2
DOCKED: ATOM      2  O1  1OL C   4      11.430  -6.508  -0.393 +0.00 -0.00    -0.221 OA 
DOCKED: ATOM      3  H   1OL C   4      11.012  -6.671   0.467 +0.00 +0.00    +0.000 HD 
DOCKED: ENDBRANCH   1   2
DOCKED: BRANCH   1   4
DOCKED: ATOM      4  CA  1OL C   4       9.373  -5.300  -0.954 +0.00 +0.00    +0.126 C  
DOCKED: BRANCH   4   7
DOCKED: ATOM      5  C   ASN C   3      10.725  -3.344  -0.420 +0.00 +0.00    +0.262 C  
DOCKED: ATOM      6  O   ASN C   3      11.020  -3.140  -1.606 +0.00 -0.00    -0.271 OA 
DOCKED: ATOM      7  N   1OL C   4       9.922  -4.323  -0.027 +0.00 -0.00    -0.203 N  
DOCKED: ATOM      8  H   1OL C   4       9.690  -4.392   0.927 +0.00 +0.00    +0.000 HD 
DOCKED: BRANCH   5   9
DOCKED: ATOM      9  CA  ASN C   3      11.249  -2.450   0.687 +0.00 +0.00    +0.182 C  
DOCKED: BRANCH   9  12
DOCKED: ATOM     10  C   VAL C   2       9.362  -2.072   2.177 +0.00 +0.00    +0.262 C  
DOCKED: ATOM     11  O   VAL C   2       8.996  -1.051   1.571 +0.00 -0.00    -0.271 OA 
DOCKED: ATOM     12  N   ASN C   3      10.450  -2.759   1.855 +0.00 -0.00    -0.196 N  
DOCKED: ATOM     13  H   ASN C   3      10.725  -3.508   2.431 +0.00 +0.00    +0.000 HD 
DOCKED: BRANCH  10  14
DOCKED: ATOM     14  CA  VAL C   2       8.628  -2.571   3.395 +0.00 +0.00    +0.173 C  
DOCKED: BRANCH  14  17
DOCKED: ATOM     15  C   GLU C   1       8.282  -4.780   2.493 +0.00 +0.00    +0.259 C  
DOCKED: ATOM     16  O   GLU C   1       7.566  -4.328   1.608 +0.00 -0.00    -0.272 OA 
DOCKED: ATOM     17  N   VAL C   2       8.799  -4.011   3.438 +0.00 -0.00    -0.197 N  
DOCKED: ATOM     18  H   VAL C   2       9.304  -4.420   4.178 +0.00 +0.00    +0.000 HD 
DOCKED: BRANCH  15  19
DOCKED: ATOM     19  CA  GLU C   1       8.579  -6.287   2.565 +0.00 +0.00    +0.170 C  
DOCKED: BRANCH  19  20
DOCKED: ATOM     20  N   GLU C   1       9.594  -6.675   1.534 +0.00 -0.00    -0.123 NA 
DOCKED: ATOM     21  H   GLU C   1      10.294  -7.285   1.958 +0.00 +0.00    +0.000 HD 
DOCKED: ATOM     22  H   GLU C   1      10.049  -5.837   1.172 +0.00 +0.00    +0.000 HD 
DOCKED: ENDBRANCH  19  20
DOCKED: BRANCH  19  23
DOCKED: ATOM     23  CB  GLU C   1       9.092  -6.610   3.973 +0.00 +0.00    +0.040 C  
DOCKED: BRANCH  23  24
DOCKED: ATOM     24  CG  GLU C   1      10.626  -6.642   4.074 +0.00 +0.00    +0.116 C  
DOCKED: BRANCH  24  25
DOCKED: ATOM     25  CD  GLU C   1      11.304  -5.465   3.395 +0.00 +0.00    +0.365 C  
DOCKED: ATOM     26  OE1 GLU C   1      11.477  -4.415   4.065 +0.00 -0.00    -0.246 OA 
DOCKED: BRANCH  25  27
DOCKED: ATOM     27  OE2 GLU C   1      11.652  -5.571   2.197 +0.00 -0.00    -0.246 OA 
DOCKED: ATOM     28  H   GLU C   1      11.693  -6.416   1.794 +0.00 +0.00    +0.000 HD 
DOCKED: ENDBRANCH  25  27
DOCKED: ENDBRANCH  24  25
DOCKED: ENDBRANCH  23  24
DOCKED: ENDBRANCH  19  23
DOCKED: ENDBRANCH  15  19
DOCKED: ENDBRANCH  14  17
DOCKED: BRANCH  14  29
DOCKED: ATOM     29  CB  VAL C   2       9.169  -1.825   4.657 +0.00 +0.00    +0.029 C  
DOCKED: ATOM     30  CG1 VAL C   2       9.108  -2.766   5.886 +0.00 +0.00    +0.002 C  
DOCKED: ATOM     31  CG2 VAL C   2      10.598  -1.299   4.417 +0.00 +0.00    +0.002 C  
DOCKED: ENDBRANCH  14  29
DOCKED: ENDBRANCH  10  14
DOCKED: ENDBRANCH   9  12
DOCKED: BRANCH   9  32
DOCKED: ATOM     32  CB  ASN C   3      12.725  -2.736   0.963 +0.00 +0.00    +0.120 C  
DOCKED: BRANCH  32  33
DOCKED: ATOM     33  CG  ASN C   3      13.332  -3.648  -0.082 +0.00 +0.00    +0.263 C  
DOCKED: ATOM     34  ND2 ASN C   3      13.183  -4.972   0.106 +0.00 -0.00    -0.088 N  
DOCKED: ATOM     35  OD1 ASN C   3      13.937  -3.172  -1.035 +0.00 -0.00    -0.272 OA 
DOCKED: ATOM     36  H   ASN C   3      12.688  -5.306   0.889 +0.00 +0.00    +0.000 HD 
DOCKED: ATOM     37  H   ASN C   3      13.569  -5.607  -0.539 +0.00 +0.00    +0.000 HD 
DOCKED: ENDBRANCH  32  33
DOCKED: ENDBRANCH   9  32
DOCKED: ENDBRANCH   5   9
DOCKED: ENDBRANCH   4   7
DOCKED: BRANCH   4  38
DOCKED: ATOM     38  C4  1OL C   4       8.793  -4.539  -2.162 +0.00 +0.00    +0.024 C  
DOCKED: BRANCH  38  41
DOCKED: ATOM     39  C1  1OL C   4       7.248  -2.859  -1.157 +0.00 +0.00    +0.000 C  
DOCKED: ATOM     40  C2  1OL C   4       6.566  -5.306  -1.161 +0.00 +0.00    +0.000 C  
DOCKED: ATOM     41  C3  1OL C   4       7.313  -4.178  -1.931 +0.00 +0.00    +0.002 C  
DOCKED: ENDBRANCH  38  41
DOCKED: ENDBRANCH   4  38
DOCKED: ENDBRANCH   1   4
DOCKED: BRANCH   1  42
DOCKED: ATOM     42  C7  1OL C   4       9.753  -7.708  -1.693 +0.00 +0.00    +0.044 C  
DOCKED: BRANCH  42  43
DOCKED: ATOM     43  C8  1OL C   4      10.083  -8.316  -3.060 +0.00 +0.00    +0.081 C  
DOCKED: ATOM     44  C9  1OL C   4       9.803  -7.310  -4.177 +0.00 +0.00    +0.010 C  
DOCKED: BRANCH  43  45
DOCKED: ATOM     45  C   1OL C   4      11.564  -8.719  -3.085 +0.00 +0.00    +0.241 C  
DOCKED: ATOM     46  O   1OL C   4      12.130  -8.898  -4.178 +0.00 -0.00    -0.273 OA 
DOCKED: ATOM     47  N   ALA C   5      12.178  -8.811  -1.895 +0.00 -0.00    -0.198 N  
DOCKED: ATOM     48  H   ALA C   5      11.674  -8.559  -1.087 +0.00 +0.00    +0.000 HD 
DOCKED: BRANCH  47  49
DOCKED: ATOM     49  CA  ALA C   5      13.562  -9.267  -1.739 +0.00 +0.00    +0.173 C  
DOCKED: ATOM     50  CB  ALA C   5      14.529  -8.112  -1.834 +0.00 +0.00    +0.033 C  
DOCKED: BRANCH  49  51
DOCKED: ATOM     51  C   ALA C   5      13.565  -9.901  -0.358 +0.00 +0.00    +0.262 C  
DOCKED: ATOM     52  O   ALA C   5      12.657 -10.704   0.009 +0.00 -0.00    -0.271 OA 
DOCKED: ATOM     53  N   GLU C   6      14.554  -9.413   0.495 +0.00 -0.00    -0.196 N  
DOCKED: ATOM     54  H   GLU C   6      14.994  -8.576   0.224 +0.00 +0.00    +0.000 HD 
DOCKED: BRANCH  53  55
DOCKED: ATOM     55  CA  GLU C   6      15.018 -10.028   1.783 +0.00 +0.00    +0.173 C  
DOCKED: BRANCH  55  56
DOCKED: ATOM     56  C   GLU C   6      14.223 -10.972   2.654 +0.00 +0.00    +0.262 C  
DOCKED: ATOM     57  O   GLU C   6      14.583 -11.964   3.271 +0.00 -0.00    -0.271 OA 
DOCKED: ATOM     58  N   PHE C   7      13.004 -10.313   2.520 +0.00 -0.00    -0.194 N  
DOCKED: ATOM     59  H   PHE C   7      13.179  -9.550   1.923 +0.00 +0.00    +0.000 HD 
DOCKED: BRANCH  58  60
DOCKED: ATOM     60  CA  PHE C   7      11.559 -10.231   2.862 +0.00 +0.00    +0.202 C  
DOCKED: BRANCH  60  61
DOCKED: ATOM     61  C   PHE C   7      10.732  -9.350   1.910 +0.00 +0.00    +0.385 C  
DOCKED: ATOM     62  O   PHE C   7       9.472  -9.270   1.919 +0.00 -0.00    -0.244 OA 
DOCKED: BRANCH  61  63
DOCKED: ATOM     63  OXT PHE C   7      11.303  -8.550   1.113 +0.00 -0.00    -0.244 OA 
DOCKED: ATOM     64  H   PHE C   7      11.548  -7.694   1.404 +0.00 +0.00    +0.000 HD 
DOCKED: ENDBRANCH  61  63
DOCKED: ENDBRANCH  60  61
DOCKED: BRANCH  60  65
DOCKED: ATOM     65  CB  PHE C   7      11.380  -9.871   4.308 +0.00 +0.00    +0.060 C  
DOCKED: BRANCH  65  66
DOCKED: ATOM     66  CG  PHE C   7      12.257 -10.756   5.068 +0.00 -0.00    -0.020 A  
DOCKED: ATOM     67  CD1 PHE C   7      11.976 -12.112   5.074 +0.00 -0.00    -0.004 A  
DOCKED: ATOM     68  CD2 PHE C   7      13.346 -10.271   5.772 +0.00 -0.00    -0.004 A  
DOCKED: ATOM     69  CE1 PHE C   7      12.780 -12.996   5.786 +0.00 -0.00    -0.000 A  
DOCKED: ATOM     70  CE2 PHE C   7      14.172 -11.137   6.462 +0.00 -0.00    -0.000 A  
DOCKED: ATOM     71  CZ  PHE C   7      13.882 -12.495   6.466 +0.00 -0.00    -0.000 A  
DOCKED: ENDBRANCH  65  66
DOCKED: ENDBRANCH  60  65
DOCKED: ENDBRANCH  58  60
DOCKED: ENDBRANCH  55  56
DOCKED: BRANCH  55  72
DOCKED: ATOM     72  CB  GLU C   6      15.808  -8.996   2.599 +0.00 +0.00    +0.043 C  
DOCKED: BRANCH  72  73
DOCKED: ATOM     73  CG  GLU C   6      15.297  -7.581   2.296 +0.00 +0.00    +0.116 C  
DOCKED: BRANCH  73  74
DOCKED: ATOM     74  CD  GLU C   6      13.786  -7.488   2.049 +0.00 +0.00    +0.365 C  
DOCKED: ATOM     75  OE1 GLU C   6      13.017  -7.644   3.020 +0.00 -0.00    -0.246 OA 
DOCKED: BRANCH  74  76
DOCKED: ATOM     76  OE2 GLU C   6      13.383  -7.245   0.883 +0.00 -0.00    -0.246 OA 
DOCKED: ATOM     77  H   GLU C   6      12.522  -6.902   0.748 +0.00 +0.00    +0.000 HD 
DOCKED: ENDBRANCH  74  76
DOCKED: ENDBRANCH  73  74
DOCKED: ENDBRANCH  72  73
DOCKED: ENDBRANCH  55  72
DOCKED: ENDBRANCH  53  55
DOCKED: ENDBRANCH  49  51
DOCKED: ENDBRANCH  47  49
DOCKED: ENDBRANCH  43  45
DOCKED: ENDBRANCH  42  43
DOCKED: ENDBRANCH   1  42
DOCKED: TORSDOF 34
DOCKED: TER
DOCKED: ENDMDL
________________________________________________________________________________


    FINAL DOCKED STATE:
    ________________________


Run:   11 / 20
Time taken for this run:   5.932s

DOCKED: MODEL        11
DOCKED: USER    Run = 11
DOCKED: USER
DOCKED: USER    Estimated Free Energy of Binding    = +10.14 kcal/mol  [=(1)+(2)+(3)-(4)]
DOCKED: USER
DOCKED: USER    (1) Final Intermolecular Energy     =  +0.00 kcal/mol
DOCKED: USER        vdW + Hbond + desolv Energy     =  +0.00 kcal/mol
DOCKED: USER        Electrostatic Energy            =  +0.00 kcal/mol
DOCKED: USER        Moving Ligand-Fixed Receptor    =  +0.00 kcal/mol
DOCKED: USER        Moving Ligand-Moving Receptor   =  +0.00 kcal/mol
DOCKED: USER    (2) Final Total Internal Energy     = -33.22 kcal/mol
DOCKED: USER    (3) Torsional Free Energy           = +10.14 kcal/mol
DOCKED: USER    (4) Unbound System's Energy         = -33.22 kcal/mol
DOCKED: USER
DOCKED: USER
DOCKED: REMARK  Name = ligand_ref.pdb
DOCKED: REMARK  40 active torsions:
DOCKED: REMARK  status: ('A' for Active; 'I' for Inactive)
DOCKED: REMARK    1  A    between atoms: N_1  and  CA_2
DOCKED: REMARK    2  A    between atoms: CA_2  and  C_3
DOCKED: REMARK    3  A    between atoms: CA_2  and  CB_5
DOCKED: REMARK    4  A    between atoms: CB_5  and  CG_6
DOCKED: REMARK    5  A    between atoms: CG_6  and  CD_7
DOCKED: REMARK    6  A    between atoms: CD_7  and  OE2_9
DOCKED: REMARK    7  A    between atoms: N_10  and  CA_11
DOCKED: REMARK    8  A    between atoms: CA_11  and  C_12
DOCKED: REMARK    9  A    between atoms: CA_11  and  CB_14
DOCKED: REMARK   10  A    between atoms: CB_14  and  CG1_15
DOCKED: REMARK   11  A    between atoms: CB_14  and  CG2_16
DOCKED: REMARK   12  A    between atoms: N_17  and  CA_18
DOCKED: REMARK   13  A    between atoms: CA_18  and  C_19
DOCKED: REMARK   14  A    between atoms: CA_18  and  CB_21
DOCKED: REMARK   15  A    between atoms: CB_21  and  CG_22
DOCKED: REMARK   16  A    between atoms: N_25  and  CA_26
DOCKED: REMARK   17  A    between atoms: CA_26  and  C4_33
DOCKED: REMARK   18  A    between atoms: CA_26  and  C6_34
DOCKED: REMARK   19  A    between atoms: C_27  and  C8_36
DOCKED: REMARK   20  A    between atoms: C1_29  and  C3_32
DOCKED: REMARK   21  A    between atoms: O1_30  and  C6_34
DOCKED: REMARK   22  A    between atoms: C2_31  and  C3_32
DOCKED: REMARK   23  A    between atoms: C3_32  and  C4_33
DOCKED: REMARK   24  A    between atoms: C6_34  and  C7_35
DOCKED: REMARK   25  A    between atoms: C7_35  and  C8_36
DOCKED: REMARK   26  A    between atoms: C8_36  and  C9_37
DOCKED: REMARK   27  A    between atoms: N_38  and  CA_39
DOCKED: REMARK   28  A    between atoms: CA_39  and  C_40
DOCKED: REMARK   29  A    between atoms: CA_39  and  CB_42
DOCKED: REMARK   30  A    between atoms: N_43  and  CA_44
DOCKED: REMARK   31  A    between atoms: CA_44  and  C_45
DOCKED: REMARK   32  A    between atoms: CA_44  and  CB_47
DOCKED: REMARK   33  A    between atoms: CB_47  and  CG_48
DOCKED: REMARK   34  A    between atoms: CG_48  and  CD_49
DOCKED: REMARK   35  A    between atoms: CD_49  and  OE2_51
DOCKED: REMARK   36  A    between atoms: N_52  and  CA_53
DOCKED: REMARK   37  A    between atoms: CA_53  and  C_54
DOCKED: REMARK   38  A    between atoms: CA_53  and  CB_56
DOCKED: REMARK   39  A    between atoms: C_54  and  OXT_63
DOCKED: REMARK   40  A    between atoms: CB_56  and  CG_57
DOCKED: REMARK                            x       y       z     vdW  Elec       q    Type
DOCKED: REMARK                         _______ _______ _______ _____ _____    ______ ____
DOCKED: USER                              x       y       z     vdW  Elec       q    Type
DOCKED: USER                           _______ _______ _______ _____ _____    ______ ____
DOCKED: ROOT
DOCKED: ATOM      1  C6  1OL C   4       6.907  -0.576  -2.793 +0.00 +0.00    +0.172 C  
DOCKED: ENDROOT
DOCKED: BRANCH   1   2
DOCKED: ATOM      2  O1  1OL C   4       6.082   0.490  -2.289 +0.00 -0.00    -0.221 OA 
DOCKED: ATOM      3  H   1OL C   4       5.317   0.611  -2.873 +0.00 +0.00    +0.000 HD 
DOCKED: ENDBRANCH   1   2
DOCKED: BRANCH   1   4
DOCKED: ATOM      4  CA  1OL C   4       6.090  -1.878  -2.919 +0.00 +0.00    +0.126 C  
DOCKED: BRANCH   4   7
DOCKED: ATOM      5  C   ASN C   3       4.458  -3.089  -1.575 +0.00 +0.00    +0.262 C  
DOCKED: ATOM      6  O   ASN C   3       4.898  -4.196  -1.915 +0.00 -0.00    -0.271 OA 
DOCKED: ATOM      7  N   1OL C   4       4.986  -1.941  -1.975 +0.00 -0.00    -0.203 N  
DOCKED: ATOM      8  H   1OL C   4       4.615  -1.100  -1.621 +0.00 +0.00    +0.000 HD 
DOCKED: BRANCH   5   9
DOCKED: ATOM      9  CA  ASN C   3       3.277  -2.967  -0.631 +0.00 +0.00    +0.182 C  
DOCKED: BRANCH   9  12
DOCKED: ATOM     10  C   VAL C   2       3.460  -1.767   1.478 +0.00 +0.00    +0.262 C  
DOCKED: ATOM     11  O   VAL C   2       3.091  -2.745   2.149 +0.00 -0.00    -0.271 OA 
DOCKED: ATOM     12  N   ASN C   3       3.520  -1.774   0.153 +0.00 -0.00    -0.196 N  
DOCKED: ATOM     13  H   ASN C   3       3.739  -0.937  -0.315 +0.00 +0.00    +0.000 HD 
DOCKED: BRANCH  10  14
DOCKED: ATOM     14  CA  VAL C   2       3.795  -0.449   2.127 +0.00 +0.00    +0.173 C  
DOCKED: BRANCH  14  17
DOCKED: ATOM     15  C   GLU C   1       2.201   0.917   0.940 +0.00 +0.00    +0.259 C  
DOCKED: ATOM     16  O   GLU C   1       1.269   0.295   1.436 +0.00 -0.00    -0.272 OA 
DOCKED: ATOM     17  N   VAL C   2       3.463   0.594   1.174 +0.00 -0.00    -0.197 N  
DOCKED: ATOM     18  H   VAL C   2       4.184   1.066   0.697 +0.00 +0.00    +0.000 HD 
DOCKED: BRANCH  15  19
DOCKED: ATOM     19  CA  GLU C   1       1.935   2.089  -0.018 +0.00 +0.00    +0.170 C  
DOCKED: BRANCH  19  20
DOCKED: ATOM     20  N   GLU C   1       3.223   2.717  -0.456 +0.00 -0.00    -0.123 NA 
DOCKED: ATOM     21  H   GLU C   1       3.791   2.023  -0.943 +0.00 +0.00    +0.000 HD 
DOCKED: ATOM     22  H   GLU C   1       3.730   3.058   0.361 +0.00 +0.00    +0.000 HD 
DOCKED: ENDBRANCH  19  20
DOCKED: BRANCH  19  23
DOCKED: ATOM     23  CB  GLU C   1       1.158   1.556  -1.228 +0.00 +0.00    +0.040 C  
DOCKED: BRANCH  23  24
DOCKED: ATOM     24  CG  GLU C   1       2.011   1.445  -2.503 +0.00 +0.00    +0.116 C  
DOCKED: BRANCH  24  25
DOCKED: ATOM     25  CD  GLU C   1       3.149   0.446  -2.387 +0.00 +0.00    +0.365 C  
DOCKED: ATOM     26  OE1 GLU C   1       3.358  -0.328  -3.354 +0.00 -0.00    -0.246 OA 
DOCKED: BRANCH  25  27
DOCKED: ATOM     27  OE2 GLU C   1       3.828   0.417  -1.335 +0.00 -0.00    -0.246 OA 
DOCKED: ATOM     28  H   GLU C   1       4.512   1.043  -1.201 +0.00 +0.00    +0.000 HD 
DOCKED: ENDBRANCH  25  27
DOCKED: ENDBRANCH  24  25
DOCKED: ENDBRANCH  23  24
DOCKED: ENDBRANCH  19  23
DOCKED: ENDBRANCH  15  19
DOCKED: ENDBRANCH  14  17
DOCKED: BRANCH  14  29
DOCKED: ATOM     29  CB  VAL C   2       3.031  -0.340   3.485 +0.00 +0.00    +0.029 C  
DOCKED: ATOM     30  CG1 VAL C   2       3.680  -1.286   4.527 +0.00 +0.00    +0.002 C  
DOCKED: ATOM     31  CG2 VAL C   2       3.000   1.117   3.986 +0.00 +0.00    +0.002 C  
DOCKED: ENDBRANCH  14  29
DOCKED: ENDBRANCH  10  14
DOCKED: ENDBRANCH   9  12
DOCKED: BRANCH   9  32
DOCKED: ATOM     32  CB  ASN C   3       1.970  -2.831  -1.412 +0.00 +0.00    +0.120 C  
DOCKED: BRANCH  32  33
DOCKED: ATOM     33  CG  ASN C   3       0.982  -1.922  -0.713 +0.00 +0.00    +0.263 C  
DOCKED: ATOM     34  ND2 ASN C   3       0.792  -2.128   0.603 +0.00 -0.00    -0.088 N  
DOCKED: ATOM     35  OD1 ASN C   3       0.388  -1.058  -1.347 +0.00 -0.00    -0.272 OA 
DOCKED: ATOM     36  H   ASN C   3       1.294  -2.835   1.068 +0.00 +0.00    +0.000 HD 
DOCKED: ATOM     37  H   ASN C   3       0.151  -1.570   1.101 +0.00 +0.00    +0.000 HD 
DOCKED: ENDBRANCH  32  33
DOCKED: ENDBRANCH   9  32
DOCKED: ENDBRANCH   5   9
DOCKED: ENDBRANCH   4   7
DOCKED: BRANCH   4  38
DOCKED: ATOM     38  C4  1OL C   4       5.516  -2.045  -4.338 +0.00 +0.00    +0.024 C  
DOCKED: BRANCH  38  41
DOCKED: ATOM     39  C1  1OL C   4       4.636  -0.518  -6.103 +0.00 +0.00    +0.000 C  
DOCKED: ATOM     40  C2  1OL C   4       7.115  -1.069  -6.082 +0.00 +0.00    +0.000 C  
DOCKED: ATOM     41  C3  1OL C   4       5.845  -0.822  -5.216 +0.00 +0.00    +0.002 C  
DOCKED: ENDBRANCH  38  41
DOCKED: ENDBRANCH   4  38
DOCKED: ENDBRANCH   1   4
DOCKED: BRANCH   1  42
DOCKED: ATOM     42  C7  1OL C   4       8.132  -0.764  -1.880 +0.00 +0.00    +0.044 C  
DOCKED: BRANCH  42  43
DOCKED: ATOM     43  C8  1OL C   4       7.830  -1.304  -0.479 +0.00 +0.00    +0.081 C  
DOCKED: ATOM     44  C9  1OL C   4       9.127  -1.529   0.300 +0.00 +0.00    +0.010 C  
DOCKED: BRANCH  43  45
DOCKED: ATOM     45  C   1OL C   4       6.946  -0.295   0.268 +0.00 +0.00    +0.241 C  
DOCKED: ATOM     46  O   1OL C   4       5.722  -0.275   0.047 +0.00 -0.00    -0.273 OA 
DOCKED: ATOM     47  N   ALA C   5       7.563   0.490   1.165 +0.00 -0.00    -0.198 N  
DOCKED: ATOM     48  H   ALA C   5       8.521   0.338   1.341 +0.00 +0.00    +0.000 HD 
DOCKED: BRANCH  47  49
DOCKED: ATOM     49  CA  ALA C   5       6.882   1.561   1.897 +0.00 +0.00    +0.173 C  
DOCKED: ATOM     50  CB  ALA C   5       7.793   2.179   2.929 +0.00 +0.00    +0.033 C  
DOCKED: BRANCH  49  51
DOCKED: ATOM     51  C   ALA C   5       6.510   2.547   0.801 +0.00 +0.00    +0.262 C  
DOCKED: ATOM     52  O   ALA C   5       5.689   2.247  -0.115 +0.00 -0.00    -0.271 OA 
DOCKED: ATOM     53  N   GLU C   6       7.251   3.727   0.817 +0.00 -0.00    -0.196 N  
DOCKED: ATOM     54  H   GLU C   6       8.070   3.725   1.362 +0.00 +0.00    +0.000 HD 
DOCKED: BRANCH  53  55
DOCKED: ATOM     55  CA  GLU C   6       6.934   5.002   0.090 +0.00 +0.00    +0.173 C  
DOCKED: BRANCH  55  56
DOCKED: ATOM     56  C   GLU C   6       7.556   5.463  -1.206 +0.00 +0.00    +0.262 C  
DOCKED: ATOM     57  O   GLU C   6       8.378   6.344  -1.415 +0.00 -0.00    -0.271 OA 
DOCKED: ATOM     58  N   PHE C   7       6.900   4.548  -2.025 +0.00 -0.00    -0.194 N  
DOCKED: ATOM     59  H   PHE C   7       6.322   4.023  -1.426 +0.00 +0.00    +0.000 HD 
DOCKED: BRANCH  58  60
DOCKED: ATOM     60  CA  PHE C   7       6.670   3.999  -3.388 +0.00 +0.00    +0.202 C  
DOCKED: BRANCH  60  61
DOCKED: ATOM     61  C   PHE C   7       5.535   2.962  -3.468 +0.00 +0.00    +0.385 C  
DOCKED: ATOM     62  O   PHE C   7       5.387   2.132  -4.407 +0.00 -0.00    -0.244 OA 
DOCKED: BRANCH  61  63
DOCKED: ATOM     63  OXT PHE C   7       4.727   2.815  -2.506 +0.00 -0.00    -0.244 OA 
DOCKED: ATOM     64  H   PHE C   7       4.911   2.191  -1.831 +0.00 +0.00    +0.000 HD 
DOCKED: ENDBRANCH  61  63
DOCKED: ENDBRANCH  60  61
DOCKED: BRANCH  60  65
DOCKED: ATOM     65  CB  PHE C   7       7.958   3.514  -3.985 +0.00 +0.00    +0.060 C  
DOCKED: BRANCH  65  66
DOCKED: ATOM     66  CG  PHE C   7       8.874   3.290  -2.871 +0.00 -0.00    -0.020 A  
DOCKED: ATOM     67  CD1 PHE C   7       8.584   2.273  -1.977 +0.00 -0.00    -0.004 A  
DOCKED: ATOM     68  CD2 PHE C   7      10.007   4.064  -2.695 +0.00 -0.00    -0.004 A  
DOCKED: ATOM     69  CE1 PHE C   7       9.424   2.021  -0.898 +0.00 -0.00    -0.000 A  
DOCKED: ATOM     70  CE2 PHE C   7      10.869   3.811  -1.644 +0.00 -0.00    -0.000 A  
DOCKED: ATOM     71  CZ  PHE C   7      10.569   2.792  -0.751 +0.00 -0.00    -0.000 A  
DOCKED: ENDBRANCH  65  66
DOCKED: ENDBRANCH  60  65
DOCKED: ENDBRANCH  58  60
DOCKED: ENDBRANCH  55  56
DOCKED: BRANCH  55  72
DOCKED: ATOM     72  CB  GLU C   6       6.751   6.145   1.097 +0.00 +0.00    +0.043 C  
DOCKED: BRANCH  72  73
DOCKED: ATOM     73  CG  GLU C   6       5.257   6.416   1.322 +0.00 +0.00    +0.116 C  
DOCKED: BRANCH  73  74
DOCKED: ATOM     74  CD  GLU C   6       4.325   5.304   0.826 +0.00 +0.00    +0.365 C  
DOCKED: ATOM     75  OE1 GLU C   6       3.547   4.775   1.646 +0.00 -0.00    -0.246 OA 
DOCKED: BRANCH  74  76
DOCKED: ATOM     76  OE2 GLU C   6       4.371   4.978  -0.387 +0.00 -0.00    -0.246 OA 
DOCKED: ATOM     77  H   GLU C   6       4.646   4.117  -0.631 +0.00 +0.00    +0.000 HD 
DOCKED: ENDBRANCH  74  76
DOCKED: ENDBRANCH  73  74
DOCKED: ENDBRANCH  72  73
DOCKED: ENDBRANCH  55  72
DOCKED: ENDBRANCH  53  55
DOCKED: ENDBRANCH  49  51
DOCKED: ENDBRANCH  47  49
DOCKED: ENDBRANCH  43  45
DOCKED: ENDBRANCH  42  43
DOCKED: ENDBRANCH   1  42
DOCKED: TORSDOF 34
DOCKED: TER
DOCKED: ENDMDL
________________________________________________________________________________


    FINAL DOCKED STATE:
    ________________________


Run:   12 / 20
Time taken for this run:   5.932s

DOCKED: MODEL        12
DOCKED: USER    Run = 12
DOCKED: USER
DOCKED: USER    Estimated Free Energy of Binding    = +10.14 kcal/mol  [=(1)+(2)+(3)-(4)]
DOCKED: USER
DOCKED: USER    (1) Final Intermolecular Energy     =  +0.00 kcal/mol
DOCKED: USER        vdW + Hbond + desolv Energy     =  +0.00 kcal/mol
DOCKED: USER        Electrostatic Energy            =  +0.00 kcal/mol
DOCKED: USER        Moving Ligand-Fixed Receptor    =  +0.00 kcal/mol
DOCKED: USER        Moving Ligand-Moving Receptor   =  +0.00 kcal/mol
DOCKED: USER    (2) Final Total Internal Energy     = -33.06 kcal/mol
DOCKED: USER    (3) Torsional Free Energy           = +10.14 kcal/mol
DOCKED: USER    (4) Unbound System's Energy         = -33.06 kcal/mol
DOCKED: USER
DOCKED: USER
DOCKED: REMARK  Name = ligand_ref.pdb
DOCKED: REMARK  40 active torsions:
DOCKED: REMARK  status: ('A' for Active; 'I' for Inactive)
DOCKED: REMARK    1  A    between atoms: N_1  and  CA_2
DOCKED: REMARK    2  A    between atoms: CA_2  and  C_3
DOCKED: REMARK    3  A    between atoms: CA_2  and  CB_5
DOCKED: REMARK    4  A    between atoms: CB_5  and  CG_6
DOCKED: REMARK    5  A    between atoms: CG_6  and  CD_7
DOCKED: REMARK    6  A    between atoms: CD_7  and  OE2_9
DOCKED: REMARK    7  A    between atoms: N_10  and  CA_11
DOCKED: REMARK    8  A    between atoms: CA_11  and  C_12
DOCKED: REMARK    9  A    between atoms: CA_11  and  CB_14
DOCKED: REMARK   10  A    between atoms: CB_14  and  CG1_15
DOCKED: REMARK   11  A    between atoms: CB_14  and  CG2_16
DOCKED: REMARK   12  A    between atoms: N_17  and  CA_18
DOCKED: REMARK   13  A    between atoms: CA_18  and  C_19
DOCKED: REMARK   14  A    between atoms: CA_18  and  CB_21
DOCKED: REMARK   15  A    between atoms: CB_21  and  CG_22
DOCKED: REMARK   16  A    between atoms: N_25  and  CA_26
DOCKED: REMARK   17  A    between atoms: CA_26  and  C4_33
DOCKED: REMARK   18  A    between atoms: CA_26  and  C6_34
DOCKED: REMARK   19  A    between atoms: C_27  and  C8_36
DOCKED: REMARK   20  A    between atoms: C1_29  and  C3_32
DOCKED: REMARK   21  A    between atoms: O1_30  and  C6_34
DOCKED: REMARK   22  A    between atoms: C2_31  and  C3_32
DOCKED: REMARK   23  A    between atoms: C3_32  and  C4_33
DOCKED: REMARK   24  A    between atoms: C6_34  and  C7_35
DOCKED: REMARK   25  A    between atoms: C7_35  and  C8_36
DOCKED: REMARK   26  A    between atoms: C8_36  and  C9_37
DOCKED: REMARK   27  A    between atoms: N_38  and  CA_39
DOCKED: REMARK   28  A    between atoms: CA_39  and  C_40
DOCKED: REMARK   29  A    between atoms: CA_39  and  CB_42
DOCKED: REMARK   30  A    between atoms: N_43  and  CA_44
DOCKED: REMARK   31  A    between atoms: CA_44  and  C_45
DOCKED: REMARK   32  A    between atoms: CA_44  and  CB_47
DOCKED: REMARK   33  A    between atoms: CB_47  and  CG_48
DOCKED: REMARK   34  A    between atoms: CG_48  and  CD_49
DOCKED: REMARK   35  A    between atoms: CD_49  and  OE2_51
DOCKED: REMARK   36  A    between atoms: N_52  and  CA_53
DOCKED: REMARK   37  A    between atoms: CA_53  and  C_54
DOCKED: REMARK   38  A    between atoms: CA_53  and  CB_56
DOCKED: REMARK   39  A    between atoms: C_54  and  OXT_63
DOCKED: REMARK   40  A    between atoms: CB_56  and  CG_57
DOCKED: REMARK                            x       y       z     vdW  Elec       q    Type
DOCKED: REMARK                         _______ _______ _______ _____ _____    ______ ____
DOCKED: USER                              x       y       z     vdW  Elec       q    Type
DOCKED: USER                           _______ _______ _______ _____ _____    ______ ____
DOCKED: ROOT
DOCKED: ATOM      1  C6  1OL C   4       8.876  -7.751  -1.446 +0.00 +0.00    +0.172 C  
DOCKED: ENDROOT
DOCKED: BRANCH   1   2
DOCKED: ATOM      2  O1  1OL C   4       9.661  -8.518  -0.515 +0.00 -0.00    -0.221 OA 
DOCKED: ATOM      3  H   1OL C   4      10.252  -7.925  -0.024 +0.00 +0.00    +0.000 HD 
DOCKED: ENDBRANCH   1   2
DOCKED: BRANCH   1   4
DOCKED: ATOM      4  CA  1OL C   4       8.487  -6.391  -0.833 +0.00 +0.00    +0.126 C  
DOCKED: BRANCH   4   7
DOCKED: ATOM      5  C   ASN C   3       8.231  -5.610   1.461 +0.00 +0.00    +0.262 C  
DOCKED: ATOM      6  O   ASN C   3       7.099  -5.153   1.251 +0.00 -0.00    -0.271 OA 
DOCKED: ATOM      7  N   1OL C   4       8.944  -6.243   0.540 +0.00 -0.00    -0.203 N  
DOCKED: ATOM      8  H   1OL C   4       9.814  -6.626   0.795 +0.00 +0.00    +0.000 HD 
DOCKED: BRANCH   5   9
DOCKED: ATOM      9  CA  ASN C   3       8.883  -5.502   2.826 +0.00 +0.00    +0.182 C  
DOCKED: BRANCH   9  12
DOCKED: ATOM     10  C   VAL C   2       8.429  -7.810   3.449 +0.00 +0.00    +0.262 C  
DOCKED: ATOM     11  O   VAL C   2       7.205  -7.621   3.535 +0.00 -0.00    -0.271 OA 
DOCKED: ATOM     12  N   ASN C   3       9.297  -6.846   3.173 +0.00 -0.00    -0.196 N  
DOCKED: ATOM     13  H   ASN C   3      10.259  -7.051   3.205 +0.00 +0.00    +0.000 HD 
DOCKED: BRANCH  10  14
DOCKED: ATOM     14  CA  VAL C   2       9.041  -9.157   3.736 +0.00 +0.00    +0.173 C  
DOCKED: BRANCH  14  17
DOCKED: ATOM     15  C   GLU C   1      10.818 -10.446   2.738 +0.00 +0.00    +0.259 C  
DOCKED: ATOM     16  O   GLU C   1      10.984 -11.063   3.783 +0.00 -0.00    -0.272 OA 
DOCKED: ATOM     17  N   VAL C   2       9.934  -9.465   2.635 +0.00 -0.00    -0.197 N  
DOCKED: ATOM     18  H   VAL C   2       9.883  -8.940   1.804 +0.00 +0.00    +0.000 HD 
DOCKED: BRANCH  15  19
DOCKED: ATOM     19  CA  GLU C   1      11.669 -10.765   1.498 +0.00 +0.00    +0.170 C  
DOCKED: BRANCH  19  20
DOCKED: ATOM     20  N   GLU C   1      11.300  -9.867   0.358 +0.00 -0.00    -0.123 NA 
DOCKED: ATOM     21  H   GLU C   1      12.071  -9.227   0.165 +0.00 +0.00    +0.000 HD 
DOCKED: ATOM     22  H   GLU C   1      10.466  -9.333   0.603 +0.00 +0.00    +0.000 HD 
DOCKED: ENDBRANCH  19  20
DOCKED: BRANCH  19  23
DOCKED: ATOM     23  CB  GLU C   1      13.146 -10.585   1.868 +0.00 +0.00    +0.040 C  
DOCKED: BRANCH  23  24
DOCKED: ATOM     24  CG  GLU C   1      13.471  -9.192   2.432 +0.00 +0.00    +0.116 C  
DOCKED: BRANCH  24  25
DOCKED: ATOM     25  CD  GLU C   1      12.877  -8.055   1.618 +0.00 +0.00    +0.365 C  
DOCKED: ATOM     26  OE1 GLU C   1      13.646  -7.391   0.879 +0.00 -0.00    -0.246 OA 
DOCKED: BRANCH  25  27
DOCKED: ATOM     27  OE2 GLU C   1      11.653  -7.808   1.720 +0.00 -0.00    -0.246 OA 
DOCKED: ATOM     28  H   GLU C   1      11.059  -8.102   1.058 +0.00 +0.00    +0.000 HD 
DOCKED: ENDBRANCH  25  27
DOCKED: ENDBRANCH  24  25
DOCKED: ENDBRANCH  23  24
DOCKED: ENDBRANCH  19  23
DOCKED: ENDBRANCH  15  19
DOCKED: ENDBRANCH  14  17
DOCKED: BRANCH  14  29
DOCKED: ATOM     29  CB  VAL C   2       9.739  -9.113   5.133 +0.00 +0.00    +0.029 C  
DOCKED: ATOM     30  CG1 VAL C   2      11.045  -8.284   5.038 +0.00 +0.00    +0.002 C  
DOCKED: ATOM     31  CG2 VAL C   2       8.789  -8.552   6.208 +0.00 +0.00    +0.002 C  
DOCKED: ENDBRANCH  14  29
DOCKED: ENDBRANCH  10  14
DOCKED: ENDBRANCH   9  12
DOCKED: BRANCH   9  32
DOCKED: ATOM     32  CB  ASN C   3      10.094  -4.569   2.776 +0.00 +0.00    +0.120 C  
DOCKED: BRANCH  32  33
DOCKED: ATOM     33  CG  ASN C   3      11.368  -5.311   2.433 +0.00 +0.00    +0.263 C  
DOCKED: ATOM     34  ND2 ASN C   3      11.691  -5.394   1.130 +0.00 -0.00    -0.088 N  
DOCKED: ATOM     35  OD1 ASN C   3      12.045  -5.813   3.323 +0.00 -0.00    -0.272 OA 
DOCKED: ATOM     36  H   ASN C   3      11.114  -4.973   0.452 +0.00 +0.00    +0.000 HD 
DOCKED: ATOM     37  H   ASN C   3      12.504  -5.875   0.854 +0.00 +0.00    +0.000 HD 
DOCKED: ENDBRANCH  32  33
DOCKED: ENDBRANCH   9  32
DOCKED: ENDBRANCH   5   9
DOCKED: ENDBRANCH   4   7
DOCKED: BRANCH   4  38
DOCKED: ATOM     38  C4  1OL C   4       9.061  -5.221  -1.656 +0.00 +0.00    +0.024 C  
DOCKED: BRANCH  38  41
DOCKED: ATOM     39  C1  1OL C   4       6.766  -4.246  -1.728 +0.00 +0.00    +0.000 C  
DOCKED: ATOM     40  C2  1OL C   4       7.589  -5.597  -3.715 +0.00 +0.00    +0.000 C  
DOCKED: ATOM     41  C3  1OL C   4       7.985  -4.612  -2.577 +0.00 +0.00    +0.002 C  
DOCKED: ENDBRANCH  38  41
DOCKED: ENDBRANCH   4  38
DOCKED: ENDBRANCH   1   4
DOCKED: BRANCH   1  42
DOCKED: ATOM     42  C7  1OL C   4       7.633  -8.556  -1.867 +0.00 +0.00    +0.044 C  
DOCKED: BRANCH  42  43
DOCKED: ATOM     43  C8  1OL C   4       6.896  -9.270  -0.730 +0.00 +0.00    +0.081 C  
DOCKED: ATOM     44  C9  1OL C   4       5.534  -9.777  -1.208 +0.00 +0.00    +0.010 C  
DOCKED: BRANCH  43  45
DOCKED: ATOM     45  C   1OL C   4       7.747 -10.451  -0.244 +0.00 +0.00    +0.241 C  
DOCKED: ATOM     46  O   1OL C   4       8.478 -10.309   0.754 +0.00 -0.00    -0.273 OA 
DOCKED: ATOM     47  N   ALA C   5       7.611 -11.603  -0.919 +0.00 -0.00    -0.198 N  
DOCKED: ATOM     48  H   ALA C   5       6.939 -11.649  -1.638 +0.00 +0.00    +0.000 HD 
DOCKED: BRANCH  47  49
DOCKED: ATOM     49  CA  ALA C   5       8.413 -12.797  -0.639 +0.00 +0.00    +0.173 C  
DOCKED: ATOM     50  CB  ALA C   5       7.661 -14.054  -1.001 +0.00 +0.00    +0.033 C  
DOCKED: BRANCH  49  51
DOCKED: ATOM     51  C   ALA C   5       9.644 -12.599  -1.509 +0.00 +0.00    +0.262 C  
DOCKED: ATOM     52  O   ALA C   5      10.179 -13.561  -2.136 +0.00 -0.00    -0.271 OA 
DOCKED: ATOM     53  N   GLU C   6      10.200 -11.323  -1.435 +0.00 -0.00    -0.196 N  
DOCKED: ATOM     54  H   GLU C   6       9.904 -10.757  -0.686 +0.00 +0.00    +0.000 HD 
DOCKED: BRANCH  53  55
DOCKED: ATOM     55  CA  GLU C   6      11.203 -10.719  -2.375 +0.00 +0.00    +0.173 C  
DOCKED: BRANCH  55  56
DOCKED: ATOM     56  C   GLU C   6      10.898  -9.765  -3.505 +0.00 +0.00    +0.262 C  
DOCKED: ATOM     57  O   GLU C   6      10.333  -9.964  -4.571 +0.00 -0.00    -0.271 OA 
DOCKED: ATOM     58  N   PHE C   7      11.447  -8.636  -2.905 +0.00 -0.00    -0.194 N  
DOCKED: ATOM     59  H   PHE C   7      11.798  -8.941  -2.037 +0.00 +0.00    +0.000 HD 
DOCKED: BRANCH  58  60
DOCKED: ATOM     60  CA  PHE C   7      11.748  -7.181  -2.970 +0.00 +0.00    +0.202 C  
DOCKED: BRANCH  60  61
DOCKED: ATOM     61  C   PHE C   7      11.885  -6.501  -1.596 +0.00 +0.00    +0.385 C  
DOCKED: ATOM     62  O   PHE C   7      12.236  -5.301  -1.422 +0.00 -0.00    -0.244 OA 
DOCKED: BRANCH  61  63
DOCKED: ATOM     63  OXT PHE C   7      11.535  -7.104  -0.541 +0.00 -0.00    -0.244 OA 
DOCKED: ATOM     64  H   PHE C   7      11.844  -7.973  -0.373 +0.00 +0.00    +0.000 HD 
DOCKED: ENDBRANCH  61  63
DOCKED: ENDBRANCH  60  61
DOCKED: BRANCH  60  65
DOCKED: ATOM     65  CB  PHE C   7      10.782  -6.483  -3.882 +0.00 +0.00    +0.060 C  
DOCKED: BRANCH  65  66
DOCKED: ATOM     66  CG  PHE C   7      11.006  -7.026  -5.218 +0.00 -0.00    -0.020 A  
DOCKED: ATOM     67  CD1 PHE C   7       9.905  -7.266  -6.023 +0.00 -0.00    -0.004 A  
DOCKED: ATOM     68  CD2 PHE C   7      12.279  -7.302  -5.687 +0.00 -0.00    -0.004 A  
DOCKED: ATOM     69  CE1 PHE C   7      10.066  -7.785  -7.303 +0.00 -0.00    -0.000 A  
DOCKED: ATOM     70  CE2 PHE C   7      12.461  -7.791  -6.966 +0.00 -0.00    -0.000 A  
DOCKED: ATOM     71  CZ  PHE C   7      11.351  -8.032  -7.765 +0.00 -0.00    -0.000 A  
DOCKED: ENDBRANCH  65  66
DOCKED: ENDBRANCH  60  65
DOCKED: ENDBRANCH  58  60
DOCKED: ENDBRANCH  55  56
DOCKED: BRANCH  55  72
DOCKED: ATOM     72  CB  GLU C   6      12.259 -11.766  -2.753 +0.00 +0.00    +0.043 C  
DOCKED: BRANCH  72  73
DOCKED: ATOM     73  CG  GLU C   6      13.636 -11.339  -2.229 +0.00 +0.00    +0.116 C  
DOCKED: BRANCH  73  74
DOCKED: ATOM     74  CD  GLU C   6      13.775  -9.838  -1.947 +0.00 +0.00    +0.365 C  
DOCKED: ATOM     75  OE1 GLU C   6      14.112  -9.088  -2.887 +0.00 -0.00    -0.246 OA 
DOCKED: BRANCH  74  76
DOCKED: ATOM     76  OE2 GLU C   6      13.532  -9.420  -0.787 +0.00 -0.00    -0.246 OA 
DOCKED: ATOM     77  H   GLU C   6      12.901  -8.740  -0.657 +0.00 +0.00    +0.000 HD 
DOCKED: ENDBRANCH  74  76
DOCKED: ENDBRANCH  73  74
DOCKED: ENDBRANCH  72  73
DOCKED: ENDBRANCH  55  72
DOCKED: ENDBRANCH  53  55
DOCKED: ENDBRANCH  49  51
DOCKED: ENDBRANCH  47  49
DOCKED: ENDBRANCH  43  45
DOCKED: ENDBRANCH  42  43
DOCKED: ENDBRANCH   1  42
DOCKED: TORSDOF 34
DOCKED: TER
DOCKED: ENDMDL
________________________________________________________________________________


    FINAL DOCKED STATE:
    ________________________


Run:   13 / 20
Time taken for this run:   5.932s

DOCKED: MODEL        13
DOCKED: USER    Run = 13
DOCKED: USER
DOCKED: USER    Estimated Free Energy of Binding    = +10.14 kcal/mol  [=(1)+(2)+(3)-(4)]
DOCKED: USER
DOCKED: USER    (1) Final Intermolecular Energy     =  +0.00 kcal/mol
DOCKED: USER        vdW + Hbond + desolv Energy     =  +0.00 kcal/mol
DOCKED: USER        Electrostatic Energy            =  +0.00 kcal/mol
DOCKED: USER        Moving Ligand-Fixed Receptor    =  +0.00 kcal/mol
DOCKED: USER        Moving Ligand-Moving Receptor   =  +0.00 kcal/mol
DOCKED: USER    (2) Final Total Internal Energy     = -33.66 kcal/mol
DOCKED: USER    (3) Torsional Free Energy           = +10.14 kcal/mol
DOCKED: USER    (4) Unbound System's Energy         = -33.66 kcal/mol
DOCKED: USER
DOCKED: USER
DOCKED: REMARK  Name = ligand_ref.pdb
DOCKED: REMARK  40 active torsions:
DOCKED: REMARK  status: ('A' for Active; 'I' for Inactive)
DOCKED: REMARK    1  A    between atoms: N_1  and  CA_2
DOCKED: REMARK    2  A    between atoms: CA_2  and  C_3
DOCKED: REMARK    3  A    between atoms: CA_2  and  CB_5
DOCKED: REMARK    4  A    between atoms: CB_5  and  CG_6
DOCKED: REMARK    5  A    between atoms: CG_6  and  CD_7
DOCKED: REMARK    6  A    between atoms: CD_7  and  OE2_9
DOCKED: REMARK    7  A    between atoms: N_10  and  CA_11
DOCKED: REMARK    8  A    between atoms: CA_11  and  C_12
DOCKED: REMARK    9  A    between atoms: CA_11  and  CB_14
DOCKED: REMARK   10  A    between atoms: CB_14  and  CG1_15
DOCKED: REMARK   11  A    between atoms: CB_14  and  CG2_16
DOCKED: REMARK   12  A    between atoms: N_17  and  CA_18
DOCKED: REMARK   13  A    between atoms: CA_18  and  C_19
DOCKED: REMARK   14  A    between atoms: CA_18  and  CB_21
DOCKED: REMARK   15  A    between atoms: CB_21  and  CG_22
DOCKED: REMARK   16  A    between atoms: N_25  and  CA_26
DOCKED: REMARK   17  A    between atoms: CA_26  and  C4_33
DOCKED: REMARK   18  A    between atoms: CA_26  and  C6_34
DOCKED: REMARK   19  A    between atoms: C_27  and  C8_36
DOCKED: REMARK   20  A    between atoms: C1_29  and  C3_32
DOCKED: REMARK   21  A    between atoms: O1_30  and  C6_34
DOCKED: REMARK   22  A    between atoms: C2_31  and  C3_32
DOCKED: REMARK   23  A    between atoms: C3_32  and  C4_33
DOCKED: REMARK   24  A    between atoms: C6_34  and  C7_35
DOCKED: REMARK   25  A    between atoms: C7_35  and  C8_36
DOCKED: REMARK   26  A    between atoms: C8_36  and  C9_37
DOCKED: REMARK   27  A    between atoms: N_38  and  CA_39
DOCKED: REMARK   28  A    between atoms: CA_39  and  C_40
DOCKED: REMARK   29  A    between atoms: CA_39  and  CB_42
DOCKED: REMARK   30  A    between atoms: N_43  and  CA_44
DOCKED: REMARK   31  A    between atoms: CA_44  and  C_45
DOCKED: REMARK   32  A    between atoms: CA_44  and  CB_47
DOCKED: REMARK   33  A    between atoms: CB_47  and  CG_48
DOCKED: REMARK   34  A    between atoms: CG_48  and  CD_49
DOCKED: REMARK   35  A    between atoms: CD_49  and  OE2_51
DOCKED: REMARK   36  A    between atoms: N_52  and  CA_53
DOCKED: REMARK   37  A    between atoms: CA_53  and  C_54
DOCKED: REMARK   38  A    between atoms: CA_53  and  CB_56
DOCKED: REMARK   39  A    between atoms: C_54  and  OXT_63
DOCKED: REMARK   40  A    between atoms: CB_56  and  CG_57
DOCKED: REMARK                            x       y       z     vdW  Elec       q    Type
DOCKED: REMARK                         _______ _______ _______ _____ _____    ______ ____
DOCKED: USER                              x       y       z     vdW  Elec       q    Type
DOCKED: USER                           _______ _______ _______ _____ _____    ______ ____
DOCKED: ROOT
DOCKED: ATOM      1  C6  1OL C   4      13.355  -7.798   1.827 +0.00 +0.00    +0.172 C  
DOCKED: ENDROOT
DOCKED: BRANCH   1   2
DOCKED: ATOM      2  O1  1OL C   4      13.632  -7.028   3.010 +0.00 -0.00    -0.221 OA 
DOCKED: ATOM      3  H   1OL C   4      14.048  -7.597   3.677 +0.00 +0.00    +0.000 HD 
DOCKED: ENDBRANCH   1   2
DOCKED: BRANCH   1   4
DOCKED: ATOM      4  CA  1OL C   4      14.002  -7.141   0.590 +0.00 +0.00    +0.126 C  
DOCKED: BRANCH   4   7
DOCKED: ATOM      5  C   ASN C   3      14.671  -4.871   0.010 +0.00 +0.00    +0.262 C  
DOCKED: ATOM      6  O   ASN C   3      14.154  -4.933  -1.114 +0.00 -0.00    -0.271 OA 
DOCKED: ATOM      7  N   1OL C   4      14.615  -5.858   0.894 +0.00 -0.00    -0.203 N  
DOCKED: ATOM      8  H   1OL C   4      15.003  -5.716   1.788 +0.00 +0.00    +0.000 HD 
DOCKED: BRANCH   5   9
DOCKED: ATOM      9  CA  ASN C   3      15.395  -3.622   0.476 +0.00 +0.00    +0.182 C  
DOCKED: BRANCH   9  12
DOCKED: ATOM     10  C   VAL C   2      13.453  -3.070   1.835 +0.00 +0.00    +0.262 C  
DOCKED: ATOM     11  O   VAL C   2      12.674  -3.117   0.869 +0.00 -0.00    -0.271 OA 
DOCKED: ATOM     12  N   ASN C   3      14.763  -3.243   1.723 +0.00 -0.00    -0.196 N  
DOCKED: ATOM     13  H   ASN C   3      15.329  -3.107   2.517 +0.00 +0.00    +0.000 HD 
DOCKED: BRANCH  10  14
DOCKED: ATOM     14  CA  VAL C   2      12.969  -2.729   3.221 +0.00 +0.00    +0.173 C  
DOCKED: BRANCH  14  17
DOCKED: ATOM     15  C   GLU C   1      12.772  -3.921   5.308 +0.00 +0.00    +0.259 C  
DOCKED: ATOM     16  O   GLU C   1      12.532  -2.878   5.904 +0.00 -0.00    -0.272 OA 
DOCKED: ATOM     17  N   VAL C   2      13.051  -3.942   4.014 +0.00 -0.00    -0.197 N  
DOCKED: ATOM     18  H   VAL C   2      13.317  -4.788   3.586 +0.00 +0.00    +0.000 HD 
DOCKED: BRANCH  15  19
DOCKED: ATOM     19  CA  GLU C   1      12.799  -5.262   6.060 +0.00 +0.00    +0.170 C  
DOCKED: BRANCH  19  20
DOCKED: ATOM     20  N   GLU C   1      12.851  -6.407   5.097 +0.00 -0.00    -0.123 NA 
DOCKED: ATOM     21  H   GLU C   1      13.677  -6.974   5.286 +0.00 +0.00    +0.000 HD 
DOCKED: ATOM     22  H   GLU C   1      12.897  -6.047   4.143 +0.00 +0.00    +0.000 HD 
DOCKED: ENDBRANCH  19  20
DOCKED: BRANCH  19  23
DOCKED: ATOM     23  CB  GLU C   1      14.028  -5.275   6.978 +0.00 +0.00    +0.040 C  
DOCKED: BRANCH  23  24
DOCKED: ATOM     24  CG  GLU C   1      15.275  -4.640   6.340 +0.00 +0.00    +0.116 C  
DOCKED: BRANCH  24  25
DOCKED: ATOM     25  CD  GLU C   1      15.827  -5.432   5.167 +0.00 +0.00    +0.365 C  
DOCKED: ATOM     26  OE1 GLU C   1      17.033  -5.782   5.205 +0.00 -0.00    -0.246 OA 
DOCKED: BRANCH  25  27
DOCKED: ATOM     27  OE2 GLU C   1      15.073  -5.696   4.203 +0.00 -0.00    -0.246 OA 
DOCKED: ATOM     28  H   GLU C   1      14.751  -6.568   4.085 +0.00 +0.00    +0.000 HD 
DOCKED: ENDBRANCH  25  27
DOCKED: ENDBRANCH  24  25
DOCKED: ENDBRANCH  23  24
DOCKED: ENDBRANCH  19  23
DOCKED: ENDBRANCH  15  19
DOCKED: ENDBRANCH  14  17
DOCKED: BRANCH  14  29
DOCKED: ATOM     29  CB  VAL C   2      13.818  -1.542   3.779 +0.00 +0.00    +0.029 C  
DOCKED: ATOM     30  CG1 VAL C   2      15.128  -2.085   4.405 +0.00 +0.00    +0.002 C  
DOCKED: ATOM     31  CG2 VAL C   2      14.105  -0.502   2.678 +0.00 +0.00    +0.002 C  
DOCKED: ENDBRANCH  14  29
DOCKED: ENDBRANCH  10  14
DOCKED: ENDBRANCH   9  12
DOCKED: BRANCH   9  32
DOCKED: ATOM     32  CB  ASN C   3      16.880  -3.907   0.699 +0.00 +0.00    +0.120 C  
DOCKED: BRANCH  32  33
DOCKED: ATOM     33  CG  ASN C   3      17.348  -3.450   2.063 +0.00 +0.00    +0.263 C  
DOCKED: ATOM     34  ND2 ASN C   3      17.177  -4.309   3.084 +0.00 -0.00    -0.088 N  
DOCKED: ATOM     35  OD1 ASN C   3      17.844  -2.338   2.201 +0.00 -0.00    -0.272 OA 
DOCKED: ATOM     36  H   ASN C   3      16.774  -5.193   2.922 +0.00 +0.00    +0.000 HD 
DOCKED: ATOM     37  H   ASN C   3      17.455  -4.055   3.994 +0.00 +0.00    +0.000 HD 
DOCKED: ENDBRANCH  32  33
DOCKED: ENDBRANCH   9  32
DOCKED: ENDBRANCH   5   9
DOCKED: ENDBRANCH   4   7
DOCKED: BRANCH   4  38
DOCKED: ATOM     38  C4  1OL C   4      15.079  -8.051  -0.029 +0.00 +0.00    +0.024 C  
DOCKED: BRANCH  38  41
DOCKED: ATOM     39  C1  1OL C   4      13.432  -8.326  -1.881 +0.00 +0.00    +0.000 C  
DOCKED: ATOM     40  C2  1OL C   4      13.785 -10.247  -0.257 +0.00 +0.00    +0.000 C  
DOCKED: ATOM     41  C3  1OL C   4      14.454  -9.061  -1.011 +0.00 +0.00    +0.002 C  
DOCKED: ENDBRANCH  38  41
DOCKED: ENDBRANCH   4  38
DOCKED: ENDBRANCH   1   4
DOCKED: BRANCH   1  42
DOCKED: ATOM     42  C7  1OL C   4      11.833  -7.956   1.651 +0.00 +0.00    +0.044 C  
DOCKED: BRANCH  42  43
DOCKED: ATOM     43  C8  1OL C   4      11.106  -8.647   2.809 +0.00 +0.00    +0.081 C  
DOCKED: ATOM     44  C9  1OL C   4      10.063  -9.630   2.276 +0.00 +0.00    +0.010 C  
DOCKED: BRANCH  43  45
DOCKED: ATOM     45  C   1OL C   4      12.133  -9.397   3.669 +0.00 +0.00    +0.241 C  
DOCKED: ATOM     46  O   1OL C   4      12.596  -8.848   4.685 +0.00 -0.00    -0.273 OA 
DOCKED: ATOM     47  N   ALA C   5      12.438 -10.645   3.281 +0.00 -0.00    -0.198 N  
DOCKED: ATOM     48  H   ALA C   5      11.951 -11.031   2.517 +0.00 +0.00    +0.000 HD 
DOCKED: BRANCH  47  49
DOCKED: ATOM     49  CA  ALA C   5      13.461 -11.462   3.940 +0.00 +0.00    +0.173 C  
DOCKED: ATOM     50  CB  ALA C   5      13.828 -12.658   3.095 +0.00 +0.00    +0.033 C  
DOCKED: BRANCH  49  51
DOCKED: ATOM     51  C   ALA C   5      14.625 -10.498   4.101 +0.00 +0.00    +0.262 C  
DOCKED: ATOM     52  O   ALA C   5      14.797  -9.524   3.311 +0.00 -0.00    -0.271 OA 
DOCKED: ATOM     53  N   GLU C   6      15.542 -10.866   5.084 +0.00 -0.00    -0.196 N  
DOCKED: ATOM     54  H   GLU C   6      15.486 -11.792   5.413 +0.00 +0.00    +0.000 HD 
DOCKED: BRANCH  53  55
DOCKED: ATOM     55  CA  GLU C   6      16.606 -10.000   5.695 +0.00 +0.00    +0.173 C  
DOCKED: BRANCH  55  56
DOCKED: ATOM     56  C   GLU C   6      18.032  -9.874   5.214 +0.00 +0.00    +0.262 C  
DOCKED: ATOM     57  O   GLU C   6      19.047 -10.430   5.608 +0.00 -0.00    -0.271 OA 
DOCKED: ATOM     58  N   PHE C   7      17.770  -8.959   4.198 +0.00 -0.00    -0.194 N  
DOCKED: ATOM     59  H   PHE C   7      16.802  -8.785   4.241 +0.00 +0.00    +0.000 HD 
DOCKED: BRANCH  58  60
DOCKED: ATOM     60  CA  PHE C   7      18.279  -8.123   3.078 +0.00 +0.00    +0.202 C  
DOCKED: BRANCH  60  61
DOCKED: ATOM     61  C   PHE C   7      17.202  -7.267   2.387 +0.00 +0.00    +0.385 C  
DOCKED: ATOM     62  O   PHE C   7      17.409  -6.522   1.390 +0.00 -0.00    -0.244 OA 
DOCKED: BRANCH  61  63
DOCKED: ATOM     63  OXT PHE C   7      15.988  -7.355   2.734 +0.00 -0.00    -0.244 OA 
DOCKED: ATOM     64  H   PHE C   7      15.768  -7.542   3.625 +0.00 +0.00    +0.000 HD 
DOCKED: ENDBRANCH  61  63
DOCKED: ENDBRANCH  60  61
DOCKED: BRANCH  60  65
DOCKED: ATOM     65  CB  PHE C   7      19.078  -8.956   2.119 +0.00 +0.00    +0.060 C  
DOCKED: BRANCH  65  66
DOCKED: ATOM     66  CG  PHE C   7      18.352 -10.212   1.956 +0.00 -0.00    -0.020 A  
DOCKED: ATOM     67  CD1 PHE C   7      18.919 -11.368   2.462 +0.00 -0.00    -0.004 A  
DOCKED: ATOM     68  CD2 PHE C   7      17.126 -10.265   1.315 +0.00 -0.00    -0.004 A  
DOCKED: ATOM     69  CE1 PHE C   7      18.269 -12.590   2.330 +0.00 -0.00    -0.000 A  
DOCKED: ATOM     70  CE2 PHE C   7      16.451 -11.465   1.198 +0.00 -0.00    -0.000 A  
DOCKED: ATOM     71  CZ  PHE C   7      17.030 -12.621   1.705 +0.00 -0.00    -0.000 A  
DOCKED: ENDBRANCH  65  66
DOCKED: ENDBRANCH  60  65
DOCKED: ENDBRANCH  58  60
DOCKED: ENDBRANCH  55  56
DOCKED: BRANCH  55  72
DOCKED: ATOM     72  CB  GLU C   6      16.500 -10.045   7.225 +0.00 +0.00    +0.043 C  
DOCKED: BRANCH  72  73
DOCKED: ATOM     73  CG  GLU C   6      15.614  -8.897   7.726 +0.00 +0.00    +0.116 C  
DOCKED: BRANCH  73  74
DOCKED: ATOM     74  CD  GLU C   6      14.639  -8.340   6.681 +0.00 +0.00    +0.365 C  
DOCKED: ATOM     75  OE1 GLU C   6      13.429  -8.268   6.981 +0.00 -0.00    -0.246 OA 
DOCKED: BRANCH  74  76
DOCKED: ATOM     76  OE2 GLU C   6      15.096  -7.967   5.572 +0.00 -0.00    -0.246 OA 
DOCKED: ATOM     77  H   GLU C   6      14.521  -7.859   4.840 +0.00 +0.00    +0.000 HD 
DOCKED: ENDBRANCH  74  76
DOCKED: ENDBRANCH  73  74
DOCKED: ENDBRANCH  72  73
DOCKED: ENDBRANCH  55  72
DOCKED: ENDBRANCH  53  55
DOCKED: ENDBRANCH  49  51
DOCKED: ENDBRANCH  47  49
DOCKED: ENDBRANCH  43  45
DOCKED: ENDBRANCH  42  43
DOCKED: ENDBRANCH   1  42
DOCKED: TORSDOF 34
DOCKED: TER
DOCKED: ENDMDL
________________________________________________________________________________


    FINAL DOCKED STATE:
    ________________________


Run:   14 / 20
Time taken for this run:   5.932s

DOCKED: MODEL        14
DOCKED: USER    Run = 14
DOCKED: USER
DOCKED: USER    Estimated Free Energy of Binding    = +10.14 kcal/mol  [=(1)+(2)+(3)-(4)]
DOCKED: USER
DOCKED: USER    (1) Final Intermolecular Energy     =  +0.00 kcal/mol
DOCKED: USER        vdW + Hbond + desolv Energy     =  +0.00 kcal/mol
DOCKED: USER        Electrostatic Energy            =  +0.00 kcal/mol
DOCKED: USER        Moving Ligand-Fixed Receptor    =  +0.00 kcal/mol
DOCKED: USER        Moving Ligand-Moving Receptor   =  +0.00 kcal/mol
DOCKED: USER    (2) Final Total Internal Energy     = -33.48 kcal/mol
DOCKED: USER    (3) Torsional Free Energy           = +10.14 kcal/mol
DOCKED: USER    (4) Unbound System's Energy         = -33.48 kcal/mol
DOCKED: USER
DOCKED: USER
DOCKED: REMARK  Name = ligand_ref.pdb
DOCKED: REMARK  40 active torsions:
DOCKED: REMARK  status: ('A' for Active; 'I' for Inactive)
DOCKED: REMARK    1  A    between atoms: N_1  and  CA_2
DOCKED: REMARK    2  A    between atoms: CA_2  and  C_3
DOCKED: REMARK    3  A    between atoms: CA_2  and  CB_5
DOCKED: REMARK    4  A    between atoms: CB_5  and  CG_6
DOCKED: REMARK    5  A    between atoms: CG_6  and  CD_7
DOCKED: REMARK    6  A    between atoms: CD_7  and  OE2_9
DOCKED: REMARK    7  A    between atoms: N_10  and  CA_11
DOCKED: REMARK    8  A    between atoms: CA_11  and  C_12
DOCKED: REMARK    9  A    between atoms: CA_11  and  CB_14
DOCKED: REMARK   10  A    between atoms: CB_14  and  CG1_15
DOCKED: REMARK   11  A    between atoms: CB_14  and  CG2_16
DOCKED: REMARK   12  A    between atoms: N_17  and  CA_18
DOCKED: REMARK   13  A    between atoms: CA_18  and  C_19
DOCKED: REMARK   14  A    between atoms: CA_18  and  CB_21
DOCKED: REMARK   15  A    between atoms: CB_21  and  CG_22
DOCKED: REMARK   16  A    between atoms: N_25  and  CA_26
DOCKED: REMARK   17  A    between atoms: CA_26  and  C4_33
DOCKED: REMARK   18  A    between atoms: CA_26  and  C6_34
DOCKED: REMARK   19  A    between atoms: C_27  and  C8_36
DOCKED: REMARK   20  A    between atoms: C1_29  and  C3_32
DOCKED: REMARK   21  A    between atoms: O1_30  and  C6_34
DOCKED: REMARK   22  A    between atoms: C2_31  and  C3_32
DOCKED: REMARK   23  A    between atoms: C3_32  and  C4_33
DOCKED: REMARK   24  A    between atoms: C6_34  and  C7_35
DOCKED: REMARK   25  A    between atoms: C7_35  and  C8_36
DOCKED: REMARK   26  A    between atoms: C8_36  and  C9_37
DOCKED: REMARK   27  A    between atoms: N_38  and  CA_39
DOCKED: REMARK   28  A    between atoms: CA_39  and  C_40
DOCKED: REMARK   29  A    between atoms: CA_39  and  CB_42
DOCKED: REMARK   30  A    between atoms: N_43  and  CA_44
DOCKED: REMARK   31  A    between atoms: CA_44  and  C_45
DOCKED: REMARK   32  A    between atoms: CA_44  and  CB_47
DOCKED: REMARK   33  A    between atoms: CB_47  and  CG_48
DOCKED: REMARK   34  A    between atoms: CG_48  and  CD_49
DOCKED: REMARK   35  A    between atoms: CD_49  and  OE2_51
DOCKED: REMARK   36  A    between atoms: N_52  and  CA_53
DOCKED: REMARK   37  A    between atoms: CA_53  and  C_54
DOCKED: REMARK   38  A    between atoms: CA_53  and  CB_56
DOCKED: REMARK   39  A    between atoms: C_54  and  OXT_63
DOCKED: REMARK   40  A    between atoms: CB_56  and  CG_57
DOCKED: REMARK                            x       y       z     vdW  Elec       q    Type
DOCKED: REMARK                         _______ _______ _______ _____ _____    ______ ____
DOCKED: USER                              x       y       z     vdW  Elec       q    Type
DOCKED: USER                           _______ _______ _______ _____ _____    ______ ____
DOCKED: ROOT
DOCKED: ATOM      1  C6  1OL C   4       4.931  -5.115  -0.216 +0.00 +0.00    +0.172 C  
DOCKED: ENDROOT
DOCKED: BRANCH   1   2
DOCKED: ATOM      2  O1  1OL C   4       5.056  -6.048   0.872 +0.00 -0.00    -0.221 OA 
DOCKED: ATOM      3  H   1OL C   4       5.544  -5.633   1.601 +0.00 +0.00    +0.000 HD 
DOCKED: ENDBRANCH   1   2
DOCKED: BRANCH   1   4
DOCKED: ATOM      4  CA  1OL C   4       5.888  -5.493  -1.365 +0.00 +0.00    +0.126 C  
DOCKED: BRANCH   4   7
DOCKED: ATOM      5  C   ASN C   3       6.003  -7.926  -1.438 +0.00 +0.00    +0.262 C  
DOCKED: ATOM      6  O   ASN C   3       4.899  -8.030  -1.989 +0.00 -0.00    -0.271 OA 
DOCKED: ATOM      7  N   1OL C   4       6.562  -6.761  -1.139 +0.00 -0.00    -0.203 N  
DOCKED: ATOM      8  H   1OL C   4       7.467  -6.756  -0.750 +0.00 +0.00    +0.000 HD 
DOCKED: BRANCH   5   9
DOCKED: ATOM      9  CA  ASN C   3       6.826  -9.150  -1.086 +0.00 +0.00    +0.182 C  
DOCKED: BRANCH   9  12
DOCKED: ATOM     10  C   VAL C   2       8.934  -8.037  -0.595 +0.00 +0.00    +0.262 C  
DOCKED: ATOM     11  O   VAL C   2       9.204  -7.864  -1.795 +0.00 -0.00    -0.271 OA 
DOCKED: ATOM     12  N   ASN C   3       7.855  -8.686  -0.178 +0.00 -0.00    -0.196 N  
DOCKED: ATOM     13  H   ASN C   3       7.750  -8.859   0.785 +0.00 +0.00    +0.000 HD 
DOCKED: BRANCH  10  14
DOCKED: ATOM     14  CA  VAL C   2       9.870  -7.584   0.495 +0.00 +0.00    +0.173 C  
DOCKED: BRANCH  14  17
DOCKED: ATOM     15  C   GLU C   1       8.287  -5.964   1.326 +0.00 +0.00    +0.259 C  
DOCKED: ATOM     16  O   GLU C   1       7.418  -6.823   1.402 +0.00 -0.00    -0.272 OA 
DOCKED: ATOM     17  N   VAL C   2       9.493  -6.227   0.846 +0.00 -0.00    -0.197 N  
DOCKED: ATOM     18  H   VAL C   2      10.141  -5.495   0.727 +0.00 +0.00    +0.000 HD 
DOCKED: BRANCH  15  19
DOCKED: ATOM     19  CA  GLU C   1       7.995  -4.516   1.754 +0.00 +0.00    +0.170 C  
DOCKED: BRANCH  19  20
DOCKED: ATOM     20  N   GLU C   1       6.798  -4.462   2.652 +0.00 -0.00    -0.123 NA 
DOCKED: ATOM     21  H   GLU C   1       7.103  -4.344   3.618 +0.00 +0.00    +0.000 HD 
DOCKED: ATOM     22  H   GLU C   1       6.269  -5.329   2.565 +0.00 +0.00    +0.000 HD 
DOCKED: ENDBRANCH  19  20
DOCKED: BRANCH  19  23
DOCKED: ATOM     23  CB  GLU C   1       9.233  -3.968   2.474 +0.00 +0.00    +0.040 C  
DOCKED: BRANCH  23  24
DOCKED: ATOM     24  CG  GLU C   1       9.700  -4.847   3.646 +0.00 +0.00    +0.116 C  
DOCKED: BRANCH  24  25
DOCKED: ATOM     25  CD  GLU C   1       8.565  -5.332   4.530 +0.00 +0.00    +0.365 C  
DOCKED: ATOM     26  OE1 GLU C   1       8.325  -4.696   5.587 +0.00 -0.00    -0.246 OA 
DOCKED: BRANCH  25  27
DOCKED: ATOM     27  OE2 GLU C   1       7.919  -6.350   4.189 +0.00 -0.00    -0.246 OA 
DOCKED: ATOM     28  H   GLU C   1       7.302  -6.299   3.486 +0.00 +0.00    +0.000 HD 
DOCKED: ENDBRANCH  25  27
DOCKED: ENDBRANCH  24  25
DOCKED: ENDBRANCH  23  24
DOCKED: ENDBRANCH  19  23
DOCKED: ENDBRANCH  15  19
DOCKED: ENDBRANCH  14  17
DOCKED: BRANCH  14  29
DOCKED: ATOM     29  CB  VAL C   2       9.795  -8.595   1.684 +0.00 +0.00    +0.029 C  
DOCKED: ATOM     30  CG1 VAL C   2      10.557  -9.893   1.314 +0.00 +0.00    +0.002 C  
DOCKED: ATOM     31  CG2 VAL C   2      10.344  -7.966   2.980 +0.00 +0.00    +0.002 C  
DOCKED: ENDBRANCH  14  29
DOCKED: ENDBRANCH  10  14
DOCKED: ENDBRANCH   9  12
DOCKED: BRANCH   9  32
DOCKED: ATOM     32  CB  ASN C   3       5.958 -10.210  -0.407 +0.00 +0.00    +0.120 C  
DOCKED: BRANCH  32  33
DOCKED: ATOM     33  CG  ASN C   3       4.726  -9.610   0.235 +0.00 +0.00    +0.263 C  
DOCKED: ATOM     34  ND2 ASN C   3       4.905  -8.501   0.975 +0.00 -0.00    -0.088 N  
DOCKED: ATOM     35  OD1 ASN C   3       3.633 -10.141   0.079 +0.00 -0.00    -0.272 OA 
DOCKED: ATOM     36  H   ASN C   3       5.804  -8.112   1.070 +0.00 +0.00    +0.000 HD 
DOCKED: ATOM     37  H   ASN C   3       4.136  -8.079   1.423 +0.00 +0.00    +0.000 HD 
DOCKED: ENDBRANCH  32  33
DOCKED: ENDBRANCH   9  32
DOCKED: ENDBRANCH   5   9
DOCKED: ENDBRANCH   4   7
DOCKED: BRANCH   4  38
DOCKED: ATOM     38  C4  1OL C   4       5.141  -5.581  -2.709 +0.00 +0.00    +0.024 C  
DOCKED: BRANCH  38  41
DOCKED: ATOM     39  C1  1OL C   4       6.344  -6.668  -4.605 +0.00 +0.00    +0.000 C  
DOCKED: ATOM     40  C2  1OL C   4       7.442  -4.710  -3.415 +0.00 +0.00    +0.000 C  
DOCKED: ATOM     41  C3  1OL C   4       6.099  -5.336  -3.892 +0.00 +0.00    +0.002 C  
DOCKED: ENDBRANCH  38  41
DOCKED: ENDBRANCH   4  38
DOCKED: ENDBRANCH   1   4
DOCKED: BRANCH   1  42
DOCKED: ATOM     42  C7  1OL C   4       5.193  -3.685   0.291 +0.00 +0.00    +0.044 C  
DOCKED: BRANCH  42  43
DOCKED: ATOM     43  C8  1OL C   4       3.943  -2.874   0.644 +0.00 +0.00    +0.081 C  
DOCKED: ATOM     44  C9  1OL C   4       2.678  -3.640   0.254 +0.00 +0.00    +0.010 C  
DOCKED: BRANCH  43  45
DOCKED: ATOM     45  C   1OL C   4       3.935  -2.595   2.154 +0.00 +0.00    +0.241 C  
DOCKED: ATOM     46  O   1OL C   4       3.535  -1.493   2.570 +0.00 -0.00    -0.273 OA 
DOCKED: ATOM     47  N   ALA C   5       4.330  -3.603   2.948 +0.00 -0.00    -0.198 N  
DOCKED: ATOM     48  H   ALA C   5       4.541  -4.471   2.534 +0.00 +0.00    +0.000 HD 
DOCKED: BRANCH  47  49
DOCKED: ATOM     49  CA  ALA C   5       4.464  -3.473   4.401 +0.00 +0.00    +0.173 C  
DOCKED: ATOM     50  CB  ALA C   5       3.254  -2.798   5.000 +0.00 +0.00    +0.033 C  
DOCKED: BRANCH  49  51
DOCKED: ATOM     51  C   ALA C   5       4.603  -4.913   4.867 +0.00 +0.00    +0.262 C  
DOCKED: ATOM     52  O   ALA C   5       5.635  -5.600   4.611 +0.00 -0.00    -0.271 OA 
DOCKED: ATOM     53  N   GLU C   6       3.454  -5.437   5.459 +0.00 -0.00    -0.196 N  
DOCKED: ATOM     54  H   GLU C   6       2.620  -4.933   5.321 +0.00 +0.00    +0.000 HD 
DOCKED: BRANCH  53  55
DOCKED: ATOM     55  CA  GLU C   6       3.355  -6.686   6.284 +0.00 +0.00    +0.173 C  
DOCKED: BRANCH  55  56
DOCKED: ATOM     56  C   GLU C   6       4.509  -7.426   6.918 +0.00 +0.00    +0.262 C  
DOCKED: ATOM     57  O   GLU C   6       4.783  -7.593   8.098 +0.00 -0.00    -0.271 OA 
DOCKED: ATOM     58  N   PHE C   7       5.096  -7.844   5.727 +0.00 -0.00    -0.194 N  
DOCKED: ATOM     59  H   PHE C   7       4.530  -7.475   5.010 +0.00 +0.00    +0.000 HD 
DOCKED: BRANCH  58  60
DOCKED: ATOM     60  CA  PHE C   7       6.183  -8.589   5.039 +0.00 +0.00    +0.202 C  
DOCKED: BRANCH  60  61
DOCKED: ATOM     61  C   PHE C   7       6.278  -8.316   3.527 +0.00 +0.00    +0.385 C  
DOCKED: ATOM     62  O   PHE C   7       6.871  -9.062   2.700 +0.00 -0.00    -0.244 OA 
DOCKED: BRANCH  61  63
DOCKED: ATOM     63  OXT PHE C   7       5.649  -7.350   3.005 +0.00 -0.00    -0.244 OA 
DOCKED: ATOM     64  H   PHE C   7       6.103  -6.560   2.787 +0.00 +0.00    +0.000 HD 
DOCKED: ENDBRANCH  61  63
DOCKED: ENDBRANCH  60  61
DOCKED: BRANCH  60  65
DOCKED: ATOM     65  CB  PHE C   7       6.114 -10.050   5.373 +0.00 +0.00    +0.060 C  
DOCKED: BRANCH  65  66
DOCKED: ATOM     66  CG  PHE C   7       4.929 -10.574   4.701 +0.00 -0.00    -0.020 A  
DOCKED: ATOM     67  CD1 PHE C   7       3.707 -10.462   5.343 +0.00 -0.00    -0.004 A  
DOCKED: ATOM     68  CD2 PHE C   7       5.005 -11.171   3.455 +0.00 -0.00    -0.004 A  
DOCKED: ATOM     69  CE1 PHE C   7       2.549 -10.949   4.746 +0.00 -0.00    -0.000 A  
DOCKED: ATOM     70  CE2 PHE C   7       3.861 -11.635   2.833 +0.00 -0.00    -0.000 A  
DOCKED: ATOM     71  CZ  PHE C   7       2.640 -11.523   3.485 +0.00 -0.00    -0.000 A  
DOCKED: ENDBRANCH  65  66
DOCKED: ENDBRANCH  60  65
DOCKED: ENDBRANCH  58  60
DOCKED: ENDBRANCH  55  56
DOCKED: BRANCH  55  72
DOCKED: ATOM     72  CB  GLU C   6       2.310  -7.631   5.676 +0.00 +0.00    +0.043 C  
DOCKED: BRANCH  72  73
DOCKED: ATOM     73  CG  GLU C   6       1.877  -7.120   4.295 +0.00 +0.00    +0.116 C  
DOCKED: BRANCH  73  74
DOCKED: ATOM     74  CD  GLU C   6       2.893  -7.373   3.174 +0.00 +0.00    +0.365 C  
DOCKED: ATOM     75  OE1 GLU C   6       3.043  -8.542   2.765 +0.00 -0.00    -0.246 OA 
DOCKED: BRANCH  74  76
DOCKED: ATOM     76  OE2 GLU C   6       3.522  -6.392   2.702 +0.00 -0.00    -0.246 OA 
DOCKED: ATOM     77  H   GLU C   6       4.420  -6.258   2.931 +0.00 +0.00    +0.000 HD 
DOCKED: ENDBRANCH  74  76
DOCKED: ENDBRANCH  73  74
DOCKED: ENDBRANCH  72  73
DOCKED: ENDBRANCH  55  72
DOCKED: ENDBRANCH  53  55
DOCKED: ENDBRANCH  49  51
DOCKED: ENDBRANCH  47  49
DOCKED: ENDBRANCH  43  45
DOCKED: ENDBRANCH  42  43
DOCKED: ENDBRANCH   1  42
DOCKED: TORSDOF 34
DOCKED: TER
DOCKED: ENDMDL
________________________________________________________________________________


    FINAL DOCKED STATE:
    ________________________


Run:   15 / 20
Time taken for this run:   5.932s

DOCKED: MODEL        15
DOCKED: USER    Run = 15
DOCKED: USER
DOCKED: USER    Estimated Free Energy of Binding    = +10.14 kcal/mol  [=(1)+(2)+(3)-(4)]
DOCKED: USER
DOCKED: USER    (1) Final Intermolecular Energy     =  +0.00 kcal/mol
DOCKED: USER        vdW + Hbond + desolv Energy     =  +0.00 kcal/mol
DOCKED: USER        Electrostatic Energy            =  +0.00 kcal/mol
DOCKED: USER        Moving Ligand-Fixed Receptor    =  +0.00 kcal/mol
DOCKED: USER        Moving Ligand-Moving Receptor   =  +0.00 kcal/mol
DOCKED: USER    (2) Final Total Internal Energy     = -33.73 kcal/mol
DOCKED: USER    (3) Torsional Free Energy           = +10.14 kcal/mol
DOCKED: USER    (4) Unbound System's Energy         = -33.73 kcal/mol
DOCKED: USER
DOCKED: USER
DOCKED: REMARK  Name = ligand_ref.pdb
DOCKED: REMARK  40 active torsions:
DOCKED: REMARK  status: ('A' for Active; 'I' for Inactive)
DOCKED: REMARK    1  A    between atoms: N_1  and  CA_2
DOCKED: REMARK    2  A    between atoms: CA_2  and  C_3
DOCKED: REMARK    3  A    between atoms: CA_2  and  CB_5
DOCKED: REMARK    4  A    between atoms: CB_5  and  CG_6
DOCKED: REMARK    5  A    between atoms: CG_6  and  CD_7
DOCKED: REMARK    6  A    between atoms: CD_7  and  OE2_9
DOCKED: REMARK    7  A    between atoms: N_10  and  CA_11
DOCKED: REMARK    8  A    between atoms: CA_11  and  C_12
DOCKED: REMARK    9  A    between atoms: CA_11  and  CB_14
DOCKED: REMARK   10  A    between atoms: CB_14  and  CG1_15
DOCKED: REMARK   11  A    between atoms: CB_14  and  CG2_16
DOCKED: REMARK   12  A    between atoms: N_17  and  CA_18
DOCKED: REMARK   13  A    between atoms: CA_18  and  C_19
DOCKED: REMARK   14  A    between atoms: CA_18  and  CB_21
DOCKED: REMARK   15  A    between atoms: CB_21  and  CG_22
DOCKED: REMARK   16  A    between atoms: N_25  and  CA_26
DOCKED: REMARK   17  A    between atoms: CA_26  and  C4_33
DOCKED: REMARK   18  A    between atoms: CA_26  and  C6_34
DOCKED: REMARK   19  A    between atoms: C_27  and  C8_36
DOCKED: REMARK   20  A    between atoms: C1_29  and  C3_32
DOCKED: REMARK   21  A    between atoms: O1_30  and  C6_34
DOCKED: REMARK   22  A    between atoms: C2_31  and  C3_32
DOCKED: REMARK   23  A    between atoms: C3_32  and  C4_33
DOCKED: REMARK   24  A    between atoms: C6_34  and  C7_35
DOCKED: REMARK   25  A    between atoms: C7_35  and  C8_36
DOCKED: REMARK   26  A    between atoms: C8_36  and  C9_37
DOCKED: REMARK   27  A    between atoms: N_38  and  CA_39
DOCKED: REMARK   28  A    between atoms: CA_39  and  C_40
DOCKED: REMARK   29  A    between atoms: CA_39  and  CB_42
DOCKED: REMARK   30  A    between atoms: N_43  and  CA_44
DOCKED: REMARK   31  A    between atoms: CA_44  and  C_45
DOCKED: REMARK   32  A    between atoms: CA_44  and  CB_47
DOCKED: REMARK   33  A    between atoms: CB_47  and  CG_48
DOCKED: REMARK   34  A    between atoms: CG_48  and  CD_49
DOCKED: REMARK   35  A    between atoms: CD_49  and  OE2_51
DOCKED: REMARK   36  A    between atoms: N_52  and  CA_53
DOCKED: REMARK   37  A    between atoms: CA_53  and  C_54
DOCKED: REMARK   38  A    between atoms: CA_53  and  CB_56
DOCKED: REMARK   39  A    between atoms: C_54  and  OXT_63
DOCKED: REMARK   40  A    between atoms: CB_56  and  CG_57
DOCKED: REMARK                            x       y       z     vdW  Elec       q    Type
DOCKED: REMARK                         _______ _______ _______ _____ _____    ______ ____
DOCKED: USER                              x       y       z     vdW  Elec       q    Type
DOCKED: USER                           _______ _______ _______ _____ _____    ______ ____
DOCKED: ROOT
DOCKED: ATOM      1  C6  1OL C   4       9.307  -8.077  -6.188 +0.00 +0.00    +0.172 C  
DOCKED: ENDROOT
DOCKED: BRANCH   1   2
DOCKED: ATOM      2  O1  1OL C   4       8.322  -8.245  -5.153 +0.00 -0.00    -0.221 OA 
DOCKED: ATOM      3  H   1OL C   4       8.717  -8.035  -4.292 +0.00 +0.00    +0.000 HD 
DOCKED: ENDBRANCH   1   2
DOCKED: BRANCH   1   4
DOCKED: ATOM      4  CA  1OL C   4       9.507  -6.581  -6.505 +0.00 +0.00    +0.126 C  
DOCKED: BRANCH   4   7
DOCKED: ATOM      5  C   ASN C   3       8.936  -4.410  -5.556 +0.00 +0.00    +0.262 C  
DOCKED: ATOM      6  O   ASN C   3       9.032  -3.832  -6.647 +0.00 -0.00    -0.271 OA 
DOCKED: ATOM      7  N   1OL C   4       9.110  -5.716  -5.405 +0.00 -0.00    -0.203 N  
DOCKED: ATOM      8  H   1OL C   4       8.965  -6.114  -4.517 +0.00 +0.00    +0.000 HD 
DOCKED: BRANCH   5   9
DOCKED: ATOM      9  CA  ASN C   3       8.576  -3.654  -4.292 +0.00 +0.00    +0.182 C  
DOCKED: BRANCH   9  12
DOCKED: ATOM     10  C   VAL C   2       9.497  -3.691  -2.040 +0.00 +0.00    +0.262 C  
DOCKED: ATOM     11  O   VAL C   2       9.040  -2.571  -1.757 +0.00 -0.00    -0.271 OA 
DOCKED: ATOM     12  N   ASN C   3       9.368  -4.249  -3.236 +0.00 -0.00    -0.196 N  
DOCKED: ATOM     13  H   ASN C   3       9.829  -5.101  -3.413 +0.00 +0.00    +0.000 HD 
DOCKED: BRANCH  10  14
DOCKED: ATOM     14  CA  VAL C   2      10.315  -4.480  -1.051 +0.00 +0.00    +0.173 C  
DOCKED: BRANCH  14  17
DOCKED: ATOM     15  C   GLU C   1      10.205  -6.715  -0.153 +0.00 +0.00    +0.259 C  
DOCKED: ATOM     16  O   GLU C   1      11.072  -6.449   0.670 +0.00 -0.00    -0.272 OA 
DOCKED: ATOM     17  N   VAL C   2       9.810  -5.840  -1.065 +0.00 -0.00    -0.197 N  
DOCKED: ATOM     18  H   VAL C   2       9.168  -6.115  -1.759 +0.00 +0.00    +0.000 HD 
DOCKED: BRANCH  15  19
DOCKED: ATOM     19  CA  GLU C   1       9.559  -8.111  -0.185 +0.00 +0.00    +0.170 C  
DOCKED: BRANCH  19  20
DOCKED: ATOM     20  N   GLU C   1       8.398  -8.135  -1.130 +0.00 -0.00    -0.123 NA 
DOCKED: ATOM     21  H   GLU C   1       8.741  -8.182  -2.090 +0.00 +0.00    +0.000 HD 
DOCKED: ATOM     22  H   GLU C   1       7.843  -7.287  -1.009 +0.00 +0.00    +0.000 HD 
DOCKED: ENDBRANCH  19  20
DOCKED: BRANCH  19  23
DOCKED: ATOM     23  CB  GLU C   1      10.625  -9.125  -0.616 +0.00 +0.00    +0.040 C  
DOCKED: BRANCH  23  24
DOCKED: ATOM     24  CG  GLU C   1      11.365  -8.726  -1.903 +0.00 +0.00    +0.116 C  
DOCKED: BRANCH  24  25
DOCKED: ATOM     25  CD  GLU C   1      10.447  -8.541  -3.099 +0.00 +0.00    +0.365 C  
DOCKED: ATOM     26  OE1 GLU C   1      10.260  -9.524  -3.859 +0.00 -0.00    -0.246 OA 
DOCKED: BRANCH  25  27
DOCKED: ATOM     27  OE2 GLU C   1       9.921  -7.421  -3.295 +0.00 -0.00    -0.246 OA 
DOCKED: ATOM     28  H   GLU C   1       8.992  -7.321  -3.226 +0.00 +0.00    +0.000 HD 
DOCKED: ENDBRANCH  25  27
DOCKED: ENDBRANCH  24  25
DOCKED: ENDBRANCH  23  24
DOCKED: ENDBRANCH  19  23
DOCKED: ENDBRANCH  15  19
DOCKED: ENDBRANCH  14  17
DOCKED: BRANCH  14  29
DOCKED: ATOM     29  CB  VAL C   2      11.827  -4.356  -1.426 +0.00 +0.00    +0.029 C  
DOCKED: ATOM     30  CG1 VAL C   2      12.673  -4.187  -0.139 +0.00 +0.00    +0.002 C  
DOCKED: ATOM     31  CG2 VAL C   2      12.292  -5.570  -2.254 +0.00 +0.00    +0.002 C  
DOCKED: ENDBRANCH  14  29
DOCKED: ENDBRANCH  10  14
DOCKED: ENDBRANCH   9  12
DOCKED: BRANCH   9  32
DOCKED: ATOM     32  CB  ASN C   3       8.910  -2.169  -4.434 +0.00 +0.00    +0.120 C  
DOCKED: BRANCH  32  33
DOCKED: ATOM     33  CG  ASN C   3      10.385  -1.940  -4.685 +0.00 +0.00    +0.263 C  
DOCKED: ATOM     34  ND2 ASN C   3      10.782  -1.881  -5.969 +0.00 -0.00    -0.088 N  
DOCKED: ATOM     35  OD1 ASN C   3      11.159  -1.833  -3.741 +0.00 -0.00    -0.272 OA 
DOCKED: ATOM     36  H   ASN C   3      10.121  -1.973  -6.693 +0.00 +0.00    +0.000 HD 
DOCKED: ATOM     37  H   ASN C   3      11.733  -1.745  -6.185 +0.00 +0.00    +0.000 HD 
DOCKED: ENDBRANCH  32  33
DOCKED: ENDBRANCH   9  32
DOCKED: ENDBRANCH   5   9
DOCKED: ENDBRANCH   4   7
DOCKED: BRANCH   4  38
DOCKED: ATOM     38  C4  1OL C   4      10.977  -6.273  -6.848 +0.00 +0.00    +0.024 C  
DOCKED: BRANCH  38  41
DOCKED: ATOM     39  C1  1OL C   4      12.536  -4.764  -5.616 +0.00 +0.00    +0.000 C  
DOCKED: ATOM     40  C2  1OL C   4      12.853  -7.277  -5.427 +0.00 +0.00    +0.000 C  
DOCKED: ATOM     41  C3  1OL C   4      11.824  -6.118  -5.570 +0.00 +0.00    +0.002 C  
DOCKED: ENDBRANCH  38  41
DOCKED: ENDBRANCH   4  38
DOCKED: ENDBRANCH   1   4
DOCKED: BRANCH   1  42
DOCKED: ATOM     42  C7  1OL C   4       8.889  -8.868  -7.441 +0.00 +0.00    +0.044 C  
DOCKED: BRANCH  42  43
DOCKED: ATOM     43  C8  1OL C   4       9.760 -10.084  -7.771 +0.00 +0.00    +0.081 C  
DOCKED: ATOM     44  C9  1OL C   4      11.197  -9.859  -7.298 +0.00 +0.00    +0.010 C  
DOCKED: BRANCH  43  45
DOCKED: ATOM     45  C   1OL C   4       9.175 -11.323  -7.079 +0.00 +0.00    +0.241 C  
DOCKED: ATOM     46  O   1OL C   4       9.131 -12.403  -7.694 +0.00 -0.00    -0.273 OA 
DOCKED: ATOM     47  N   ALA C   5       8.778 -11.164  -5.806 +0.00 -0.00    -0.198 N  
DOCKED: ATOM     48  H   ALA C   5       8.938 -10.296  -5.370 +0.00 +0.00    +0.000 HD 
DOCKED: BRANCH  47  49
DOCKED: ATOM     49  CA  ALA C   5       8.120 -12.221  -5.034 +0.00 +0.00    +0.173 C  
DOCKED: ATOM     50  CB  ALA C   5       8.484 -12.132  -3.571 +0.00 +0.00    +0.033 C  
DOCKED: BRANCH  49  51
DOCKED: ATOM     51  C   ALA C   5       6.642 -11.954  -5.270 +0.00 +0.00    +0.262 C  
DOCKED: ATOM     52  O   ALA C   5       5.839 -12.882  -5.582 +0.00 -0.00    -0.271 OA 
DOCKED: ATOM     53  N   GLU C   6       6.294 -10.604  -5.258 +0.00 -0.00    -0.196 N  
DOCKED: ATOM     54  H   GLU C   6       7.034  -9.959  -5.326 +0.00 +0.00    +0.000 HD 
DOCKED: BRANCH  53  55
DOCKED: ATOM     55  CA  GLU C   6       4.911 -10.030  -5.150 +0.00 +0.00    +0.173 C  
DOCKED: BRANCH  55  56
DOCKED: ATOM     56  C   GLU C   6       4.452  -8.708  -5.718 +0.00 +0.00    +0.262 C  
DOCKED: ATOM     57  O   GLU C   6       3.456  -8.437  -6.374 +0.00 -0.00    -0.271 OA 
DOCKED: ATOM     58  N   PHE C   7       5.512  -7.953  -5.225 +0.00 -0.00    -0.194 N  
DOCKED: ATOM     59  H   PHE C   7       6.091  -8.590  -4.746 +0.00 +0.00    +0.000 HD 
DOCKED: BRANCH  58  60
DOCKED: ATOM     60  CA  PHE C   7       6.173  -6.628  -5.087 +0.00 +0.00    +0.202 C  
DOCKED: BRANCH  60  61
DOCKED: ATOM     61  C   PHE C   7       6.500  -6.231  -3.635 +0.00 +0.00    +0.385 C  
DOCKED: ATOM     62  O   PHE C   7       5.725  -5.584  -2.878 +0.00 -0.00    -0.244 OA 
DOCKED: BRANCH  61  63
DOCKED: ATOM     63  OXT PHE C   7       7.556  -6.646  -3.076 +0.00 -0.00    -0.244 OA 
DOCKED: ATOM     64  H   PHE C   7       7.788  -7.552  -3.126 +0.00 +0.00    +0.000 HD 
DOCKED: ENDBRANCH  61  63
DOCKED: ENDBRANCH  60  61
DOCKED: BRANCH  60  65
DOCKED: ATOM     65  CB  PHE C   7       5.404  -5.575  -5.829 +0.00 +0.00    +0.060 C  
DOCKED: BRANCH  65  66
DOCKED: ATOM     66  CG  PHE C   7       6.028  -5.454  -7.143 +0.00 -0.00    -0.020 A  
DOCKED: ATOM     67  CD1 PHE C   7       6.208  -4.187  -7.670 +0.00 -0.00    -0.004 A  
DOCKED: ATOM     68  CD2 PHE C   7       6.435  -6.567  -7.859 +0.00 -0.00    -0.004 A  
DOCKED: ATOM     69  CE1 PHE C   7       6.795  -4.019  -8.920 +0.00 -0.00    -0.000 A  
DOCKED: ATOM     70  CE2 PHE C   7       7.046  -6.418  -9.090 +0.00 -0.00    -0.000 A  
DOCKED: ATOM     71  CZ  PHE C   7       7.220  -5.144  -9.613 +0.00 -0.00    -0.000 A  
DOCKED: ENDBRANCH  65  66
DOCKED: ENDBRANCH  60  65
DOCKED: ENDBRANCH  58  60
DOCKED: ENDBRANCH  55  56
DOCKED: BRANCH  55  72
DOCKED: ATOM     72  CB  GLU C   6       4.341 -10.302  -3.752 +0.00 +0.00    +0.043 C  
DOCKED: BRANCH  72  73
DOCKED: ATOM     73  CG  GLU C   6       5.482 -10.526  -2.751 +0.00 +0.00    +0.116 C  
DOCKED: BRANCH  73  74
DOCKED: ATOM     74  CD  GLU C   6       6.473  -9.360  -2.642 +0.00 +0.00    +0.365 C  
DOCKED: ATOM     75  OE1 GLU C   6       6.173  -8.396  -1.907 +0.00 -0.00    -0.246 OA 
DOCKED: BRANCH  74  76
DOCKED: ATOM     76  OE2 GLU C   6       7.551  -9.427  -3.283 +0.00 -0.00    -0.246 OA 
DOCKED: ATOM     77  H   GLU C   6       8.200  -8.758  -3.181 +0.00 +0.00    +0.000 HD 
DOCKED: ENDBRANCH  74  76
DOCKED: ENDBRANCH  73  74
DOCKED: ENDBRANCH  72  73
DOCKED: ENDBRANCH  55  72
DOCKED: ENDBRANCH  53  55
DOCKED: ENDBRANCH  49  51
DOCKED: ENDBRANCH  47  49
DOCKED: ENDBRANCH  43  45
DOCKED: ENDBRANCH  42  43
DOCKED: ENDBRANCH   1  42
DOCKED: TORSDOF 34
DOCKED: TER
DOCKED: ENDMDL
________________________________________________________________________________


    FINAL DOCKED STATE:
    ________________________


Run:   16 / 20
Time taken for this run:   5.932s

DOCKED: MODEL        16
DOCKED: USER    Run = 16
DOCKED: USER
DOCKED: USER    Estimated Free Energy of Binding    = +10.14 kcal/mol  [=(1)+(2)+(3)-(4)]
DOCKED: USER
DOCKED: USER    (1) Final Intermolecular Energy     =  +0.00 kcal/mol
DOCKED: USER        vdW + Hbond + desolv Energy     =  +0.00 kcal/mol
DOCKED: USER        Electrostatic Energy            =  +0.00 kcal/mol
DOCKED: USER        Moving Ligand-Fixed Receptor    =  +0.00 kcal/mol
DOCKED: USER        Moving Ligand-Moving Receptor   =  +0.00 kcal/mol
DOCKED: USER    (2) Final Total Internal Energy     = -33.50 kcal/mol
DOCKED: USER    (3) Torsional Free Energy           = +10.14 kcal/mol
DOCKED: USER    (4) Unbound System's Energy         = -33.50 kcal/mol
DOCKED: USER
DOCKED: USER
DOCKED: REMARK  Name = ligand_ref.pdb
DOCKED: REMARK  40 active torsions:
DOCKED: REMARK  status: ('A' for Active; 'I' for Inactive)
DOCKED: REMARK    1  A    between atoms: N_1  and  CA_2
DOCKED: REMARK    2  A    between atoms: CA_2  and  C_3
DOCKED: REMARK    3  A    between atoms: CA_2  and  CB_5
DOCKED: REMARK    4  A    between atoms: CB_5  and  CG_6
DOCKED: REMARK    5  A    between atoms: CG_6  and  CD_7
DOCKED: REMARK    6  A    between atoms: CD_7  and  OE2_9
DOCKED: REMARK    7  A    between atoms: N_10  and  CA_11
DOCKED: REMARK    8  A    between atoms: CA_11  and  C_12
DOCKED: REMARK    9  A    between atoms: CA_11  and  CB_14
DOCKED: REMARK   10  A    between atoms: CB_14  and  CG1_15
DOCKED: REMARK   11  A    between atoms: CB_14  and  CG2_16
DOCKED: REMARK   12  A    between atoms: N_17  and  CA_18
DOCKED: REMARK   13  A    between atoms: CA_18  and  C_19
DOCKED: REMARK   14  A    between atoms: CA_18  and  CB_21
DOCKED: REMARK   15  A    between atoms: CB_21  and  CG_22
DOCKED: REMARK   16  A    between atoms: N_25  and  CA_26
DOCKED: REMARK   17  A    between atoms: CA_26  and  C4_33
DOCKED: REMARK   18  A    between atoms: CA_26  and  C6_34
DOCKED: REMARK   19  A    between atoms: C_27  and  C8_36
DOCKED: REMARK   20  A    between atoms: C1_29  and  C3_32
DOCKED: REMARK   21  A    between atoms: O1_30  and  C6_34
DOCKED: REMARK   22  A    between atoms: C2_31  and  C3_32
DOCKED: REMARK   23  A    between atoms: C3_32  and  C4_33
DOCKED: REMARK   24  A    between atoms: C6_34  and  C7_35
DOCKED: REMARK   25  A    between atoms: C7_35  and  C8_36
DOCKED: REMARK   26  A    between atoms: C8_36  and  C9_37
DOCKED: REMARK   27  A    between atoms: N_38  and  CA_39
DOCKED: REMARK   28  A    between atoms: CA_39  and  C_40
DOCKED: REMARK   29  A    between atoms: CA_39  and  CB_42
DOCKED: REMARK   30  A    between atoms: N_43  and  CA_44
DOCKED: REMARK   31  A    between atoms: CA_44  and  C_45
DOCKED: REMARK   32  A    between atoms: CA_44  and  CB_47
DOCKED: REMARK   33  A    between atoms: CB_47  and  CG_48
DOCKED: REMARK   34  A    between atoms: CG_48  and  CD_49
DOCKED: REMARK   35  A    between atoms: CD_49  and  OE2_51
DOCKED: REMARK   36  A    between atoms: N_52  and  CA_53
DOCKED: REMARK   37  A    between atoms: CA_53  and  C_54
DOCKED: REMARK   38  A    between atoms: CA_53  and  CB_56
DOCKED: REMARK   39  A    between atoms: C_54  and  OXT_63
DOCKED: REMARK   40  A    between atoms: CB_56  and  CG_57
DOCKED: REMARK                            x       y       z     vdW  Elec       q    Type
DOCKED: REMARK                         _______ _______ _______ _____ _____    ______ ____
DOCKED: USER                              x       y       z     vdW  Elec       q    Type
DOCKED: USER                           _______ _______ _______ _____ _____    ______ ____
DOCKED: ROOT
DOCKED: ATOM      1  C6  1OL C   4       7.542  -4.204  -2.096 +0.00 +0.00    +0.172 C  
DOCKED: ENDROOT
DOCKED: BRANCH   1   2
DOCKED: ATOM      2  O1  1OL C   4       6.279  -4.839  -2.359 +0.00 -0.00    -0.221 OA 
DOCKED: ATOM      3  H   1OL C   4       5.563  -4.306  -1.980 +0.00 +0.00    +0.000 HD 
DOCKED: ENDBRANCH   1   2
DOCKED: BRANCH   1   4
DOCKED: ATOM      4  CA  1OL C   4       7.330  -2.744  -1.646 +0.00 +0.00    +0.126 C  
DOCKED: BRANCH   4   7
DOCKED: ATOM      5  C   ASN C   3       5.541  -1.263  -0.909 +0.00 +0.00    +0.262 C  
DOCKED: ATOM      6  O   ASN C   3       6.319  -0.329  -0.672 +0.00 -0.00    -0.271 OA 
DOCKED: ATOM      7  N   1OL C   4       5.931  -2.429  -1.405 +0.00 -0.00    -0.203 N  
DOCKED: ATOM      8  H   1OL C   4       5.248  -3.106  -1.618 +0.00 +0.00    +0.000 HD 
DOCKED: BRANCH   5   9
DOCKED: ATOM      9  CA  ASN C   3       4.049  -1.125  -0.671 +0.00 +0.00    +0.182 C  
DOCKED: BRANCH   9  12
DOCKED: ATOM     10  C   VAL C   2       2.226  -1.087  -2.282 +0.00 +0.00    +0.262 C  
DOCKED: ATOM     11  O   VAL C   2       1.518  -0.354  -1.572 +0.00 -0.00    -0.271 OA 
DOCKED: ATOM     12  N   ASN C   3       3.413  -1.542  -1.904 +0.00 -0.00    -0.196 N  
DOCKED: ATOM     13  H   ASN C   3       3.880  -2.187  -2.482 +0.00 +0.00    +0.000 HD 
DOCKED: BRANCH  10  14
DOCKED: ATOM     14  CA  VAL C   2       1.746  -1.590  -3.619 +0.00 +0.00    +0.173 C  
DOCKED: BRANCH  14  17
DOCKED: ATOM     15  C   GLU C   1       1.969  -3.954  -3.199 +0.00 +0.00    +0.259 C  
DOCKED: ATOM     16  O   GLU C   1       1.114  -3.899  -2.323 +0.00 -0.00    -0.272 OA 
DOCKED: ATOM     17  N   VAL C   2       2.380  -2.875  -3.847 +0.00 -0.00    -0.197 N  
DOCKED: ATOM     18  H   VAL C   2       3.123  -2.945  -4.489 +0.00 +0.00    +0.000 HD 
DOCKED: BRANCH  15  19
DOCKED: ATOM     19  CA  GLU C   1       2.634  -5.293  -3.559 +0.00 +0.00    +0.170 C  
DOCKED: BRANCH  19  20
DOCKED: ATOM     20  N   GLU C   1       4.112  -5.229  -3.321 +0.00 -0.00    -0.123 NA 
DOCKED: ATOM     21  H   GLU C   1       4.301  -4.630  -2.517 +0.00 +0.00    +0.000 HD 
DOCKED: ATOM     22  H   GLU C   1       4.572  -4.846  -4.147 +0.00 +0.00    +0.000 HD 
DOCKED: ENDBRANCH  19  20
DOCKED: BRANCH  19  23
DOCKED: ATOM     23  CB  GLU C   1       1.998  -6.392  -2.701 +0.00 +0.00    +0.040 C  
DOCKED: BRANCH  23  24
DOCKED: ATOM     24  CG  GLU C   1       3.024  -7.347  -2.069 +0.00 +0.00    +0.116 C  
DOCKED: BRANCH  24  25
DOCKED: ATOM     25  CD  GLU C   1       3.667  -6.799  -0.807 +0.00 +0.00    +0.365 C  
DOCKED: ATOM     26  OE1 GLU C   1       3.118  -7.053   0.295 +0.00 -0.00    -0.246 OA 
DOCKED: BRANCH  25  27
DOCKED: ATOM     27  OE2 GLU C   1       4.705  -6.106  -0.904 +0.00 -0.00    -0.246 OA 
DOCKED: ATOM     28  H   GLU C   1       4.656  -5.234  -1.243 +0.00 +0.00    +0.000 HD 
DOCKED: ENDBRANCH  25  27
DOCKED: ENDBRANCH  24  25
DOCKED: ENDBRANCH  23  24
DOCKED: ENDBRANCH  19  23
DOCKED: ENDBRANCH  15  19
DOCKED: ENDBRANCH  14  17
DOCKED: BRANCH  14  29
DOCKED: ATOM     29  CB  VAL C   2       0.184  -1.640  -3.614 +0.00 +0.00    +0.029 C  
DOCKED: ATOM     30  CG1 VAL C   2      -0.385  -0.200  -3.684 +0.00 +0.00    +0.002 C  
DOCKED: ATOM     31  CG2 VAL C   2      -0.344  -2.514  -4.768 +0.00 +0.00    +0.002 C  
DOCKED: ENDBRANCH  14  29
DOCKED: ENDBRANCH  10  14
DOCKED: ENDBRANCH   9  12
DOCKED: BRANCH   9  32
DOCKED: ATOM     32  CB  ASN C   3       3.600  -2.017   0.486 +0.00 +0.00    +0.120 C  
DOCKED: BRANCH  32  33
DOCKED: ATOM     33  CG  ASN C   3       3.756  -3.488   0.164 +0.00 +0.00    +0.263 C  
DOCKED: ATOM     34  ND2 ASN C   3       3.960  -4.320   1.201 +0.00 -0.00    -0.088 N  
DOCKED: ATOM     35  OD1 ASN C   3       3.708  -3.870  -1.000 +0.00 -0.00    -0.272 OA 
DOCKED: ATOM     36  H   ASN C   3       3.990  -3.964   2.119 +0.00 +0.00    +0.000 HD 
DOCKED: ATOM     37  H   ASN C   3       4.079  -5.284   1.043 +0.00 +0.00    +0.000 HD 
DOCKED: ENDBRANCH  32  33
DOCKED: ENDBRANCH   9  32
DOCKED: ENDBRANCH   5   9
DOCKED: ENDBRANCH   4   7
DOCKED: BRANCH   4  38
DOCKED: ATOM     38  C4  1OL C   4       8.118  -2.435  -0.358 +0.00 +0.00    +0.024 C  
DOCKED: BRANCH  38  41
DOCKED: ATOM     39  C1  1OL C   4       7.476  -2.248   2.045 +0.00 +0.00    +0.000 C  
DOCKED: ATOM     40  C2  1OL C   4       8.377  -4.461   1.183 +0.00 +0.00    +0.000 C  
DOCKED: ATOM     41  C3  1OL C   4       7.532  -3.198   0.846 +0.00 +0.00    +0.002 C  
DOCKED: ENDBRANCH  38  41
DOCKED: ENDBRANCH   4  38
DOCKED: ENDBRANCH   1   4
DOCKED: BRANCH   1  42
DOCKED: ATOM     42  C7  1OL C   4       8.437  -4.284  -3.347 +0.00 +0.00    +0.044 C  
DOCKED: BRANCH  42  43
DOCKED: ATOM     43  C8  1OL C   4       8.550  -5.672  -3.986 +0.00 +0.00    +0.081 C  
DOCKED: ATOM     44  C9  1OL C   4       8.385  -6.764  -2.928 +0.00 +0.00    +0.010 C  
DOCKED: BRANCH  43  45
DOCKED: ATOM     45  C   1OL C   4       7.461  -5.820  -5.058 +0.00 +0.00    +0.241 C  
DOCKED: ATOM     46  O   1OL C   4       6.502  -5.027  -5.069 +0.00 -0.00    -0.273 OA 
DOCKED: ATOM     47  N   ALA C   5       7.643  -6.795  -5.963 +0.00 -0.00    -0.198 N  
DOCKED: ATOM     48  H   ALA C   5       8.480  -7.314  -5.931 +0.00 +0.00    +0.000 HD 
DOCKED: BRANCH  47  49
DOCKED: ATOM     49  CA  ALA C   5       6.658  -7.125  -6.995 +0.00 +0.00    +0.173 C  
DOCKED: ATOM     50  CB  ALA C   5       5.269  -7.215  -6.412 +0.00 +0.00    +0.033 C  
DOCKED: BRANCH  49  51
DOCKED: ATOM     51  C   ALA C   5       6.789  -5.975  -7.980 +0.00 +0.00    +0.262 C  
DOCKED: ATOM     52  O   ALA C   5       7.500  -6.068  -9.024 +0.00 -0.00    -0.271 OA 
DOCKED: ATOM     53  N   GLU C   6       6.188  -4.789  -7.560 +0.00 -0.00    -0.196 N  
DOCKED: ATOM     54  H   GLU C   6       5.945  -4.733  -6.608 +0.00 +0.00    +0.000 HD 
DOCKED: BRANCH  53  55
DOCKED: ATOM     55  CA  GLU C   6       5.872  -3.589  -8.404 +0.00 +0.00    +0.173 C  
DOCKED: BRANCH  55  56
DOCKED: ATOM     56  C   GLU C   6       6.162  -2.150  -8.047 +0.00 +0.00    +0.262 C  
DOCKED: ATOM     57  O   GLU C   6       6.248  -1.164  -8.765 +0.00 -0.00    -0.271 OA 
DOCKED: ATOM     58  N   PHE C   7       6.266  -2.351  -6.674 +0.00 -0.00    -0.194 N  
DOCKED: ATOM     59  H   PHE C   7       6.124  -3.316  -6.536 +0.00 +0.00    +0.000 HD 
DOCKED: BRANCH  58  60
DOCKED: ATOM     60  CA  PHE C   7       6.493  -1.781  -5.319 +0.00 +0.00    +0.202 C  
DOCKED: BRANCH  60  61
DOCKED: ATOM     61  C   PHE C   7       5.298  -1.931  -4.361 +0.00 +0.00    +0.385 C  
DOCKED: ATOM     62  O   PHE C   7       4.362  -1.092  -4.244 +0.00 -0.00    -0.244 OA 
DOCKED: BRANCH  61  63
DOCKED: ATOM     63  OXT PHE C   7       5.133  -2.996  -3.698 +0.00 -0.00    -0.244 OA 
DOCKED: ATOM     64  H   PHE C   7       5.462  -3.809  -4.028 +0.00 +0.00    +0.000 HD 
DOCKED: ENDBRANCH  61  63
DOCKED: ENDBRANCH  60  61
DOCKED: BRANCH  60  65
DOCKED: ATOM     65  CB  PHE C   7       6.998  -0.372  -5.419 +0.00 +0.00    +0.060 C  
DOCKED: BRANCH  65  66
DOCKED: ATOM     66  CG  PHE C   7       7.877  -0.164  -4.272 +0.00 -0.00    -0.020 A  
DOCKED: ATOM     67  CD1 PHE C   7       7.567   0.852  -3.384 +0.00 -0.00    -0.004 A  
DOCKED: ATOM     68  CD2 PHE C   7       8.995  -0.952  -4.060 +0.00 -0.00    -0.004 A  
DOCKED: ATOM     69  CE1 PHE C   7       8.374   1.092  -2.277 +0.00 -0.00    -0.000 A  
DOCKED: ATOM     70  CE2 PHE C   7       9.793  -0.747  -2.951 +0.00 -0.00    -0.000 A  
DOCKED: ATOM     71  CZ  PHE C   7       9.478   0.277  -2.067 +0.00 -0.00    -0.000 A  
DOCKED: ENDBRANCH  65  66
DOCKED: ENDBRANCH  60  65
DOCKED: ENDBRANCH  58  60
DOCKED: ENDBRANCH  55  56
DOCKED: BRANCH  55  72
DOCKED: ATOM     72  CB  GLU C   6       4.501  -3.767  -9.071 +0.00 +0.00    +0.043 C  
DOCKED: BRANCH  72  73
DOCKED: ATOM     73  CG  GLU C   6       3.483  -4.293  -8.051 +0.00 +0.00    +0.116 C  
DOCKED: BRANCH  73  74
DOCKED: ATOM     74  CD  GLU C   6       3.612  -3.685  -6.648 +0.00 +0.00    +0.365 C  
DOCKED: ATOM     75  OE1 GLU C   6       3.073  -2.580  -6.430 +0.00 -0.00    -0.246 OA 
DOCKED: BRANCH  74  76
DOCKED: ATOM     76  OE2 GLU C   6       4.242  -4.328  -5.771 +0.00 -0.00    -0.246 OA 
DOCKED: ATOM     77  H   GLU C   6       4.628  -3.878  -5.046 +0.00 +0.00    +0.000 HD 
DOCKED: ENDBRANCH  74  76
DOCKED: ENDBRANCH  73  74
DOCKED: ENDBRANCH  72  73
DOCKED: ENDBRANCH  55  72
DOCKED: ENDBRANCH  53  55
DOCKED: ENDBRANCH  49  51
DOCKED: ENDBRANCH  47  49
DOCKED: ENDBRANCH  43  45
DOCKED: ENDBRANCH  42  43
DOCKED: ENDBRANCH   1  42
DOCKED: TORSDOF 34
DOCKED: TER
DOCKED: ENDMDL
________________________________________________________________________________


    FINAL DOCKED STATE:
    ________________________


Run:   17 / 20
Time taken for this run:   5.932s

DOCKED: MODEL        17
DOCKED: USER    Run = 17
DOCKED: USER
DOCKED: USER    Estimated Free Energy of Binding    = +10.14 kcal/mol  [=(1)+(2)+(3)-(4)]
DOCKED: USER
DOCKED: USER    (1) Final Intermolecular Energy     =  +0.00 kcal/mol
DOCKED: USER        vdW + Hbond + desolv Energy     =  +0.00 kcal/mol
DOCKED: USER        Electrostatic Energy            =  +0.00 kcal/mol
DOCKED: USER        Moving Ligand-Fixed Receptor    =  +0.00 kcal/mol
DOCKED: USER        Moving Ligand-Moving Receptor   =  +0.00 kcal/mol
DOCKED: USER    (2) Final Total Internal Energy     = -33.15 kcal/mol
DOCKED: USER    (3) Torsional Free Energy           = +10.14 kcal/mol
DOCKED: USER    (4) Unbound System's Energy         = -33.15 kcal/mol
DOCKED: USER
DOCKED: USER
DOCKED: REMARK  Name = ligand_ref.pdb
DOCKED: REMARK  40 active torsions:
DOCKED: REMARK  status: ('A' for Active; 'I' for Inactive)
DOCKED: REMARK    1  A    between atoms: N_1  and  CA_2
DOCKED: REMARK    2  A    between atoms: CA_2  and  C_3
DOCKED: REMARK    3  A    between atoms: CA_2  and  CB_5
DOCKED: REMARK    4  A    between atoms: CB_5  and  CG_6
DOCKED: REMARK    5  A    between atoms: CG_6  and  CD_7
DOCKED: REMARK    6  A    between atoms: CD_7  and  OE2_9
DOCKED: REMARK    7  A    between atoms: N_10  and  CA_11
DOCKED: REMARK    8  A    between atoms: CA_11  and  C_12
DOCKED: REMARK    9  A    between atoms: CA_11  and  CB_14
DOCKED: REMARK   10  A    between atoms: CB_14  and  CG1_15
DOCKED: REMARK   11  A    between atoms: CB_14  and  CG2_16
DOCKED: REMARK   12  A    between atoms: N_17  and  CA_18
DOCKED: REMARK   13  A    between atoms: CA_18  and  C_19
DOCKED: REMARK   14  A    between atoms: CA_18  and  CB_21
DOCKED: REMARK   15  A    between atoms: CB_21  and  CG_22
DOCKED: REMARK   16  A    between atoms: N_25  and  CA_26
DOCKED: REMARK   17  A    between atoms: CA_26  and  C4_33
DOCKED: REMARK   18  A    between atoms: CA_26  and  C6_34
DOCKED: REMARK   19  A    between atoms: C_27  and  C8_36
DOCKED: REMARK   20  A    between atoms: C1_29  and  C3_32
DOCKED: REMARK   21  A    between atoms: O1_30  and  C6_34
DOCKED: REMARK   22  A    between atoms: C2_31  and  C3_32
DOCKED: REMARK   23  A    between atoms: C3_32  and  C4_33
DOCKED: REMARK   24  A    between atoms: C6_34  and  C7_35
DOCKED: REMARK   25  A    between atoms: C7_35  and  C8_36
DOCKED: REMARK   26  A    between atoms: C8_36  and  C9_37
DOCKED: REMARK   27  A    between atoms: N_38  and  CA_39
DOCKED: REMARK   28  A    between atoms: CA_39  and  C_40
DOCKED: REMARK   29  A    between atoms: CA_39  and  CB_42
DOCKED: REMARK   30  A    between atoms: N_43  and  CA_44
DOCKED: REMARK   31  A    between atoms: CA_44  and  C_45
DOCKED: REMARK   32  A    between atoms: CA_44  and  CB_47
DOCKED: REMARK   33  A    between atoms: CB_47  and  CG_48
DOCKED: REMARK   34  A    between atoms: CG_48  and  CD_49
DOCKED: REMARK   35  A    between atoms: CD_49  and  OE2_51
DOCKED: REMARK   36  A    between atoms: N_52  and  CA_53
DOCKED: REMARK   37  A    between atoms: CA_53  and  C_54
DOCKED: REMARK   38  A    between atoms: CA_53  and  CB_56
DOCKED: REMARK   39  A    between atoms: C_54  and  OXT_63
DOCKED: REMARK   40  A    between atoms: CB_56  and  CG_57
DOCKED: REMARK                            x       y       z     vdW  Elec       q    Type
DOCKED: REMARK                         _______ _______ _______ _____ _____    ______ ____
DOCKED: USER                              x       y       z     vdW  Elec       q    Type
DOCKED: USER                           _______ _______ _______ _____ _____    ______ ____
DOCKED: ROOT
DOCKED: ATOM      1  C6  1OL C   4       6.340  -7.820   3.412 +0.00 +0.00    +0.172 C  
DOCKED: ENDROOT
DOCKED: BRANCH   1   2
DOCKED: ATOM      2  O1  1OL C   4       5.517  -7.556   4.563 +0.00 -0.00    -0.221 OA 
DOCKED: ATOM      3  H   1OL C   4       6.075  -7.512   5.356 +0.00 +0.00    +0.000 HD 
DOCKED: ENDBRANCH   1   2
DOCKED: BRANCH   1   4
DOCKED: ATOM      4  CA  1OL C   4       6.656  -6.510   2.663 +0.00 +0.00    +0.126 C  
DOCKED: BRANCH   4   7
DOCKED: ATOM      5  C   ASN C   3       6.059  -4.148   2.700 +0.00 +0.00    +0.262 C  
DOCKED: ATOM      6  O   ASN C   3       6.648  -3.911   1.637 +0.00 -0.00    -0.271 OA 
DOCKED: ATOM      7  N   1OL C   4       5.983  -5.357   3.239 +0.00 -0.00    -0.203 N  
DOCKED: ATOM      8  H   1OL C   4       5.451  -5.478   4.059 +0.00 +0.00    +0.000 HD 
DOCKED: BRANCH   5   9
DOCKED: ATOM      9  CA  ASN C   3       5.340  -3.051   3.463 +0.00 +0.00    +0.182 C  
DOCKED: BRANCH   9  12
DOCKED: ATOM     10  C   VAL C   2       3.092  -3.983   3.474 +0.00 +0.00    +0.262 C  
DOCKED: ATOM     11  O   VAL C   2       2.867  -3.639   2.302 +0.00 -0.00    -0.271 OA 
DOCKED: ATOM     12  N   ASN C   3       4.217  -3.694   4.114 +0.00 -0.00    -0.196 N  
DOCKED: ATOM     13  H   ASN C   3       4.292  -3.925   5.068 +0.00 +0.00    +0.000 HD 
DOCKED: BRANCH  10  14
DOCKED: ATOM     14  CA  VAL C   2       2.053  -4.700   4.297 +0.00 +0.00    +0.173 C  
DOCKED: BRANCH  14  17
DOCKED: ATOM     15  C   GLU C   1       2.169  -5.919   6.375 +0.00 +0.00    +0.259 C  
DOCKED: ATOM     16  O   GLU C   1       1.048  -5.536   6.685 +0.00 -0.00    -0.272 OA 
DOCKED: ATOM     17  N   VAL C   2       2.763  -5.522   5.260 +0.00 -0.00    -0.197 N  
DOCKED: ATOM     18  H   VAL C   2       3.694  -5.788   5.082 +0.00 +0.00    +0.000 HD 
DOCKED: BRANCH  15  19
DOCKED: ATOM     19  CA  GLU C   1       2.959  -6.858   7.302 +0.00 +0.00    +0.170 C  
DOCKED: BRANCH  19  20
DOCKED: ATOM     20  N   GLU C   1       4.110  -7.477   6.571 +0.00 -0.00    -0.123 NA 
DOCKED: ATOM     21  H   GLU C   1       4.977  -7.277   7.070 +0.00 +0.00    +0.000 HD 
DOCKED: ATOM     22  H   GLU C   1       4.163  -7.089   5.629 +0.00 +0.00    +0.000 HD 
DOCKED: ENDBRANCH  19  20
DOCKED: BRANCH  19  23
DOCKED: ATOM     23  CB  GLU C   1       3.458  -6.043   8.501 +0.00 +0.00    +0.040 C  
DOCKED: BRANCH  23  24
DOCKED: ATOM     24  CG  GLU C   1       4.883  -5.496   8.319 +0.00 +0.00    +0.116 C  
DOCKED: BRANCH  24  25
DOCKED: ATOM     25  CD  GLU C   1       5.112  -4.833   6.971 +0.00 +0.00    +0.365 C  
DOCKED: ATOM     26  OE1 GLU C   1       4.808  -3.620   6.849 +0.00 -0.00    -0.246 OA 
DOCKED: BRANCH  25  27
DOCKED: ATOM     27  OE2 GLU C   1       5.577  -5.515   6.029 +0.00 -0.00    -0.246 OA 
DOCKED: ATOM     28  H   GLU C   1       5.918  -6.371   6.194 +0.00 +0.00    +0.000 HD 
DOCKED: ENDBRANCH  25  27
DOCKED: ENDBRANCH  24  25
DOCKED: ENDBRANCH  23  24
DOCKED: ENDBRANCH  19  23
DOCKED: ENDBRANCH  15  19
DOCKED: ENDBRANCH  14  17
DOCKED: BRANCH  14  29
DOCKED: ATOM     29  CB  VAL C   2       1.096  -3.645   4.941 +0.00 +0.00    +0.029 C  
DOCKED: ATOM     30  CG1 VAL C   2       1.922  -2.623   5.761 +0.00 +0.00    +0.002 C  
DOCKED: ATOM     31  CG2 VAL C   2       0.240  -2.948   3.865 +0.00 +0.00    +0.002 C  
DOCKED: ENDBRANCH  14  29
DOCKED: ENDBRANCH  10  14
DOCKED: ENDBRANCH   9  12
DOCKED: BRANCH   9  32
DOCKED: ATOM     32  CB  ASN C   3       6.265  -2.418   4.503 +0.00 +0.00    +0.120 C  
DOCKED: BRANCH  32  33
DOCKED: ATOM     33  CG  ASN C   3       7.641  -3.048   4.498 +0.00 +0.00    +0.263 C  
DOCKED: ATOM     34  ND2 ASN C   3       7.801  -4.165   5.231 +0.00 -0.00    -0.088 N  
DOCKED: ATOM     35  OD1 ASN C   3       8.549  -2.533   3.858 +0.00 -0.00    -0.272 OA 
DOCKED: ATOM     36  H   ASN C   3       7.039  -4.540   5.729 +0.00 +0.00    +0.000 HD 
DOCKED: ATOM     37  H   ASN C   3       8.680  -4.606   5.270 +0.00 +0.00    +0.000 HD 
DOCKED: ENDBRANCH  32  33
DOCKED: ENDBRANCH   9  32
DOCKED: ENDBRANCH   5   9
DOCKED: ENDBRANCH   4   7
DOCKED: BRANCH   4  38
DOCKED: ATOM     38  C4  1OL C   4       8.170  -6.222   2.651 +0.00 +0.00    +0.024 C  
DOCKED: BRANCH  38  41
DOCKED: ATOM     39  C1  1OL C   4       8.072  -7.547   0.540 +0.00 +0.00    +0.000 C  
DOCKED: ATOM     40  C2  1OL C   4      10.294  -6.551   1.262 +0.00 +0.00    +0.000 C  
DOCKED: ATOM     41  C3  1OL C   4       8.749  -6.361   1.230 +0.00 +0.00    +0.002 C  
DOCKED: ENDBRANCH  38  41
DOCKED: ENDBRANCH   4  38
DOCKED: ENDBRANCH   1   4
DOCKED: BRANCH   1  42
DOCKED: ATOM     42  C7  1OL C   4       5.642  -8.840   2.495 +0.00 +0.00    +0.044 C  
DOCKED: BRANCH  42  43
DOCKED: ATOM     43  C8  1OL C   4       4.150  -8.593   2.252 +0.00 +0.00    +0.081 C  
DOCKED: ATOM     44  C9  1OL C   4       3.636  -9.484   1.120 +0.00 +0.00    +0.010 C  
DOCKED: BRANCH  43  45
DOCKED: ATOM     45  C   1OL C   4       3.374  -8.895   3.542 +0.00 +0.00    +0.241 C  
DOCKED: ATOM     46  O   1OL C   4       2.996  -7.953   4.262 +0.00 -0.00    -0.273 OA 
DOCKED: ATOM     47  N   ALA C   5       3.112 -10.187   3.791 +0.00 -0.00    -0.198 N  
DOCKED: ATOM     48  H   ALA C   5       3.369 -10.857   3.116 +0.00 +0.00    +0.000 HD 
DOCKED: BRANCH  47  49
DOCKED: ATOM     49  CA  ALA C   5       2.460 -10.650   5.019 +0.00 +0.00    +0.173 C  
DOCKED: ATOM     50  CB  ALA C   5       1.635 -11.888   4.762 +0.00 +0.00    +0.033 C  
DOCKED: BRANCH  49  51
DOCKED: ATOM     51  C   ALA C   5       3.630 -10.928   5.949 +0.00 +0.00    +0.262 C  
DOCKED: ATOM     52  O   ALA C   5       3.623 -11.904   6.755 +0.00 -0.00    -0.271 OA 
DOCKED: ATOM     53  N   GLU C   6       4.620  -9.946   5.935 +0.00 -0.00    -0.196 N  
DOCKED: ATOM     54  H   GLU C   6       4.380  -9.086   5.521 +0.00 +0.00    +0.000 HD 
DOCKED: BRANCH  53  55
DOCKED: ATOM     55  CA  GLU C   6       6.012 -10.061   6.483 +0.00 +0.00    +0.173 C  
DOCKED: BRANCH  55  56
DOCKED: ATOM     56  C   GLU C   6       7.214 -10.605   5.748 +0.00 +0.00    +0.262 C  
DOCKED: ATOM     57  O   GLU C   6       7.465 -11.745   5.385 +0.00 -0.00    -0.271 OA 
DOCKED: ATOM     58  N   PHE C   7       7.880  -9.389   5.623 +0.00 -0.00    -0.194 N  
DOCKED: ATOM     59  H   PHE C   7       7.304  -8.724   6.067 +0.00 +0.00    +0.000 HD 
DOCKED: BRANCH  58  60
DOCKED: ATOM     60  CA  PHE C   7       9.060  -8.630   5.129 +0.00 +0.00    +0.202 C  
DOCKED: BRANCH  60  61
DOCKED: ATOM     61  C   PHE C   7       9.001  -7.117   5.406 +0.00 +0.00    +0.385 C  
DOCKED: ATOM     62  O   PHE C   7       9.942  -6.309   5.174 +0.00 -0.00    -0.244 OA 
DOCKED: BRANCH  61  63
DOCKED: ATOM     63  OXT PHE C   7       7.927  -6.574   5.794 +0.00 -0.00    -0.244 OA 
DOCKED: ATOM     64  H   PHE C   7       7.149  -7.088   5.885 +0.00 +0.00    +0.000 HD 
DOCKED: ENDBRANCH  61  63
DOCKED: ENDBRANCH  60  61
DOCKED: BRANCH  60  65
DOCKED: ATOM     65  CB  PHE C   7       9.332  -8.958   3.690 +0.00 +0.00    +0.060 C  
DOCKED: BRANCH  65  66
DOCKED: ATOM     66  CG  PHE C   7       9.601 -10.392   3.635 +0.00 -0.00    -0.020 A  
DOCKED: ATOM     67  CD1 PHE C   7      10.502 -10.927   4.540 +0.00 -0.00    -0.004 A  
DOCKED: ATOM     68  CD2 PHE C   7       8.979 -11.213   2.710 +0.00 -0.00    -0.004 A  
DOCKED: ATOM     69  CE1 PHE C   7      10.794 -12.286   4.526 +0.00 -0.00    -0.000 A  
DOCKED: ATOM     70  CE2 PHE C   7       9.235 -12.571   2.699 +0.00 -0.00    -0.000 A  
DOCKED: ATOM     71  CZ  PHE C   7      10.144 -13.098   3.607 +0.00 -0.00    -0.000 A  
DOCKED: ENDBRANCH  65  66
DOCKED: ENDBRANCH  60  65
DOCKED: ENDBRANCH  58  60
DOCKED: ENDBRANCH  55  56
DOCKED: BRANCH  55  72
DOCKED: ATOM     72  CB  GLU C   6       5.960 -10.516   7.948 +0.00 +0.00    +0.043 C  
DOCKED: BRANCH  72  73
DOCKED: ATOM     73  CG  GLU C   6       6.546  -9.429   8.859 +0.00 +0.00    +0.116 C  
DOCKED: BRANCH  73  74
DOCKED: ATOM     74  CD  GLU C   6       7.216  -8.267   8.116 +0.00 +0.00    +0.365 C  
DOCKED: ATOM     75  OE1 GLU C   6       8.464  -8.221   8.092 +0.00 -0.00    -0.246 OA 
DOCKED: BRANCH  74  76
DOCKED: ATOM     76  OE2 GLU C   6       6.485  -7.415   7.551 +0.00 -0.00    -0.246 OA 
DOCKED: ATOM     77  H   GLU C   6       6.194  -7.557   6.672 +0.00 +0.00    +0.000 HD 
DOCKED: ENDBRANCH  74  76
DOCKED: ENDBRANCH  73  74
DOCKED: ENDBRANCH  72  73
DOCKED: ENDBRANCH  55  72
DOCKED: ENDBRANCH  53  55
DOCKED: ENDBRANCH  49  51
DOCKED: ENDBRANCH  47  49
DOCKED: ENDBRANCH  43  45
DOCKED: ENDBRANCH  42  43
DOCKED: ENDBRANCH   1  42
DOCKED: TORSDOF 34
DOCKED: TER
DOCKED: ENDMDL
________________________________________________________________________________


    FINAL DOCKED STATE:
    ________________________


Run:   18 / 20
Time taken for this run:   5.932s

DOCKED: MODEL        18
DOCKED: USER    Run = 18
DOCKED: USER
DOCKED: USER    Estimated Free Energy of Binding    = +10.14 kcal/mol  [=(1)+(2)+(3)-(4)]
DOCKED: USER
DOCKED: USER    (1) Final Intermolecular Energy     =  +0.00 kcal/mol
DOCKED: USER        vdW + Hbond + desolv Energy     =  +0.00 kcal/mol
DOCKED: USER        Electrostatic Energy            =  +0.00 kcal/mol
DOCKED: USER        Moving Ligand-Fixed Receptor    =  +0.00 kcal/mol
DOCKED: USER        Moving Ligand-Moving Receptor   =  +0.00 kcal/mol
DOCKED: USER    (2) Final Total Internal Energy     = -32.29 kcal/mol
DOCKED: USER    (3) Torsional Free Energy           = +10.14 kcal/mol
DOCKED: USER    (4) Unbound System's Energy         = -32.29 kcal/mol
DOCKED: USER
DOCKED: USER
DOCKED: REMARK  Name = ligand_ref.pdb
DOCKED: REMARK  40 active torsions:
DOCKED: REMARK  status: ('A' for Active; 'I' for Inactive)
DOCKED: REMARK    1  A    between atoms: N_1  and  CA_2
DOCKED: REMARK    2  A    between atoms: CA_2  and  C_3
DOCKED: REMARK    3  A    between atoms: CA_2  and  CB_5
DOCKED: REMARK    4  A    between atoms: CB_5  and  CG_6
DOCKED: REMARK    5  A    between atoms: CG_6  and  CD_7
DOCKED: REMARK    6  A    between atoms: CD_7  and  OE2_9
DOCKED: REMARK    7  A    between atoms: N_10  and  CA_11
DOCKED: REMARK    8  A    between atoms: CA_11  and  C_12
DOCKED: REMARK    9  A    between atoms: CA_11  and  CB_14
DOCKED: REMARK   10  A    between atoms: CB_14  and  CG1_15
DOCKED: REMARK   11  A    between atoms: CB_14  and  CG2_16
DOCKED: REMARK   12  A    between atoms: N_17  and  CA_18
DOCKED: REMARK   13  A    between atoms: CA_18  and  C_19
DOCKED: REMARK   14  A    between atoms: CA_18  and  CB_21
DOCKED: REMARK   15  A    between atoms: CB_21  and  CG_22
DOCKED: REMARK   16  A    between atoms: N_25  and  CA_26
DOCKED: REMARK   17  A    between atoms: CA_26  and  C4_33
DOCKED: REMARK   18  A    between atoms: CA_26  and  C6_34
DOCKED: REMARK   19  A    between atoms: C_27  and  C8_36
DOCKED: REMARK   20  A    between atoms: C1_29  and  C3_32
DOCKED: REMARK   21  A    between atoms: O1_30  and  C6_34
DOCKED: REMARK   22  A    between atoms: C2_31  and  C3_32
DOCKED: REMARK   23  A    between atoms: C3_32  and  C4_33
DOCKED: REMARK   24  A    between atoms: C6_34  and  C7_35
DOCKED: REMARK   25  A    between atoms: C7_35  and  C8_36
DOCKED: REMARK   26  A    between atoms: C8_36  and  C9_37
DOCKED: REMARK   27  A    between atoms: N_38  and  CA_39
DOCKED: REMARK   28  A    between atoms: CA_39  and  C_40
DOCKED: REMARK   29  A    between atoms: CA_39  and  CB_42
DOCKED: REMARK   30  A    between atoms: N_43  and  CA_44
DOCKED: REMARK   31  A    between atoms: CA_44  and  C_45
DOCKED: REMARK   32  A    between atoms: CA_44  and  CB_47
DOCKED: REMARK   33  A    between atoms: CB_47  and  CG_48
DOCKED: REMARK   34  A    between atoms: CG_48  and  CD_49
DOCKED: REMARK   35  A    between atoms: CD_49  and  OE2_51
DOCKED: REMARK   36  A    between atoms: N_52  and  CA_53
DOCKED: REMARK   37  A    between atoms: CA_53  and  C_54
DOCKED: REMARK   38  A    between atoms: CA_53  and  CB_56
DOCKED: REMARK   39  A    between atoms: C_54  and  OXT_63
DOCKED: REMARK   40  A    between atoms: CB_56  and  CG_57
DOCKED: REMARK                            x       y       z     vdW  Elec       q    Type
DOCKED: REMARK                         _______ _______ _______ _____ _____    ______ ____
DOCKED: USER                              x       y       z     vdW  Elec       q    Type
DOCKED: USER                           _______ _______ _______ _____ _____    ______ ____
DOCKED: ROOT
DOCKED: ATOM      1  C6  1OL C   4      11.018 -10.351  -0.943 +0.00 +0.00    +0.172 C  
DOCKED: ENDROOT
DOCKED: BRANCH   1   2
DOCKED: ATOM      2  O1  1OL C   4      10.523  -9.499   0.104 +0.00 -0.00    -0.221 OA 
DOCKED: ATOM      3  H   1OL C   4       9.928 -10.005   0.680 +0.00 +0.00    +0.000 HD 
DOCKED: ENDBRANCH   1   2
DOCKED: BRANCH   1   4
DOCKED: ATOM      4  CA  1OL C   4      10.414  -9.945  -2.303 +0.00 +0.00    +0.126 C  
DOCKED: BRANCH   4   7
DOCKED: ATOM      5  C   ASN C   3       8.484  -8.765  -3.209 +0.00 +0.00    +0.262 C  
DOCKED: ATOM      6  O   ASN C   3       8.746  -9.090  -4.374 +0.00 -0.00    -0.271 OA 
DOCKED: ATOM      7  N   1OL C   4       9.200  -9.155  -2.164 +0.00 -0.00    -0.203 N  
DOCKED: ATOM      8  H   1OL C   4       8.900  -8.901  -1.261 +0.00 +0.00    +0.000 HD 
DOCKED: BRANCH   5   9
DOCKED: ATOM      9  CA  ASN C   3       7.279  -7.902  -2.883 +0.00 +0.00    +0.182 C  
DOCKED: BRANCH   9  12
DOCKED: ATOM     10  C   VAL C   2       5.847  -9.600  -1.889 +0.00 +0.00    +0.262 C  
DOCKED: ATOM     11  O   VAL C   2       5.521 -10.072  -2.990 +0.00 -0.00    -0.271 OA 
DOCKED: ATOM     12  N   ASN C   3       6.631  -8.538  -1.755 +0.00 -0.00    -0.196 N  
DOCKED: ATOM     13  H   ASN C   3       6.779  -8.169  -0.855 +0.00 +0.00    +0.000 HD 
DOCKED: BRANCH  10  14
DOCKED: ATOM     14  CA  VAL C   2       5.303 -10.159  -0.600 +0.00 +0.00    +0.173 C  
DOCKED: BRANCH  14  17
DOCKED: ATOM     15  C   GLU C   1       6.288 -10.874   1.482 +0.00 +0.00    +0.259 C  
DOCKED: ATOM     16  O   GLU C   1       5.234 -11.397   1.824 +0.00 -0.00    -0.272 OA 
DOCKED: ATOM     17  N   VAL C   2       6.403 -10.204   0.346 +0.00 -0.00    -0.197 N  
DOCKED: ATOM     18  H   VAL C   2       7.242  -9.730   0.141 +0.00 +0.00    +0.000 HD 
DOCKED: BRANCH  15  19
DOCKED: ATOM     19  CA  GLU C   1       7.527 -10.945   2.391 +0.00 +0.00    +0.170 C  
DOCKED: BRANCH  19  20
DOCKED: ATOM     20  N   GLU C   1       8.782 -10.813   1.584 +0.00 -0.00    -0.123 NA 
DOCKED: ATOM     21  H   GLU C   1       9.399 -10.130   2.024 +0.00 +0.00    +0.000 HD 
DOCKED: ATOM     22  H   GLU C   1       8.549 -10.504   0.641 +0.00 +0.00    +0.000 HD 
DOCKED: ENDBRANCH  19  20
DOCKED: BRANCH  19  23
DOCKED: ATOM     23  CB  GLU C   1       7.430  -9.815   3.424 +0.00 +0.00    +0.040 C  
DOCKED: BRANCH  23  24
DOCKED: ATOM     24  CG  GLU C   1       6.932  -8.486   2.834 +0.00 +0.00    +0.116 C  
DOCKED: BRANCH  24  25
DOCKED: ATOM     25  CD  GLU C   1       7.954  -7.793   1.949 +0.00 +0.00    +0.365 C  
DOCKED: ATOM     26  OE1 GLU C   1       8.247  -6.599   2.208 +0.00 -0.00    -0.246 OA 
DOCKED: BRANCH  25  27
DOCKED: ATOM     27  OE2 GLU C   1       8.457  -8.423   0.992 +0.00 -0.00    -0.246 OA 
DOCKED: ATOM     28  H   GLU C   1       9.321  -8.777   1.066 +0.00 +0.00    +0.000 HD 
DOCKED: ENDBRANCH  25  27
DOCKED: ENDBRANCH  24  25
DOCKED: ENDBRANCH  23  24
DOCKED: ENDBRANCH  19  23
DOCKED: ENDBRANCH  15  19
DOCKED: ENDBRANCH  14  17
DOCKED: BRANCH  14  29
DOCKED: ATOM     29  CB  VAL C   2       4.095  -9.284  -0.134 +0.00 +0.00    +0.029 C  
DOCKED: ATOM     30  CG1 VAL C   2       4.616  -7.976   0.512 +0.00 +0.00    +0.002 C  
DOCKED: ATOM     31  CG2 VAL C   2       3.139  -8.994  -1.308 +0.00 +0.00    +0.002 C  
DOCKED: ENDBRANCH  14  29
DOCKED: ENDBRANCH  10  14
DOCKED: ENDBRANCH   9  12
DOCKED: BRANCH   9  32
DOCKED: ATOM     32  CB  ASN C   3       7.712  -6.482  -2.516 +0.00 +0.00    +0.120 C  
DOCKED: BRANCH  32  33
DOCKED: ATOM     33  CG  ASN C   3       7.953  -6.329  -1.030 +0.00 +0.00    +0.263 C  
DOCKED: ATOM     34  ND2 ASN C   3       9.205  -6.553  -0.591 +0.00 -0.00    -0.088 N  
DOCKED: ATOM     35  OD1 ASN C   3       7.028  -6.027  -0.286 +0.00 -0.00    -0.272 OA 
DOCKED: ATOM     36  H   ASN C   3       9.915  -6.793  -1.229 +0.00 +0.00    +0.000 HD 
DOCKED: ATOM     37  H   ASN C   3       9.411  -6.477   0.369 +0.00 +0.00    +0.000 HD 
DOCKED: ENDBRANCH  32  33
DOCKED: ENDBRANCH   9  32
DOCKED: ENDBRANCH   5   9
DOCKED: ENDBRANCH   4   7
DOCKED: BRANCH   4  38
DOCKED: ATOM     38  C4  1OL C   4      11.419  -9.133  -3.142 +0.00 +0.00    +0.024 C  
DOCKED: BRANCH  38  41
DOCKED: ATOM     39  C1  1OL C   4      10.868  -6.725  -3.494 +0.00 +0.00    +0.000 C  
DOCKED: ATOM     40  C2  1OL C   4      13.097  -7.333  -2.438 +0.00 +0.00    +0.000 C  
DOCKED: ATOM     41  C3  1OL C   4      11.593  -7.710  -2.574 +0.00 +0.00    +0.002 C  
DOCKED: ENDBRANCH  38  41
DOCKED: ENDBRANCH   4  38
DOCKED: ENDBRANCH   1   4
DOCKED: BRANCH   1  42
DOCKED: ATOM     42  C7  1OL C   4      10.711 -11.823  -0.607 +0.00 +0.00    +0.044 C  
DOCKED: BRANCH  42  43
DOCKED: ATOM     43  C8  1OL C   4      11.807 -12.562   0.166 +0.00 +0.00    +0.081 C  
DOCKED: ATOM     44  C9  1OL C   4      12.107 -13.912  -0.487 +0.00 +0.00    +0.010 C  
DOCKED: BRANCH  43  45
DOCKED: ATOM     45  C   1OL C   4      13.078 -11.701   0.182 +0.00 +0.00    +0.241 C  
DOCKED: ATOM     46  O   1OL C   4      14.060 -12.047  -0.499 +0.00 -0.00    -0.273 OA 
DOCKED: ATOM     47  N   ALA C   5      13.029 -10.578   0.916 +0.00 -0.00    -0.198 N  
DOCKED: ATOM     48  H   ALA C   5      12.177 -10.336   1.347 +0.00 +0.00    +0.000 HD 
DOCKED: BRANCH  47  49
DOCKED: ATOM     49  CA  ALA C   5      14.181  -9.694   1.108 +0.00 +0.00    +0.173 C  
DOCKED: ATOM     50  CB  ALA C   5      14.386  -8.801  -0.092 +0.00 +0.00    +0.033 C  
DOCKED: BRANCH  49  51
DOCKED: ATOM     51  C   ALA C   5      13.809  -8.902   2.351 +0.00 +0.00    +0.262 C  
DOCKED: ATOM     52  O   ALA C   5      13.571  -9.470   3.456 +0.00 -0.00    -0.271 OA 
DOCKED: ATOM     53  N   GLU C   6      13.614  -7.540   2.126 +0.00 -0.00    -0.196 N  
DOCKED: ATOM     54  H   GLU C   6      13.510  -7.260   1.188 +0.00 +0.00    +0.000 HD 
DOCKED: BRANCH  53  55
DOCKED: ATOM     55  CA  GLU C   6      13.547  -6.455   3.161 +0.00 +0.00    +0.173 C  
DOCKED: BRANCH  55  56
DOCKED: ATOM     56  C   GLU C   6      12.953  -6.583   4.544 +0.00 +0.00    +0.262 C  
DOCKED: ATOM     57  O   GLU C   6      13.239  -5.999   5.579 +0.00 -0.00    -0.271 OA 
DOCKED: ATOM     58  N   PHE C   7      11.998  -7.540   4.212 +0.00 -0.00    -0.194 N  
DOCKED: ATOM     59  H   PHE C   7      12.128  -7.724   3.254 +0.00 +0.00    +0.000 HD 
DOCKED: BRANCH  58  60
DOCKED: ATOM     60  CA  PHE C   7      10.872  -8.413   4.639 +0.00 +0.00    +0.202 C  
DOCKED: BRANCH  60  61
DOCKED: ATOM     61  C   PHE C   7      10.622  -9.619   3.715 +0.00 +0.00    +0.385 C  
DOCKED: ATOM     62  O   PHE C   7      10.061 -10.691   4.074 +0.00 -0.00    -0.244 OA 
DOCKED: BRANCH  61  63
DOCKED: ATOM     63  OXT PHE C   7      10.878  -9.548   2.479 +0.00 -0.00    -0.244 OA 
DOCKED: ATOM     64  H   PHE C   7      10.228  -9.231   1.883 +0.00 +0.00    +0.000 HD 
DOCKED: ENDBRANCH  61  63
DOCKED: ENDBRANCH  60  61
DOCKED: BRANCH  60  65
DOCKED: ATOM     65  CB  PHE C   7       9.639  -7.596   4.893 +0.00 +0.00    +0.060 C  
DOCKED: BRANCH  65  66
DOCKED: ATOM     66  CG  PHE C   7      10.058  -6.451   5.696 +0.00 -0.00    -0.020 A  
DOCKED: ATOM     67  CD1 PHE C   7       9.981  -5.189   5.131 +0.00 -0.00    -0.004 A  
DOCKED: ATOM     68  CD2 PHE C   7      10.524  -6.603   6.991 +0.00 -0.00    -0.004 A  
DOCKED: ATOM     69  CE1 PHE C   7      10.371  -4.068   5.855 +0.00 -0.00    -0.000 A  
DOCKED: ATOM     70  CE2 PHE C   7      10.889  -5.498   7.735 +0.00 -0.00    -0.000 A  
DOCKED: ATOM     71  CZ  PHE C   7      10.812  -4.236   7.160 +0.00 -0.00    -0.000 A  
DOCKED: ENDBRANCH  65  66
DOCKED: ENDBRANCH  60  65
DOCKED: ENDBRANCH  58  60
DOCKED: ENDBRANCH  55  56
DOCKED: BRANCH  55  72
DOCKED: ATOM     72  CB  GLU C   6      13.204  -5.117   2.492 +0.00 +0.00    +0.043 C  
DOCKED: BRANCH  72  73
DOCKED: ATOM     73  CG  GLU C   6      11.743  -5.121   2.022 +0.00 +0.00    +0.116 C  
DOCKED: BRANCH  73  74
DOCKED: ATOM     74  CD  GLU C   6      11.319  -6.387   1.268 +0.00 +0.00    +0.365 C  
DOCKED: ATOM     75  OE1 GLU C   6      11.667  -6.510   0.075 +0.00 -0.00    -0.246 OA 
DOCKED: BRANCH  74  76
DOCKED: ATOM     76  OE2 GLU C   6      10.650  -7.256   1.882 +0.00 -0.00    -0.246 OA 
DOCKED: ATOM     77  H   GLU C   6      10.082  -7.831   1.409 +0.00 +0.00    +0.000 HD 
DOCKED: ENDBRANCH  74  76
DOCKED: ENDBRANCH  73  74
DOCKED: ENDBRANCH  72  73
DOCKED: ENDBRANCH  55  72
DOCKED: ENDBRANCH  53  55
DOCKED: ENDBRANCH  49  51
DOCKED: ENDBRANCH  47  49
DOCKED: ENDBRANCH  43  45
DOCKED: ENDBRANCH  42  43
DOCKED: ENDBRANCH   1  42
DOCKED: TORSDOF 34
DOCKED: TER
DOCKED: ENDMDL
________________________________________________________________________________


    FINAL DOCKED STATE:
    ________________________


Run:   19 / 20
Time taken for this run:   5.932s

DOCKED: MODEL        19
DOCKED: USER    Run = 19
DOCKED: USER
DOCKED: USER    Estimated Free Energy of Binding    = +10.14 kcal/mol  [=(1)+(2)+(3)-(4)]
DOCKED: USER
DOCKED: USER    (1) Final Intermolecular Energy     =  +0.00 kcal/mol
DOCKED: USER        vdW + Hbond + desolv Energy     =  +0.00 kcal/mol
DOCKED: USER        Electrostatic Energy            =  +0.00 kcal/mol
DOCKED: USER        Moving Ligand-Fixed Receptor    =  +0.00 kcal/mol
DOCKED: USER        Moving Ligand-Moving Receptor   =  +0.00 kcal/mol
DOCKED: USER    (2) Final Total Internal Energy     = -32.98 kcal/mol
DOCKED: USER    (3) Torsional Free Energy           = +10.14 kcal/mol
DOCKED: USER    (4) Unbound System's Energy         = -32.98 kcal/mol
DOCKED: USER
DOCKED: USER
DOCKED: REMARK  Name = ligand_ref.pdb
DOCKED: REMARK  40 active torsions:
DOCKED: REMARK  status: ('A' for Active; 'I' for Inactive)
DOCKED: REMARK    1  A    between atoms: N_1  and  CA_2
DOCKED: REMARK    2  A    between atoms: CA_2  and  C_3
DOCKED: REMARK    3  A    between atoms: CA_2  and  CB_5
DOCKED: REMARK    4  A    between atoms: CB_5  and  CG_6
DOCKED: REMARK    5  A    between atoms: CG_6  and  CD_7
DOCKED: REMARK    6  A    between atoms: CD_7  and  OE2_9
DOCKED: REMARK    7  A    between atoms: N_10  and  CA_11
DOCKED: REMARK    8  A    between atoms: CA_11  and  C_12
DOCKED: REMARK    9  A    between atoms: CA_11  and  CB_14
DOCKED: REMARK   10  A    between atoms: CB_14  and  CG1_15
DOCKED: REMARK   11  A    between atoms: CB_14  and  CG2_16
DOCKED: REMARK   12  A    between atoms: N_17  and  CA_18
DOCKED: REMARK   13  A    between atoms: CA_18  and  C_19
DOCKED: REMARK   14  A    between atoms: CA_18  and  CB_21
DOCKED: REMARK   15  A    between atoms: CB_21  and  CG_22
DOCKED: REMARK   16  A    between atoms: N_25  and  CA_26
DOCKED: REMARK   17  A    between atoms: CA_26  and  C4_33
DOCKED: REMARK   18  A    between atoms: CA_26  and  C6_34
DOCKED: REMARK   19  A    between atoms: C_27  and  C8_36
DOCKED: REMARK   20  A    between atoms: C1_29  and  C3_32
DOCKED: REMARK   21  A    between atoms: O1_30  and  C6_34
DOCKED: REMARK   22  A    between atoms: C2_31  and  C3_32
DOCKED: REMARK   23  A    between atoms: C3_32  and  C4_33
DOCKED: REMARK   24  A    between atoms: C6_34  and  C7_35
DOCKED: REMARK   25  A    between atoms: C7_35  and  C8_36
DOCKED: REMARK   26  A    between atoms: C8_36  and  C9_37
DOCKED: REMARK   27  A    between atoms: N_38  and  CA_39
DOCKED: REMARK   28  A    between atoms: CA_39  and  C_40
DOCKED: REMARK   29  A    between atoms: CA_39  and  CB_42
DOCKED: REMARK   30  A    between atoms: N_43  and  CA_44
DOCKED: REMARK   31  A    between atoms: CA_44  and  C_45
DOCKED: REMARK   32  A    between atoms: CA_44  and  CB_47
DOCKED: REMARK   33  A    between atoms: CB_47  and  CG_48
DOCKED: REMARK   34  A    between atoms: CG_48  and  CD_49
DOCKED: REMARK   35  A    between atoms: CD_49  and  OE2_51
DOCKED: REMARK   36  A    between atoms: N_52  and  CA_53
DOCKED: REMARK   37  A    between atoms: CA_53  and  C_54
DOCKED: REMARK   38  A    between atoms: CA_53  and  CB_56
DOCKED: REMARK   39  A    between atoms: C_54  and  OXT_63
DOCKED: REMARK   40  A    between atoms: CB_56  and  CG_57
DOCKED: REMARK                            x       y       z     vdW  Elec       q    Type
DOCKED: REMARK                         _______ _______ _______ _____ _____    ______ ____
DOCKED: USER                              x       y       z     vdW  Elec       q    Type
DOCKED: USER                           _______ _______ _______ _____ _____    ______ ____
DOCKED: ROOT
DOCKED: ATOM      1  C6  1OL C   4       4.467  -7.838  -2.482 +0.00 +0.00    +0.172 C  
DOCKED: ENDROOT
DOCKED: BRANCH   1   2
DOCKED: ATOM      2  O1  1OL C   4       5.690  -7.613  -1.759 +0.00 -0.00    -0.221 OA 
DOCKED: ATOM      3  H   1OL C   4       6.116  -6.806  -2.089 +0.00 +0.00    +0.000 HD 
DOCKED: ENDBRANCH   1   2
DOCKED: BRANCH   1   4
DOCKED: ATOM      4  CA  1OL C   4       4.494  -7.099  -3.835 +0.00 +0.00    +0.126 C  
DOCKED: BRANCH   4   7
DOCKED: ATOM      5  C   ASN C   3       5.748  -7.175  -5.923 +0.00 +0.00    +0.262 C  
DOCKED: ATOM      6  O   ASN C   3       4.845  -6.623  -6.565 +0.00 -0.00    -0.271 OA 
DOCKED: ATOM      7  N   1OL C   4       5.679  -7.407  -4.619 +0.00 -0.00    -0.203 N  
DOCKED: ATOM      8  H   1OL C   4       6.459  -7.803  -4.166 +0.00 +0.00    +0.000 HD 
DOCKED: BRANCH   5   9
DOCKED: ATOM      9  CA  ASN C   3       7.039  -7.609  -6.592 +0.00 +0.00    +0.182 C  
DOCKED: BRANCH   9  12
DOCKED: ATOM     10  C   VAL C   2       9.012  -6.312  -6.005 +0.00 +0.00    +0.262 C  
DOCKED: ATOM     11  O   VAL C   2       9.094  -5.794  -7.131 +0.00 -0.00    -0.271 OA 
DOCKED: ATOM     12  N   ASN C   3       8.101  -7.222  -5.687 +0.00 -0.00    -0.196 N  
DOCKED: ATOM     13  H   ASN C   3       8.149  -7.651  -4.803 +0.00 +0.00    +0.000 HD 
DOCKED: BRANCH  10  14
DOCKED: ATOM     14  CA  VAL C   2      10.009  -5.998  -4.919 +0.00 +0.00    +0.173 C  
DOCKED: BRANCH  14  17
DOCKED: ATOM     15  C   GLU C   1       8.315  -5.137  -3.433 +0.00 +0.00    +0.259 C  
DOCKED: ATOM     16  O   GLU C   1       7.667  -6.171  -3.541 +0.00 -0.00    -0.272 OA 
DOCKED: ATOM     17  N   VAL C   2       9.438  -4.940  -4.106 +0.00 -0.00    -0.197 N  
DOCKED: ATOM     18  H   VAL C   2       9.891  -4.066  -4.055 +0.00 +0.00    +0.000 HD 
DOCKED: BRANCH  15  19
DOCKED: ATOM     19  CA  GLU C   1       7.822  -3.996  -2.529 +0.00 +0.00    +0.170 C  
DOCKED: BRANCH  19  20
DOCKED: ATOM     20  N   GLU C   1       6.558  -4.387  -1.826 +0.00 -0.00    -0.123 NA 
DOCKED: ATOM     21  H   GLU C   1       6.651  -4.197  -0.828 +0.00 +0.00    +0.000 HD 
DOCKED: ATOM     22  H   GLU C   1       6.385  -5.382  -1.968 +0.00 +0.00    +0.000 HD 
DOCKED: ENDBRANCH  19  20
DOCKED: BRANCH  19  23
DOCKED: ATOM     23  CB  GLU C   1       8.925  -3.676  -1.513 +0.00 +0.00    +0.040 C  
DOCKED: BRANCH  23  24
DOCKED: ATOM     24  CG  GLU C   1       9.465  -4.916  -0.783 +0.00 +0.00    +0.116 C  
DOCKED: BRANCH  24  25
DOCKED: ATOM     25  CD  GLU C   1       8.376  -5.791  -0.187 +0.00 +0.00    +0.365 C  
DOCKED: ATOM     26  OE1 GLU C   1       8.044  -5.591   1.009 +0.00 -0.00    -0.246 OA 
DOCKED: BRANCH  25  27
DOCKED: ATOM     27  OE2 GLU C   1       7.858  -6.685  -0.894 +0.00 -0.00    -0.246 OA 
DOCKED: ATOM     28  H   GLU C   1       7.194  -6.465  -1.516 +0.00 +0.00    +0.000 HD 
DOCKED: ENDBRANCH  25  27
DOCKED: ENDBRANCH  24  25
DOCKED: ENDBRANCH  23  24
DOCKED: ENDBRANCH  19  23
DOCKED: ENDBRANCH  15  19
DOCKED: ENDBRANCH  14  17
DOCKED: BRANCH  14  29
DOCKED: ATOM     29  CB  VAL C   2      10.331  -7.307  -4.129 +0.00 +0.00    +0.029 C  
DOCKED: ATOM     30  CG1 VAL C   2      11.128  -8.281  -5.034 +0.00 +0.00    +0.002 C  
DOCKED: ATOM     31  CG2 VAL C   2      11.092  -6.993  -2.827 +0.00 +0.00    +0.002 C  
DOCKED: ENDBRANCH  14  29
DOCKED: ENDBRANCH  10  14
DOCKED: ENDBRANCH   9  12
DOCKED: BRANCH   9  32
DOCKED: ATOM     32  CB  ASN C   3       7.054  -9.122  -6.813 +0.00 +0.00    +0.120 C  
DOCKED: BRANCH  32  33
DOCKED: ATOM     33  CG  ASN C   3       8.291  -9.769  -6.228 +0.00 +0.00    +0.263 C  
DOCKED: ATOM     34  ND2 ASN C   3       8.311  -9.949  -4.895 +0.00 -0.00    -0.088 N  
DOCKED: ATOM     35  OD1 ASN C   3       9.219 -10.090  -6.960 +0.00 -0.00    -0.272 OA 
DOCKED: ATOM     36  H   ASN C   3       7.539  -9.674  -4.349 +0.00 +0.00    +0.000 HD 
DOCKED: ATOM     37  H   ASN C   3       9.098 -10.355  -4.465 +0.00 +0.00    +0.000 HD 
DOCKED: ENDBRANCH  32  33
DOCKED: ENDBRANCH   9  32
DOCKED: ENDBRANCH   5   9
DOCKED: ENDBRANCH   4   7
DOCKED: BRANCH   4  38
DOCKED: ATOM     38  C4  1OL C   4       3.256  -7.441  -4.686 +0.00 +0.00    +0.024 C  
DOCKED: BRANCH  38  41
DOCKED: ATOM     39  C1  1OL C   4       3.161  -9.559  -6.001 +0.00 +0.00    +0.000 C  
DOCKED: ATOM     40  C2  1OL C   4       1.476  -9.196  -4.136 +0.00 +0.00    +0.000 C  
DOCKED: ATOM     41  C3  1OL C   4       2.935  -8.947  -4.617 +0.00 +0.00    +0.002 C  
DOCKED: ENDBRANCH  38  41
DOCKED: ENDBRANCH   4  38
DOCKED: ENDBRANCH   1   4
DOCKED: BRANCH   1  42
DOCKED: ATOM     42  C7  1OL C   4       3.265  -7.401  -1.624 +0.00 +0.00    +0.044 C  
DOCKED: BRANCH  42  43
DOCKED: ATOM     43  C8  1OL C   4       3.410  -6.039  -0.938 +0.00 +0.00    +0.081 C  
DOCKED: ATOM     44  C9  1OL C   4       2.083  -5.614  -0.305 +0.00 +0.00    +0.010 C  
DOCKED: BRANCH  43  45
DOCKED: ATOM     45  C   1OL C   4       4.493  -6.135   0.146 +0.00 +0.00    +0.241 C  
DOCKED: ATOM     46  O   1OL C   4       5.656  -5.783  -0.120 +0.00 -0.00    -0.273 OA 
DOCKED: ATOM     47  N   ALA C   5       4.093  -6.564   1.353 +0.00 -0.00    -0.198 N  
DOCKED: ATOM     48  H   ALA C   5       3.133  -6.732   1.497 +0.00 +0.00    +0.000 HD 
DOCKED: BRANCH  47  49
DOCKED: ATOM     49  CA  ALA C   5       5.015  -6.795   2.468 +0.00 +0.00    +0.173 C  
DOCKED: ATOM     50  CB  ALA C   5       4.290  -6.748   3.791 +0.00 +0.00    +0.033 C  
DOCKED: BRANCH  49  51
DOCKED: ATOM     51  C   ALA C   5       5.575  -8.178   2.174 +0.00 +0.00    +0.262 C  
DOCKED: ATOM     52  O   ALA C   5       5.344  -9.165   2.932 +0.00 -0.00    -0.271 OA 
DOCKED: ATOM     53  N   GLU C   6       6.465  -8.220   1.101 +0.00 -0.00    -0.196 N  
DOCKED: ATOM     54  H   GLU C   6       6.818  -7.356   0.789 +0.00 +0.00    +0.000 HD 
DOCKED: BRANCH  53  55
DOCKED: ATOM     55  CA  GLU C   6       6.942  -9.442   0.372 +0.00 +0.00    +0.173 C  
DOCKED: BRANCH  55  56
DOCKED: ATOM     56  C   GLU C   6       6.238 -10.777   0.321 +0.00 +0.00    +0.262 C  
DOCKED: ATOM     57  O   GLU C   6       6.139 -11.647   1.174 +0.00 -0.00    -0.271 OA 
DOCKED: ATOM     58  N   PHE C   7       5.751 -10.644  -0.977 +0.00 -0.00    -0.194 N  
DOCKED: ATOM     59  H   PHE C   7       6.079  -9.771  -1.294 +0.00 +0.00    +0.000 HD 
DOCKED: BRANCH  58  60
DOCKED: ATOM     60  CA  PHE C   7       4.966 -11.212  -2.104 +0.00 +0.00    +0.202 C  
DOCKED: BRANCH  60  61
DOCKED: ATOM     61  C   PHE C   7       5.493 -10.829  -3.499 +0.00 +0.00    +0.385 C  
DOCKED: ATOM     62  O   PHE C   7       5.341 -11.527  -4.539 +0.00 -0.00    -0.244 OA 
DOCKED: BRANCH  61  63
DOCKED: ATOM     63  OXT PHE C   7       6.030  -9.701  -3.698 +0.00 -0.00    -0.244 OA 
DOCKED: ATOM     64  H   PHE C   7       6.437  -9.245  -2.988 +0.00 +0.00    +0.000 HD 
DOCKED: ENDBRANCH  61  63
DOCKED: ENDBRANCH  60  61
DOCKED: BRANCH  60  65
DOCKED: ATOM     65  CB  PHE C   7       3.504 -10.926  -1.925 +0.00 +0.00    +0.060 C  
DOCKED: BRANCH  65  66
DOCKED: ATOM     66  CG  PHE C   7       3.231 -11.040  -0.495 +0.00 -0.00    -0.020 A  
DOCKED: ATOM     67  CD1 PHE C   7       2.916  -9.889   0.207 +0.00 -0.00    -0.004 A  
DOCKED: ATOM     68  CD2 PHE C   7       3.281 -12.258   0.159 +0.00 -0.00    -0.004 A  
DOCKED: ATOM     69  CE1 PHE C   7       2.651  -9.944   1.571 +0.00 -0.00    -0.000 A  
DOCKED: ATOM     70  CE2 PHE C   7       2.993 -12.338   1.508 +0.00 -0.00    -0.000 A  
DOCKED: ATOM     71  CZ  PHE C   7       2.682 -11.178   2.206 +0.00 -0.00    -0.000 A  
DOCKED: ENDBRANCH  65  66
DOCKED: ENDBRANCH  60  65
DOCKED: ENDBRANCH  58  60
DOCKED: ENDBRANCH  55  56
DOCKED: BRANCH  55  72
DOCKED: ATOM     72  CB  GLU C   6       8.462  -9.581   0.527 +0.00 +0.00    +0.043 C  
DOCKED: BRANCH  72  73
DOCKED: ATOM     73  CG  GLU C   6       9.166  -9.158  -0.769 +0.00 +0.00    +0.116 C  
DOCKED: BRANCH  73  74
DOCKED: ATOM     74  CD  GLU C   6       8.335  -9.361  -2.042 +0.00 +0.00    +0.365 C  
DOCKED: ATOM     75  OE1 GLU C   6       8.068 -10.529  -2.394 +0.00 -0.00    -0.246 OA 
DOCKED: BRANCH  74  76
DOCKED: ATOM     76  OE2 GLU C   6       7.945  -8.346  -2.673 +0.00 -0.00    -0.246 OA 
DOCKED: ATOM     77  H   GLU C   6       7.072  -8.028  -2.556 +0.00 +0.00    +0.000 HD 
DOCKED: ENDBRANCH  74  76
DOCKED: ENDBRANCH  73  74
DOCKED: ENDBRANCH  72  73
DOCKED: ENDBRANCH  55  72
DOCKED: ENDBRANCH  53  55
DOCKED: ENDBRANCH  49  51
DOCKED: ENDBRANCH  47  49
DOCKED: ENDBRANCH  43  45
DOCKED: ENDBRANCH  42  43
DOCKED: ENDBRANCH   1  42
DOCKED: TORSDOF 34
DOCKED: TER
DOCKED: ENDMDL
________________________________________________________________________________


    FINAL DOCKED STATE:
    ________________________


Run:   20 / 20
Time taken for this run:   5.932s

DOCKED: MODEL        20
DOCKED: USER    Run = 20
DOCKED: USER
DOCKED: USER    Estimated Free Energy of Binding    = +10.14 kcal/mol  [=(1)+(2)+(3)-(4)]
DOCKED: USER
DOCKED: USER    (1) Final Intermolecular Energy     =  +0.00 kcal/mol
DOCKED: USER        vdW + Hbond + desolv Energy     =  +0.00 kcal/mol
DOCKED: USER        Electrostatic Energy            =  +0.00 kcal/mol
DOCKED: USER        Moving Ligand-Fixed Receptor    =  +0.00 kcal/mol
DOCKED: USER        Moving Ligand-Moving Receptor   =  +0.00 kcal/mol
DOCKED: USER    (2) Final Total Internal Energy     = -33.57 kcal/mol
DOCKED: USER    (3) Torsional Free Energy           = +10.14 kcal/mol
DOCKED: USER    (4) Unbound System's Energy         = -33.57 kcal/mol
DOCKED: USER
DOCKED: USER
DOCKED: REMARK  Name = ligand_ref.pdb
DOCKED: REMARK  40 active torsions:
DOCKED: REMARK  status: ('A' for Active; 'I' for Inactive)
DOCKED: REMARK    1  A    between atoms: N_1  and  CA_2
DOCKED: REMARK    2  A    between atoms: CA_2  and  C_3
DOCKED: REMARK    3  A    between atoms: CA_2  and  CB_5
DOCKED: REMARK    4  A    between atoms: CB_5  and  CG_6
DOCKED: REMARK    5  A    between atoms: CG_6  and  CD_7
DOCKED: REMARK    6  A    between atoms: CD_7  and  OE2_9
DOCKED: REMARK    7  A    between atoms: N_10  and  CA_11
DOCKED: REMARK    8  A    between atoms: CA_11  and  C_12
DOCKED: REMARK    9  A    between atoms: CA_11  and  CB_14
DOCKED: REMARK   10  A    between atoms: CB_14  and  CG1_15
DOCKED: REMARK   11  A    between atoms: CB_14  and  CG2_16
DOCKED: REMARK   12  A    between atoms: N_17  and  CA_18
DOCKED: REMARK   13  A    between atoms: CA_18  and  C_19
DOCKED: REMARK   14  A    between atoms: CA_18  and  CB_21
DOCKED: REMARK   15  A    between atoms: CB_21  and  CG_22
DOCKED: REMARK   16  A    between atoms: N_25  and  CA_26
DOCKED: REMARK   17  A    between atoms: CA_26  and  C4_33
DOCKED: REMARK   18  A    between atoms: CA_26  and  C6_34
DOCKED: REMARK   19  A    between atoms: C_27  and  C8_36
DOCKED: REMARK   20  A    between atoms: C1_29  and  C3_32
DOCKED: REMARK   21  A    between atoms: O1_30  and  C6_34
DOCKED: REMARK   22  A    between atoms: C2_31  and  C3_32
DOCKED: REMARK   23  A    between atoms: C3_32  and  C4_33
DOCKED: REMARK   24  A    between atoms: C6_34  and  C7_35
DOCKED: REMARK   25  A    between atoms: C7_35  and  C8_36
DOCKED: REMARK   26  A    between atoms: C8_36  and  C9_37
DOCKED: REMARK   27  A    between atoms: N_38  and  CA_39
DOCKED: REMARK   28  A    between atoms: CA_39  and  C_40
DOCKED: REMARK   29  A    between atoms: CA_39  and  CB_42
DOCKED: REMARK   30  A    between atoms: N_43  and  CA_44
DOCKED: REMARK   31  A    between atoms: CA_44  and  C_45
DOCKED: REMARK   32  A    between atoms: CA_44  and  CB_47
DOCKED: REMARK   33  A    between atoms: CB_47  and  CG_48
DOCKED: REMARK   34  A    between atoms: CG_48  and  CD_49
DOCKED: REMARK   35  A    between atoms: CD_49  and  OE2_51
DOCKED: REMARK   36  A    between atoms: N_52  and  CA_53
DOCKED: REMARK   37  A    between atoms: CA_53  and  C_54
DOCKED: REMARK   38  A    between atoms: CA_53  and  CB_56
DOCKED: REMARK   39  A    between atoms: C_54  and  OXT_63
DOCKED: REMARK   40  A    between atoms: CB_56  and  CG_57
DOCKED: REMARK                            x       y       z     vdW  Elec       q    Type
DOCKED: REMARK                         _______ _______ _______ _____ _____    ______ ____
DOCKED: USER                              x       y       z     vdW  Elec       q    Type
DOCKED: USER                           _______ _______ _______ _____ _____    ______ ____
DOCKED: ROOT
DOCKED: ATOM      1  C6  1OL C   4       6.778  -6.166  -0.658 +0.00 +0.00    +0.172 C  
DOCKED: ENDROOT
DOCKED: BRANCH   1   2
DOCKED: ATOM      2  O1  1OL C   4       6.683  -4.733  -0.576 +0.00 -0.00    -0.221 OA 
DOCKED: ATOM      3  H   1OL C   4       7.195  -4.417   0.185 +0.00 +0.00    +0.000 HD 
DOCKED: ENDBRANCH   1   2
DOCKED: BRANCH   1   4
DOCKED: ATOM      4  CA  1OL C   4       7.290  -6.596  -2.047 +0.00 +0.00    +0.126 C  
DOCKED: BRANCH   4   7
DOCKED: ATOM      5  C   ASN C   3       7.063  -5.434  -4.176 +0.00 +0.00    +0.262 C  
DOCKED: ATOM      6  O   ASN C   3       6.349  -6.321  -4.662 +0.00 -0.00    -0.271 OA 
DOCKED: ATOM      7  N   1OL C   4       7.523  -5.467  -2.933 +0.00 -0.00    -0.203 N  
DOCKED: ATOM      8  H   1OL C   4       8.041  -4.700  -2.599 +0.00 +0.00    +0.000 HD 
DOCKED: BRANCH   5   9
DOCKED: ATOM      9  CA  ASN C   3       7.446  -4.204  -4.977 +0.00 +0.00    +0.182 C  
DOCKED: BRANCH   9  12
DOCKED: ATOM     10  C   VAL C   2       5.461  -2.843  -4.614 +0.00 +0.00    +0.262 C  
DOCKED: ATOM     11  O   VAL C   2       4.796  -3.459  -5.464 +0.00 -0.00    -0.271 OA 
DOCKED: ATOM     12  N   ASN C   3       6.739  -3.098  -4.365 +0.00 -0.00    -0.196 N  
DOCKED: ATOM     13  H   ASN C   3       7.225  -2.514  -3.739 +0.00 +0.00    +0.000 HD 
DOCKED: BRANCH  10  14
DOCKED: ATOM     14  CA  VAL C   2       4.879  -1.685  -3.846 +0.00 +0.00    +0.173 C  
DOCKED: BRANCH  14  17
DOCKED: ATOM     15  C   GLU C   1       4.750  -1.064  -1.519 +0.00 +0.00    +0.259 C  
DOCKED: ATOM     16  O   GLU C   1       4.130  -0.047  -1.804 +0.00 -0.00    -0.272 OA 
DOCKED: ATOM     17  N   VAL C   2       5.203  -1.893  -2.446 +0.00 -0.00    -0.197 N  
DOCKED: ATOM     18  H   VAL C   2       5.764  -2.659  -2.184 +0.00 +0.00    +0.000 HD 
DOCKED: BRANCH  15  19
DOCKED: ATOM     19  CA  GLU C   1       5.066  -1.401  -0.052 +0.00 +0.00    +0.170 C  
DOCKED: BRANCH  19  20
DOCKED: ATOM     20  N   GLU C   1       5.436  -2.846   0.090 +0.00 -0.00    -0.123 NA 
DOCKED: ATOM     21  H   GLU C   1       6.314  -2.923   0.604 +0.00 +0.00    +0.000 HD 
DOCKED: ATOM     22  H   GLU C   1       5.546  -3.261  -0.835 +0.00 +0.00    +0.000 HD 
DOCKED: ENDBRANCH  19  20
DOCKED: BRANCH  19  23
DOCKED: ATOM     23  CB  GLU C   1       6.218  -0.502   0.411 +0.00 +0.00    +0.040 C  
DOCKED: BRANCH  23  24
DOCKED: ATOM     24  CG  GLU C   1       7.306  -0.300  -0.657 +0.00 +0.00    +0.116 C  
DOCKED: BRANCH  24  25
DOCKED: ATOM     25  CD  GLU C   1       8.123  -1.550  -0.935 +0.00 +0.00    +0.365 C  
DOCKED: ATOM     26  OE1 GLU C   1       9.375  -1.466  -0.865 +0.00 -0.00    -0.246 OA 
DOCKED: BRANCH  25  27
DOCKED: ATOM     27  OE2 GLU C   1       7.530  -2.611  -1.237 +0.00 -0.00    -0.246 OA 
DOCKED: ATOM     28  H   GLU C   1       7.428  -3.289  -0.598 +0.00 +0.00    +0.000 HD 
DOCKED: ENDBRANCH  25  27
DOCKED: ENDBRANCH  24  25
DOCKED: ENDBRANCH  23  24
DOCKED: ENDBRANCH  19  23
DOCKED: ENDBRANCH  15  19
DOCKED: ENDBRANCH  14  17
DOCKED: BRANCH  14  29
DOCKED: ATOM     29  CB  VAL C   2       5.433  -0.350  -4.438 +0.00 +0.00    +0.029 C  
DOCKED: ATOM     30  CG1 VAL C   2       6.854  -0.082  -3.881 +0.00 +0.00    +0.002 C  
DOCKED: ATOM     31  CG2 VAL C   2       5.425  -0.384  -5.978 +0.00 +0.00    +0.002 C  
DOCKED: ENDBRANCH  14  29
DOCKED: ENDBRANCH  10  14
DOCKED: ENDBRANCH   9  12
DOCKED: BRANCH   9  32
DOCKED: ATOM     32  CB  ASN C   3       8.955  -3.967  -4.919 +0.00 +0.00    +0.120 C  
DOCKED: BRANCH  32  33
DOCKED: ATOM     33  CG  ASN C   3       9.292  -2.531  -4.581 +0.00 +0.00    +0.263 C  
DOCKED: ATOM     34  ND2 ASN C   3       9.374  -2.216  -3.275 +0.00 -0.00    -0.088 N  
DOCKED: ATOM     35  OD1 ASN C   3       9.462  -1.713  -5.477 +0.00 -0.00    -0.272 OA 
DOCKED: ATOM     36  H   ASN C   3       9.228  -2.910  -2.592 +0.00 +0.00    +0.000 HD 
DOCKED: ATOM     37  H   ASN C   3       9.579  -1.293  -3.003 +0.00 +0.00    +0.000 HD 
DOCKED: ENDBRANCH  32  33
DOCKED: ENDBRANCH   9  32
DOCKED: ENDBRANCH   5   9
DOCKED: ENDBRANCH   4   7
DOCKED: BRANCH   4  38
DOCKED: ATOM     38  C4  1OL C   4       8.602  -7.396  -1.937 +0.00 +0.00    +0.024 C  
DOCKED: BRANCH  38  41
DOCKED: ATOM     39  C1  1OL C   4       7.063  -9.318  -2.335 +0.00 +0.00    +0.000 C  
DOCKED: ATOM     40  C2  1OL C   4       8.161  -9.075  -0.057 +0.00 +0.00    +0.000 C  
DOCKED: ATOM     41  C3  1OL C   4       8.324  -8.872  -1.592 +0.00 +0.00    +0.002 C  
DOCKED: ENDBRANCH  38  41
DOCKED: ENDBRANCH   4  38
DOCKED: ENDBRANCH   1   4
DOCKED: BRANCH   1  42
DOCKED: ATOM     42  C7  1OL C   4       5.410  -6.798  -0.340 +0.00 +0.00    +0.044 C  
DOCKED: BRANCH  42  43
DOCKED: ATOM     43  C8  1OL C   4       4.803  -6.407   1.011 +0.00 +0.00    +0.081 C  
DOCKED: ATOM     44  C9  1OL C   4       4.133  -7.615   1.667 +0.00 +0.00    +0.010 C  
DOCKED: BRANCH  43  45
DOCKED: ATOM     45  C   1OL C   4       5.915  -5.873   1.924 +0.00 +0.00    +0.241 C  
DOCKED: ATOM     46  O   1OL C   4       6.085  -4.644   2.026 +0.00 -0.00    -0.273 OA 
DOCKED: ATOM     47  N   ALA C   5       6.622  -6.790   2.604 +0.00 -0.00    -0.198 N  
DOCKED: ATOM     48  H   ALA C   5       6.355  -7.735   2.532 +0.00 +0.00    +0.000 HD 
DOCKED: BRANCH  47  49
DOCKED: ATOM     49  CA  ALA C   5       7.771  -6.452   3.448 +0.00 +0.00    +0.173 C  
DOCKED: ATOM     50  CB  ALA C   5       8.578  -7.684   3.784 +0.00 +0.00    +0.033 C  
DOCKED: BRANCH  49  51
DOCKED: ATOM     51  C   ALA C   5       8.556  -5.473   2.590 +0.00 +0.00    +0.262 C  
DOCKED: ATOM     52  O   ALA C   5       8.560  -5.548   1.327 +0.00 -0.00    -0.271 OA 
DOCKED: ATOM     53  N   GLU C   6       9.368  -4.601   3.314 +0.00 -0.00    -0.196 N  
DOCKED: ATOM     54  H   GLU C   6       9.535  -4.835   4.255 +0.00 +0.00    +0.000 HD 
DOCKED: BRANCH  53  55
DOCKED: ATOM     55  CA  GLU C   6      10.014  -3.343   2.811 +0.00 +0.00    +0.173 C  
DOCKED: BRANCH  55  56
DOCKED: ATOM     56  C   GLU C   6      11.378  -3.241   2.170 +0.00 +0.00    +0.262 C  
DOCKED: ATOM     57  O   GLU C   6      12.453  -2.916   2.655 +0.00 -0.00    -0.271 OA 
DOCKED: ATOM     58  N   PHE C   7      10.983  -3.653   0.901 +0.00 -0.00    -0.194 N  
DOCKED: ATOM     59  H   PHE C   7      10.013  -3.814   0.965 +0.00 +0.00    +0.000 HD 
DOCKED: BRANCH  58  60
DOCKED: ATOM     60  CA  PHE C   7      11.349  -3.962  -0.506 +0.00 +0.00    +0.202 C  
DOCKED: BRANCH  60  61
DOCKED: ATOM     61  C   PHE C   7      10.160  -4.371  -1.395 +0.00 +0.00    +0.385 C  
DOCKED: ATOM     62  O   PHE C   7      10.262  -4.797  -2.578 +0.00 -0.00    -0.244 OA 
DOCKED: BRANCH  61  63
DOCKED: ATOM     63  OXT PHE C   7       8.985  -4.402  -0.926 +0.00 -0.00    -0.244 OA 
DOCKED: ATOM     64  H   PHE C   7       8.782  -3.930  -0.142 +0.00 +0.00    +0.000 HD 
DOCKED: ENDBRANCH  61  63
DOCKED: ENDBRANCH  60  61
DOCKED: BRANCH  60  65
DOCKED: ATOM     65  CB  PHE C   7      12.485  -4.941  -0.552 +0.00 +0.00    +0.060 C  
DOCKED: BRANCH  65  66
DOCKED: ATOM     66  CG  PHE C   7      12.189  -5.968   0.442 +0.00 -0.00    -0.020 A  
DOCKED: ATOM     67  CD1 PHE C   7      12.961  -6.013   1.590 +0.00 -0.00    -0.004 A  
DOCKED: ATOM     68  CD2 PHE C   7      11.166  -6.883   0.259 +0.00 -0.00    -0.004 A  
DOCKED: ATOM     69  CE1 PHE C   7      12.721  -6.974   2.566 +0.00 -0.00    -0.000 A  
DOCKED: ATOM     70  CE2 PHE C   7      10.893  -7.827   1.231 +0.00 -0.00    -0.000 A  
DOCKED: ATOM     71  CZ  PHE C   7      11.675  -7.868   2.377 +0.00 -0.00    -0.000 A  
DOCKED: ENDBRANCH  65  66
DOCKED: ENDBRANCH  60  65
DOCKED: ENDBRANCH  58  60
DOCKED: ENDBRANCH  55  56
DOCKED: BRANCH  55  72
DOCKED: ATOM     72  CB  GLU C   6       9.727  -2.186   3.777 +0.00 +0.00    +0.043 C  
DOCKED: BRANCH  72  73
DOCKED: ATOM     73  CG  GLU C   6       8.471  -1.426   3.331 +0.00 +0.00    +0.116 C  
DOCKED: BRANCH  73  74
DOCKED: ATOM     74  CD  GLU C   6       7.528  -2.227   2.424 +0.00 +0.00    +0.365 C  
DOCKED: ATOM     75  OE1 GLU C   6       6.316  -2.266   2.719 +0.00 -0.00    -0.246 OA 
DOCKED: BRANCH  74  76
DOCKED: ATOM     76  OE2 GLU C   6       8.009  -2.799   1.414 +0.00 -0.00    -0.246 OA 
DOCKED: ATOM     77  H   GLU C   6       7.472  -3.365   0.896 +0.00 +0.00    +0.000 HD 
DOCKED: ENDBRANCH  74  76
DOCKED: ENDBRANCH  73  74
DOCKED: ENDBRANCH  72  73
DOCKED: ENDBRANCH  55  72
DOCKED: ENDBRANCH  53  55
DOCKED: ENDBRANCH  49  51
DOCKED: ENDBRANCH  47  49
DOCKED: ENDBRANCH  43  45
DOCKED: ENDBRANCH  42  43
DOCKED: ENDBRANCH   1  42
DOCKED: TORSDOF 34
DOCKED: TER
DOCKED: ENDMDL
________________________________________________________________________________


    CLUSTERING HISTOGRAM
    ____________________


________________________________________________________________________________
     |           |     |           |     |
Clus | Lowest    | Run | Mean      | Num | Histogram
-ter | Binding   |     | Binding   | in  |
Rank | Energy    |     | Energy    | Clus|    5    10   15   20   25   30   35
_____|___________|_____|___________|_____|____:____|____:____|____:____|____:___
   1 |    +10.14 |   1 |    +10.14 |   1 |#
   2 |    +10.14 |   2 |    +10.14 |   1 |#
   3 |    +10.14 |   3 |    +10.14 |   1 |#
   4 |    +10.14 |   4 |    +10.14 |   1 |#
   5 |    +10.14 |   5 |    +10.14 |   1 |#
   6 |    +10.14 |   6 |    +10.14 |   1 |#
   7 |    +10.14 |   7 |    +10.14 |   1 |#
   8 |    +10.14 |   8 |    +10.14 |   1 |#
   9 |    +10.14 |   9 |    +10.14 |   1 |#
  10 |    +10.14 |  10 |    +10.14 |   1 |#
  11 |    +10.14 |  11 |    +10.14 |   1 |#
  12 |    +10.14 |  12 |    +10.14 |   1 |#
  13 |    +10.14 |  13 |    +10.14 |   1 |#
  14 |    +10.14 |  14 |    +10.14 |   1 |#
  15 |    +10.14 |  15 |    +10.14 |   1 |#
  16 |    +10.14 |  16 |    +10.14 |   1 |#
  17 |    +10.14 |  17 |    +10.14 |   1 |#
  18 |    +10.14 |  18 |    +10.14 |   1 |#
  19 |    +10.14 |  19 |    +10.14 |   1 |#
  20 |    +10.14 |  20 |    +10.14 |   1 |#
_____|___________|_____|___________|_____|______________________________________


    RMSD TABLE
    __________


_______________________________________________________________________
     |      |      |           |         |                 |
Rank | Sub- | Run  | Binding   | Cluster | Reference       | Grep
     | Rank |      | Energy    | RMSD    | RMSD            | Pattern
_____|______|______|___________|_________|_________________|___________
   1      1      1      +10.14      0.00      5.50           RANKING
   2      1      2      +10.14      0.00      4.86           RANKING
   3      1      3      +10.14      0.00      7.39           RANKING
   4      1      4      +10.14      0.00      4.58           RANKING
   5      1      5      +10.14      0.00      5.00           RANKING
   6      1      6      +10.14      0.00      4.51           RANKING
   7      1      7      +10.14      0.00      4.65           RANKING
   8      1      8      +10.14      0.00      6.05           RANKING
   9      1      9      +10.14      0.00      5.94           RANKING
  10      1     10      +10.14      0.00      4.07           RANKING
  11      1     11      +10.14      0.00      6.47           RANKING
  12      1     12      +10.14      0.00      4.47           RANKING
  13      1     13      +10.14      0.00      5.09           RANKING
  14      1     14      +10.14      0.00      4.52           RANKING
  15      1     15      +10.14      0.00      5.50           RANKING
  16      1     16      +10.14      0.00      7.00           RANKING
  17      1     17      +10.14      0.00      5.48           RANKING
  18      1     18      +10.14      0.00      4.12           RANKING
  19      1     19      +10.14      0.00      4.06           RANKING
  20      1     20      +10.14      0.00      4.66           RANKING

Run time 119.843 sec
Idle time 0.412 sec
