REMARK  Name = ligand_ref.pdb
REMARK  40 active torsions:
REMARK  status: ('A' for Active; 'I' for Inactive)
REMARK    1  A    between atoms: N_1  and  CA_2
REMARK    2  A    between atoms: CA_2  and  C_3
REMARK    3  A    between atoms: CA_2  and  CB_5
REMARK    4  A    between atoms: CB_5  and  CG_6
REMARK    5  A    between atoms: CG_6  and  CD_7
REMARK    6  A    between atoms: CD_7  and  OE2_9
REMARK    7  A    between atoms: N_10  and  CA_11
REMARK    8  A    between atoms: CA_11  and  C_12
REMARK    9  A    between atoms: CA_11  and  CB_14
REMARK   10  A    between atoms: CB_14  and  CG1_15
REMARK   11  A    between atoms: CB_14  and  CG2_16
REMARK   12  A    between atoms: N_17  and  CA_18
REMARK   13  A    between atoms: CA_18  and  C_19
REMARK   14  A    between atoms: CA_18  and  CB_21
REMARK   15  A    between atoms: CB_21  and  CG_22
REMARK   16  A    between atoms: N_25  and  CA_26
REMARK   17  A    between atoms: CA_26  and  C4_33
REMARK   18  A    between atoms: CA_26  and  C6_34
REMARK   19  A    between atoms: C_27  and  C8_36
REMARK   20  A    between atoms: C1_29  and  C3_32
REMARK   21  A    between atoms: O1_30  and  C6_34
REMARK   22  A    between atoms: C2_31  and  C3_32
REMARK   23  A    between atoms: C3_32  and  C4_33
REMARK   24  A    between atoms: C6_34  and  C7_35
REMARK   25  A    between atoms: C7_35  and  C8_36
REMARK   26  A    between atoms: C8_36  and  C9_37
REMARK   27  A    between atoms: N_38  and  CA_39
REMARK   28  A    between atoms: CA_39  and  C_40
REMARK   29  A    between atoms: CA_39  and  CB_42
REMARK   30  A    between atoms: N_43  and  CA_44
REMARK   31  A    between atoms: CA_44  and  C_45
REMARK   32  A    between atoms: CA_44  and  CB_47
REMARK   33  A    between atoms: CB_47  and  CG_48
REMARK   34  A    between atoms: CG_48  and  CD_49
REMARK   35  A    between atoms: CD_49  and  OE2_51
REMARK   36  A    between atoms: N_52  and  CA_53
REMARK   37  A    between atoms: CA_53  and  C_54
REMARK   38  A    between atoms: CA_53  and  CB_56
REMARK   39  A    between atoms: C_54  and  OXT_63
REMARK   40  A    between atoms: CB_56  and  CG_57
REMARK                            x       y       z     vdW  Elec       q    Type
REMARK                         _______ _______ _______ _____ _____    ______ ____
ROOT
ATOM      1  C6  1OL C   4      13.765  -2.881   1.280  0.00  0.00    +0.172 C 
ENDROOT
BRANCH   1   2
ATOM      2  O1  1OL C   4      14.354  -2.071   2.313  0.00  0.00    -0.221 OA
ATOM      3  H   1OL C   4      15.242  -1.792   2.039  0.00  0.00    +0.000 HD
ENDBRANCH   1   2
BRANCH   1   4
ATOM      4  CA  1OL C   4      13.733  -2.113  -0.057  0.00  0.00    +0.126 C 
BRANCH   4   7
ATOM      5  C   ASN C   3      11.651  -1.001  -0.662  0.00  0.00    +0.262 C 
ATOM      6  O   ASN C   3      11.216  -1.993  -1.262  0.00  0.00    -0.271 OA
ATOM      7  N   1OL C   4      12.818  -0.983  -0.033  0.00  0.00    -0.203 N 
ATOM      8  H   1OL C   4      13.074  -0.175   0.468  0.00  0.00    +0.000 HD
BRANCH   5   9
ATOM      9  CA  ASN C   3      10.848   0.283  -0.577  0.00  0.00    +0.182 C 
BRANCH   9  12
ATOM     10  C   VAL C   2      11.634   2.532  -1.073  0.00  0.00    +0.262 C 
ATOM     11  O   VAL C   2      11.023   3.034  -0.115  0.00  0.00    -0.271 OA
ATOM     12  N   ASN C   3      11.558   1.247  -1.392  0.00  0.00    -0.196 N 
ATOM     13  H   ASN C   3      12.001   0.936  -2.214  0.00  0.00    +0.000 HD
BRANCH  10  14
ATOM     14  CA  VAL C   2      12.459   3.376  -2.010  0.00  0.00    +0.173 C 
BRANCH  14  17
ATOM     15  C   GLU C   1      11.459   5.216  -3.206  0.00  0.00    +0.259 C 
ATOM     16  O   GLU C   1      11.685   4.668  -4.278  0.00  0.00    -0.272 OA
ATOM     17  N   VAL C   2      11.846   4.691  -2.054  0.00  0.00    -0.197 N 
ATOM     18  H   VAL C   2      11.717   5.197  -1.219  0.00  0.00    +0.000 HD
BRANCH  15  19
ATOM     19  CA  GLU C   1      10.741   6.575  -3.159  0.00  0.00    +0.170 C 
BRANCH  19  20
ATOM     20  N   GLU C   1      11.157   7.433  -4.314  0.00  0.00    -0.123 NA
ATOM     21  H   GLU C   1      12.164   7.591  -4.275  0.00  0.00    +0.000 HD
ATOM     22  H   GLU C   1      10.670   8.328  -4.265  0.00  0.00    +0.000 HD
ENDBRANCH  19  20
BRANCH  19  23
ATOM     23  CB  GLU C   1       9.229   6.322  -3.194  0.00  0.00    +0.040 C 
BRANCH  23  24
ATOM     24  CG  GLU C   1       8.683   5.692  -1.902  0.00  0.00    +0.116 C 
BRANCH  24  25
ATOM     25  CD  GLU C   1       7.195   5.392  -1.955  0.00  0.00    +0.365 C 
ATOM     26  OE1 GLU C   1       6.504   5.978  -2.826  0.00  0.00    -0.246 OA
BRANCH  25  27
ATOM     27  OE2 GLU C   1       6.706   4.589  -1.128  0.00  0.00    -0.246 OA
ATOM     28  H   GLU C   1       7.258   4.174  -0.495  0.00  0.00    +0.000 HD
ENDBRANCH  25  27
ENDBRANCH  24  25
ENDBRANCH  23  24
ENDBRANCH  19  23
ENDBRANCH  15  19
ENDBRANCH  14  17
BRANCH  14  29
ATOM     29  CB  VAL C   2      13.943   3.379  -1.521  0.00  0.00    +0.029 C 
ATOM     30  CG1 VAL C   2      14.885   3.684  -2.713  0.00  0.00    +0.002 C 
ATOM     31  CG2 VAL C   2      14.143   4.384  -0.370  0.00  0.00    +0.002 C 
ENDBRANCH  14  29
ENDBRANCH  10  14
ENDBRANCH   9  12
BRANCH   9  32
ATOM     32  CB  ASN C   3       9.432   0.074  -1.114  0.00  0.00    +0.120 C 
BRANCH  32  33
ATOM     33  CG  ASN C   3       8.493   1.181  -0.686  0.00  0.00    +0.263 C 
ATOM     34  ND2 ASN C   3       8.180   2.105  -1.612  0.00  0.00    -0.088 N 
ATOM     35  OD1 ASN C   3       8.066   1.214   0.462  0.00  0.00    -0.272 OA
ATOM     36  H   ASN C   3       8.549   2.035  -2.522  0.00  0.00    +0.000 HD
ATOM     37  H   ASN C   3       7.582   2.852  -1.380  0.00  0.00    +0.000 HD
ENDBRANCH  32  33
ENDBRANCH   9  32
ENDBRANCH   5   9
ENDBRANCH   4   7
BRANCH   4  38
ATOM     38  C4  1OL C   4      15.131  -1.588  -0.435  0.00  0.00    +0.024 C 
BRANCH  38  41
ATOM     39  C1  1OL C   4      15.055  -1.969  -2.899  0.00  0.00    +0.000 C 
ATOM     40  C2  1OL C   4      16.351   0.024  -2.004  0.00  0.00    +0.000 C 
ATOM     41  C3  1OL C   4      15.109  -0.894  -1.811  0.00  0.00    +0.002 C 
ENDBRANCH  38  41
ENDBRANCH   4  38
ENDBRANCH   1   4
BRANCH   1  42
ATOM     42  C7  1OL C   4      12.355  -3.328   1.708  0.00  0.00    +0.044 C 
BRANCH  42  43
ATOM     43  C8  1OL C   4      12.303  -4.570   2.603  0.00  0.00    +0.081 C 
ATOM     44  C9  1OL C   4      11.028  -4.569   3.448  0.00  0.00    +0.010 C 
BRANCH  43  45
ATOM     45  C   1OL C   4      12.339  -5.826   1.721  0.00  0.00    +0.241 C 
ATOM     46  O   1OL C   4      11.603  -5.891   0.720  0.00  0.00    -0.273 OA
ATOM     47  N   ALA C   5      13.217  -6.778   2.074  0.00  0.00    -0.198 N 
ATOM     48  H   ALA C   5      13.825  -6.599   2.828  0.00  0.00    +0.000 HD
BRANCH  47  49
ATOM     49  CA  ALA C   5      13.315  -8.071   1.392  0.00  0.00    +0.173 C 
ATOM     50  CB  ALA C   5      14.389  -8.932   2.012  0.00  0.00    +0.033 C 
BRANCH  49  51
ATOM     51  C   ALA C   5      11.929  -8.667   1.577  0.00  0.00    +0.262 C 
ATOM     52  O   ALA C   5      11.366  -8.705   2.710  0.00  0.00    -0.271 OA
ATOM     53  N   GLU C   6      11.414  -9.285   0.438  0.00  0.00    -0.196 N 
ATOM     54  H   GLU C   6      12.054  -9.479  -0.284  0.00  0.00    +0.000 HD
BRANCH  53  55
ATOM     55  CA  GLU C   6       9.988  -9.686   0.196  0.00  0.00    +0.173 C 
BRANCH  55  56
ATOM     56  C   GLU C   6       9.201 -10.695   0.998  0.00  0.00    +0.262 C 
ATOM     57  O   GLU C   6       9.336 -11.907   1.087  0.00  0.00    -0.271 OA
ATOM     58  N   PHE C   7       8.330  -9.780   1.583  0.00  0.00    -0.194 N 
ATOM     59  H   PHE C   7       8.587  -8.901   1.221  0.00  0.00    +0.000 HD
BRANCH  58  60
ATOM     60  CA  PHE C   7       7.191  -9.518   2.502  0.00  0.00    +0.202 C 
BRANCH  60  61
ATOM     61  C   PHE C   7       7.151 -10.435   3.738  0.00  0.00    +0.385 C 
ATOM     62  O   PHE C   7       8.132 -11.103   4.167  0.00  0.00    -0.244 OA
BRANCH  61  63
ATOM     63  OXT PHE C   7       6.123 -10.480   4.474  0.00  0.00    -0.244 OA
ATOM     64  H   PHE C   7       5.350 -10.011   4.228  0.00  0.00    +0.000 HD
ENDBRANCH  61  63
ENDBRANCH  60  61
BRANCH  60  65
ATOM     65  CB  PHE C   7       5.897  -9.491   1.743  0.00  0.00    +0.060 C 
BRANCH  65  66
ATOM     66  CG  PHE C   7       5.473 -10.880   1.596  0.00  0.00    -0.020 A 
ATOM     67  CD1 PHE C   7       6.430 -11.828   1.276  0.00  0.00    -0.004 A 
ATOM     68  CD2 PHE C   7       4.153 -11.259   1.768  0.00  0.00    -0.004 A 
ATOM     69  CE1 PHE C   7       6.076 -13.164   1.122  0.00  0.00    -0.000 A 
ATOM     70  CE2 PHE C   7       3.787 -12.586   1.647  0.00  0.00    -0.000 A 
ATOM     71  CZ  PHE C   7       4.752 -13.530   1.322  0.00  0.00    -0.000 A 
ENDBRANCH  65  66
ENDBRANCH  60  65
ENDBRANCH  58  60
ENDBRANCH  55  56
BRANCH  55  72
ATOM     72  CB  GLU C   6       9.726  -9.796  -1.312  0.00  0.00    +0.043 C 
BRANCH  72  73
ATOM     73  CG  GLU C   6       8.737  -8.710  -1.756  0.00  0.00    +0.116 C 
BRANCH  73  74
ATOM     74  CD  GLU C   6       7.526  -9.231  -2.540  0.00  0.00    +0.365 C 
ATOM     75  OE1 GLU C   6       7.695 -10.191  -3.320  0.00  0.00    -0.246 OA
BRANCH  74  76
ATOM     76  OE2 GLU C   6       6.411  -8.681  -2.357  0.00  0.00    -0.246 OA
ATOM     77  H   GLU C   6       6.335  -7.963  -1.760  0.00  0.00    +0.000 HD
ENDBRANCH  74  76
ENDBRANCH  73  74
ENDBRANCH  72  73
ENDBRANCH  55  72
ENDBRANCH  53  55
ENDBRANCH  49  51
ENDBRANCH  47  49
ENDBRANCH  43  45
ENDBRANCH  42  43
ENDBRANCH   1  42
TORSDOF 34
