REMARK  Name = ligands/ligand_49.pdb
REMARK  31 active torsions:
REMARK  status: ('A' for Active; 'I' for Inactive)
REMARK    1  A    between atoms: C1_1  and  S1_2
REMARK    2  A    between atoms: S1_2  and  C2_3
REMARK    3  A    between atoms: C2_3  and  C3_4
REMARK    4  A    between atoms: C3_4  and  C4_5
REMARK    5  A    between atoms: C4_5  and  N1_6
REMARK    6  A    between atoms: C4_5  and  C15_21
REMARK    7  A    between atoms: C5_7  and  C6_9
REMARK    8  A    between atoms: C6_9  and  N2_10
REMARK    9  A    between atoms: C6_9  and  C12_18
REMARK   10  A    between atoms: C7_11  and  O3_13
REMARK   11  A    between atoms: O3_13  and  C8_14
REMARK   12  A    between atoms: C8_14  and  C9_15
REMARK   13  A    between atoms: C8_14  and  C10_16
REMARK   14  A    between atoms: C8_14  and  C11_17
REMARK   15  A    between atoms: C12_18  and  C13_19
REMARK   16  A    between atoms: C12_18  and  C14_20
REMARK   17  A    between atoms: N3_23  and  C16_24
REMARK   18  A    between atoms: C16_24  and  C17_25
REMARK   19  A    between atoms: C16_24  and  C21_29
REMARK   20  A    between atoms: C17_25  and  C18_26
REMARK   21  A    between atoms: C18_26  and  C19_27
REMARK   22  A    between atoms: C18_26  and  C20_28
REMARK   23  A    between atoms: C21_29  and  O5_30
REMARK   24  A    between atoms: C21_29  and  C22_31
REMARK   25  A    between atoms: C22_31  and  C23_32
REMARK   26  A    between atoms: N4_34  and  C24_35
REMARK   27  A    between atoms: C24_35  and  C25_36
REMARK   28  A    between atoms: C24_35  and  C32_45
REMARK   29  A    between atoms: N5_38  and  C26_39
REMARK   30  A    between atoms: C32_45  and  C33_46
REMARK   31  A    between atoms: C32_45  and  C34_47
REMARK                            x       y       z     vdW  Elec       q    Type
REMARK                         _______ _______ _______ _____ _____    ______ ____
ROOT
ATOM      1  C16 UNL     1      -3.227  -1.547  -1.201  0.00  0.00    +0.102 C 
ENDROOT
BRANCH   1   4
ATOM      2  C15 UNL     1      -0.860  -2.138  -1.653  0.00  0.00    +0.234 C 
ATOM      3  O4  UNL     1      -0.449  -1.160  -1.032  0.00  0.00    -0.274 OA
ATOM      4  N3  UNL     1      -2.209  -2.374  -1.857  0.00  0.00    -0.308 N 
ATOM      5  H28 UNL     1      -2.487  -3.290  -2.186  0.00  0.00    +0.149 HD
BRANCH   2   6
ATOM      6  C4  UNL     1       0.068  -3.199  -2.279  0.00  0.00    +0.160 C 
BRANCH   6   7
ATOM      7  N1  UNL     1       1.384  -2.605  -2.526  0.00  0.00    -0.302 N 
ATOM      8  C5  UNL     1       2.396  -2.531  -1.592  0.00  0.00    +0.234 C 
ATOM      9  O1  UNL     1       2.408  -3.170  -0.541  0.00  0.00    -0.274 OA
ATOM     10  H9  UNL     1       1.375  -1.853  -3.204  0.00  0.00    +0.150 HD
BRANCH   8  11
ATOM     11  C6  UNL     1       3.575  -1.610  -1.987  0.00  0.00    +0.165 C 
BRANCH  11  12
ATOM     12  N2  UNL     1       4.285  -1.277  -0.759  0.00  0.00    -0.270 N 
ATOM     13  C7  UNL     1       4.932  -0.103  -0.560  0.00  0.00    +0.401 C 
ATOM     14  O2  UNL     1       5.057   0.776  -1.400  0.00  0.00    -0.226 OA
ATOM     15  H11 UNL     1       4.150  -1.871   0.051  0.00  0.00    +0.153 HD
BRANCH  13  16
ATOM     16  O3  UNL     1       5.392  -0.073   0.711  0.00  0.00    -0.445 OA
BRANCH  16  17
ATOM     17  C8  UNL     1       6.106   1.081   1.222  0.00  0.00    +0.107 C 
ATOM     18  C9  UNL     1       5.200   2.317   1.253  0.00  0.00    +0.055 C 
ATOM     19  C10 UNL     1       7.398   1.330   0.434  0.00  0.00    +0.055 C 
ATOM     20  C11 UNL     1       6.478   0.707   2.664  0.00  0.00    +0.055 C 
ENDBRANCH  16  17
ENDBRANCH  13  16
ENDBRANCH  11  12
BRANCH  11  21
ATOM     21  C12 UNL     1       4.532  -2.224  -3.034  0.00  0.00    +0.012 C 
ATOM     22  C13 UNL     1       3.899  -2.338  -4.422  0.00  0.00    +0.009 C 
ATOM     23  C14 UNL     1       5.098  -3.581  -2.606  0.00  0.00    +0.009 C 
ENDBRANCH  11  21
ENDBRANCH   8  11
ENDBRANCH   6   7
BRANCH   6  24
ATOM     24  C3  UNL     1       0.019  -4.499  -1.460  0.00  0.00    +0.042 C 
BRANCH  24  25
ATOM     25  C2  UNL     1       0.819  -5.647  -2.073  0.00  0.00    +0.071 C 
BRANCH  25  27
ATOM     26  C1  UNL     1      -1.170  -7.477  -2.676  0.00  0.00    +0.084 C 
ATOM     27  S1  UNL     1      -0.021  -6.365  -3.530  0.00  0.00    -0.164 S 
ENDBRANCH  25  27
ENDBRANCH  24  25
ENDBRANCH   6  24
ENDBRANCH   2   6
ENDBRANCH   1   4
BRANCH   1  28
ATOM     28  C21 UNL     1      -3.505  -2.132   0.219  0.00  0.00    +0.143 C 
BRANCH  28  29
ATOM     29  O5  UNL     1      -2.297  -2.245   0.989  0.00  0.00    -0.389 OA
ATOM     30  H40 UNL     1      -1.697  -1.523   0.704  0.00  0.00    +0.210 HD
ENDBRANCH  28  29
BRANCH  28  31
ATOM     31  C22 UNL     1      -4.557  -1.428   1.073  0.00  0.00    +0.129 C 
BRANCH  31  32
ATOM     32  C23 UNL     1      -4.263   0.029   1.346  0.00  0.00    +0.216 C 
ATOM     33  O6  UNL     1      -3.329   0.649   0.852  0.00  0.00    -0.276 OA
ATOM     34  N4  UNL     1      -5.170   0.605   2.207  0.00  0.00    -0.304 N 
ATOM     35  H43 UNL     1      -5.750  -0.015   2.763  0.00  0.00    +0.149 HD
BRANCH  34  36
ATOM     36  C24 UNL     1      -5.054   1.981   2.705  0.00  0.00    +0.161 C 
BRANCH  36  37
ATOM     37  C25 UNL     1      -3.902   2.036   3.735  0.00  0.00    +0.234 C 
ATOM     38  O7  UNL     1      -4.123   2.080   4.944  0.00  0.00    -0.274 OA
ATOM     39  N5  UNL     1      -2.639   1.963   3.192  0.00  0.00    -0.311 N 
ATOM     40  H45 UNL     1      -2.577   1.683   2.211  0.00  0.00    +0.149 HD
BRANCH  39  41
ATOM     41  C26 UNL     1      -1.432   1.889   4.003  0.00  0.00    +0.073 C 
ATOM     42  C27 UNL     1      -1.067   3.262   4.586  0.00  0.00    +0.022 C 
ATOM     43  C28 UNL     1      -0.559   4.230   3.517  0.00  0.00    +0.002 C 
ATOM     44  C29 UNL     1       0.607   3.638   2.732  0.00  0.00    +0.000 C 
ATOM     45  C30 UNL     1       0.255   2.283   2.129  0.00  0.00    +0.002 C 
ATOM     46  C31 UNL     1      -0.267   1.311   3.186  0.00  0.00    +0.022 C 
ENDBRANCH  39  41
ENDBRANCH  36  37
BRANCH  36  47
ATOM     47  C32 UNL     1      -4.968   3.074   1.614  0.00  0.00    +0.012 C 
ATOM     48  C33 UNL     1      -5.037   4.471   2.243  0.00  0.00    +0.009 C 
ATOM     49  C34 UNL     1      -6.094   2.933   0.584  0.00  0.00    +0.009 C 
ENDBRANCH  36  47
ENDBRANCH  34  36
ENDBRANCH  31  32
ENDBRANCH  28  31
ENDBRANCH   1  28
BRANCH   1  50
ATOM     50  C17 UNL     1      -4.504  -1.468  -2.060  0.00  0.00    +0.028 C 
BRANCH  50  51
ATOM     51  C18 UNL     1      -4.390  -0.767  -3.435  0.00  0.00    -0.015 C 
ATOM     52  C19 UNL     1      -3.841   0.657  -3.330  0.00  0.00    +0.007 C 
ATOM     53  C20 UNL     1      -3.606  -1.570  -4.472  0.00  0.00    +0.007 C 
ENDBRANCH  50  51
ENDBRANCH   1  50
TORSDOF 21
