AutoDock-GPU version: v1.6

**********************************************************
**    AutoDock-GPU AUTODOCKTOOLS-COMPATIBLE DLG FILE    **
**********************************************************


    DOCKING PARAMETERS
    ________________________


Ligand file:                               ligands/ligand_1.pdbqt
Grid fld file:                             protein.maps.fld

Random seed:                               1770971886, 24435
Number of runs:                            20
Number of energy evaluations:              10503056
Number of generations:                     42000
Size of population:                        150
Rate of crossover:                         80.000000%
Tournament selection probability limit:    60.000000%
Rate of mutation:                          2.000000%
Maximal allowed delta movement:            +/- 6.000000A
Maximal allowed delta angle:               +/- 90.000000

Rate of local search:                      100.000000%
Maximal number of local search iterations: 300
Rho lower bound:                           0.010000
Spread of local search delta movement:     2.000000A
Spread of local search delta angle:        74.999999
Limit of consecutive successes/failures:   4

Handle symmetry during clustering:         YES
RMSD tolerance:                            2.000000A

Program call in command line was:          ./autodock-gpu --ffile protein.maps.fld --lfile ligands/ligand_1.pdbqt --nrun 20 


    GRID PARAMETERS
    ________________________


Receptor name:                             #MACROMOLECULE
Number of grid points (x, y, z):           61, 61, 61
Grid center (x, y, z):                     10.261000, -3.492000, -0.127000A
Grid size (x, y, z):                       22.500000, 22.500000, 22.500000A
Grid spacing:                              0.375000A


    LIGAND PARAMETERS
    ________________________


Ligand name:                               ligands/ligand_1
Number of atoms:                           56
Number of rotatable bonds:                 23
Number of atom types:                      6


    DUMMY DATA (only for ADT-compatibility)
    ________________________


DPF> outlev 1
DPF> ga_run 20
DPF> fld protein.maps.fld
DPF> move ligands/ligand_1.pdbqt


    COUNTER STATES
    ________________________


Number of energy evaluations performed:    7467223
Number of generations used:                290


    INPUT LIGAND PDBQT FILE:
    ________________________


INPUT-LIGAND-PDBQT: REMARK  Name = ligands/ligand_1.pdb
INPUT-LIGAND-PDBQT: REMARK  34 active torsions:
INPUT-LIGAND-PDBQT: REMARK  status: ('A' for Active; 'I' for Inactive)
INPUT-LIGAND-PDBQT: REMARK    1  A    between atoms: C1_1  and  S1_2
INPUT-LIGAND-PDBQT: REMARK    2  A    between atoms: S1_2  and  C2_3
INPUT-LIGAND-PDBQT: REMARK    3  A    between atoms: C2_3  and  C3_4
INPUT-LIGAND-PDBQT: REMARK    4  A    between atoms: C3_4  and  C4_5
INPUT-LIGAND-PDBQT: REMARK    5  A    between atoms: C4_5  and  N1_6
INPUT-LIGAND-PDBQT: REMARK    6  A    between atoms: C4_5  and  C15_21
INPUT-LIGAND-PDBQT: REMARK    7  A    between atoms: C5_7  and  C6_9
INPUT-LIGAND-PDBQT: REMARK    8  A    between atoms: C6_9  and  N2_10
INPUT-LIGAND-PDBQT: REMARK    9  A    between atoms: C6_9  and  C12_18
INPUT-LIGAND-PDBQT: REMARK   10  A    between atoms: C7_11  and  O3_13
INPUT-LIGAND-PDBQT: REMARK   11  A    between atoms: O3_13  and  C8_14
INPUT-LIGAND-PDBQT: REMARK   12  A    between atoms: C8_14  and  C9_15
INPUT-LIGAND-PDBQT: REMARK   13  A    between atoms: C8_14  and  C10_16
INPUT-LIGAND-PDBQT: REMARK   14  A    between atoms: C8_14  and  C11_17
INPUT-LIGAND-PDBQT: REMARK   15  A    between atoms: C12_18  and  C13_19
INPUT-LIGAND-PDBQT: REMARK   16  A    between atoms: C12_18  and  C14_20
INPUT-LIGAND-PDBQT: REMARK   17  A    between atoms: N3_23  and  C16_24
INPUT-LIGAND-PDBQT: REMARK   18  A    between atoms: C16_24  and  C17_25
INPUT-LIGAND-PDBQT: REMARK   19  A    between atoms: C16_24  and  C21_29
INPUT-LIGAND-PDBQT: REMARK   20  A    between atoms: C17_25  and  C18_26
INPUT-LIGAND-PDBQT: REMARK   21  A    between atoms: C18_26  and  C19_27
INPUT-LIGAND-PDBQT: REMARK   22  A    between atoms: C18_26  and  C20_28
INPUT-LIGAND-PDBQT: REMARK   23  A    between atoms: C21_29  and  O5_30
INPUT-LIGAND-PDBQT: REMARK   24  A    between atoms: C21_29  and  C22_31
INPUT-LIGAND-PDBQT: REMARK   25  A    between atoms: C22_31  and  C23_32
INPUT-LIGAND-PDBQT: REMARK   26  A    between atoms: C23_32  and  C24_33
INPUT-LIGAND-PDBQT: REMARK   27  A    between atoms: C23_32  and  C25_34
INPUT-LIGAND-PDBQT: REMARK   28  A    between atoms: N4_36  and  C26_37
INPUT-LIGAND-PDBQT: REMARK   29  A    between atoms: C26_37  and  C27_38
INPUT-LIGAND-PDBQT: REMARK   30  A    between atoms: C26_37  and  C35_48
INPUT-LIGAND-PDBQT: REMARK   31  A    between atoms: N5_40  and  C28_41
INPUT-LIGAND-PDBQT: REMARK   32  A    between atoms: C28_41  and  C29_42
INPUT-LIGAND-PDBQT: REMARK   33  A    between atoms: C35_48  and  C36_49
INPUT-LIGAND-PDBQT: REMARK   34  A    between atoms: C35_48  and  C37_50
INPUT-LIGAND-PDBQT: REMARK                            x       y       z     vdW  Elec       q    Type
INPUT-LIGAND-PDBQT: REMARK                         _______ _______ _______ _____ _____    ______ ____
INPUT-LIGAND-PDBQT: ROOT
INPUT-LIGAND-PDBQT: ATOM      1  C16 UNL     1      -2.616  -3.682  -1.818  0.00  0.00    +0.102 C 
INPUT-LIGAND-PDBQT: ENDROOT
INPUT-LIGAND-PDBQT: BRANCH   1   4
INPUT-LIGAND-PDBQT: ATOM      2  C15 UNL     1      -0.301  -2.869  -1.608  0.00  0.00    +0.234 C 
INPUT-LIGAND-PDBQT: ATOM      3  O4  UNL     1      -0.156  -2.934  -2.831  0.00  0.00    -0.274 OA
INPUT-LIGAND-PDBQT: ATOM      4  N3  UNL     1      -1.473  -3.275  -0.993  0.00  0.00    -0.308 N 
INPUT-LIGAND-PDBQT: ATOM      5  H28 UNL     1      -1.709  -2.771  -0.153  0.00  0.00    +0.149 HD
INPUT-LIGAND-PDBQT: BRANCH   2   6
INPUT-LIGAND-PDBQT: ATOM      6  C4  UNL     1       0.801  -2.254  -0.708  0.00  0.00    +0.160 C 
INPUT-LIGAND-PDBQT: BRANCH   6   7
INPUT-LIGAND-PDBQT: ATOM      7  N1  UNL     1       1.018  -0.887  -1.187  0.00  0.00    -0.302 N 
INPUT-LIGAND-PDBQT: ATOM      8  C5  UNL     1       2.248  -0.496  -1.667  0.00  0.00    +0.234 C 
INPUT-LIGAND-PDBQT: ATOM      9  O1  UNL     1       3.245  -1.226  -1.620  0.00  0.00    -0.274 OA
INPUT-LIGAND-PDBQT: ATOM     10  H9  UNL     1       0.189  -0.332  -1.381  0.00  0.00    +0.150 HD
INPUT-LIGAND-PDBQT: BRANCH   8  11
INPUT-LIGAND-PDBQT: ATOM     11  C6  UNL     1       2.318   0.924  -2.262  0.00  0.00    +0.165 C 
INPUT-LIGAND-PDBQT: BRANCH  11  12
INPUT-LIGAND-PDBQT: ATOM     12  N2  UNL     1       3.690   1.370  -2.060  0.00  0.00    -0.270 N 
INPUT-LIGAND-PDBQT: ATOM     13  C7  UNL     1       4.063   2.663  -1.912  0.00  0.00    +0.401 C 
INPUT-LIGAND-PDBQT: ATOM     14  O2  UNL     1       3.294   3.610  -1.865  0.00  0.00    -0.226 OA
INPUT-LIGAND-PDBQT: ATOM     15  H11 UNL     1       4.428   0.668  -2.085  0.00  0.00    +0.153 HD
INPUT-LIGAND-PDBQT: BRANCH  13  16
INPUT-LIGAND-PDBQT: ATOM     16  O3  UNL     1       5.410   2.718  -1.833  0.00  0.00    -0.445 OA
INPUT-LIGAND-PDBQT: BRANCH  16  17
INPUT-LIGAND-PDBQT: ATOM     17  C8  UNL     1       6.103   3.984  -1.703  0.00  0.00    +0.107 C 
INPUT-LIGAND-PDBQT: ATOM     18  C9  UNL     1       7.597   3.616  -1.681  0.00  0.00    +0.055 C 
INPUT-LIGAND-PDBQT: ATOM     19  C10 UNL     1       5.749   4.680  -0.385  0.00  0.00    +0.055 C 
INPUT-LIGAND-PDBQT: ATOM     20  C11 UNL     1       5.843   4.891  -2.909  0.00  0.00    +0.055 C 
INPUT-LIGAND-PDBQT: ENDBRANCH  16  17
INPUT-LIGAND-PDBQT: ENDBRANCH  13  16
INPUT-LIGAND-PDBQT: ENDBRANCH  11  12
INPUT-LIGAND-PDBQT: BRANCH  11  21
INPUT-LIGAND-PDBQT: ATOM     21  C12 UNL     1       1.926   1.004  -3.755  0.00  0.00    +0.012 C 
INPUT-LIGAND-PDBQT: ATOM     22  C13 UNL     1       2.713   0.033  -4.646  0.00  0.00    +0.009 C 
INPUT-LIGAND-PDBQT: ATOM     23  C14 UNL     1       0.424   0.818  -3.979  0.00  0.00    +0.009 C 
INPUT-LIGAND-PDBQT: ENDBRANCH  11  21
INPUT-LIGAND-PDBQT: ENDBRANCH   8  11
INPUT-LIGAND-PDBQT: ENDBRANCH   6   7
INPUT-LIGAND-PDBQT: BRANCH   6  24
INPUT-LIGAND-PDBQT: ATOM     24  C3  UNL     1       0.594  -2.241   0.811  0.00  0.00    +0.042 C 
INPUT-LIGAND-PDBQT: BRANCH  24  25
INPUT-LIGAND-PDBQT: ATOM     25  C2  UNL     1       0.835  -3.625   1.414  0.00  0.00    +0.071 C 
INPUT-LIGAND-PDBQT: BRANCH  25  27
INPUT-LIGAND-PDBQT: ATOM     26  C1  UNL     1      -1.211  -3.619   3.287  0.00  0.00    +0.084 C 
INPUT-LIGAND-PDBQT: ATOM     27  S1  UNL     1       0.594  -3.621   3.220  0.00  0.00    -0.164 S 
INPUT-LIGAND-PDBQT: ENDBRANCH  25  27
INPUT-LIGAND-PDBQT: ENDBRANCH  24  25
INPUT-LIGAND-PDBQT: ENDBRANCH   6  24
INPUT-LIGAND-PDBQT: ENDBRANCH   2   6
INPUT-LIGAND-PDBQT: ENDBRANCH   1   4
INPUT-LIGAND-PDBQT: BRANCH   1  28
INPUT-LIGAND-PDBQT: ATOM     28  C17 UNL     1      -3.525  -4.697  -1.094  0.00  0.00    +0.028 C 
INPUT-LIGAND-PDBQT: BRANCH  28  29
INPUT-LIGAND-PDBQT: ATOM     29  C18 UNL     1      -3.068  -6.175  -1.125  0.00  0.00    -0.015 C 
INPUT-LIGAND-PDBQT: ATOM     30  C19 UNL     1      -3.118  -6.776  -2.530  0.00  0.00    +0.007 C 
INPUT-LIGAND-PDBQT: ATOM     31  C20 UNL     1      -1.694  -6.400  -0.504  0.00  0.00    +0.007 C 
INPUT-LIGAND-PDBQT: ENDBRANCH  28  29
INPUT-LIGAND-PDBQT: ENDBRANCH   1  28
INPUT-LIGAND-PDBQT: BRANCH   1  32
INPUT-LIGAND-PDBQT: ATOM     32  C21 UNL     1      -3.377  -2.451  -2.398  0.00  0.00    +0.135 C 
INPUT-LIGAND-PDBQT: BRANCH  32  33
INPUT-LIGAND-PDBQT: ATOM     33  O5  UNL     1      -4.004  -2.894  -3.621  0.00  0.00    -0.390 OA
INPUT-LIGAND-PDBQT: ATOM     34  H40 UNL     1      -3.778  -2.237  -4.305  0.00  0.00    +0.210 HD
INPUT-LIGAND-PDBQT: ENDBRANCH  32  33
INPUT-LIGAND-PDBQT: BRANCH  32  35
INPUT-LIGAND-PDBQT: ATOM     35  C22 UNL     1      -4.510  -1.789  -1.593  0.00  0.00    +0.045 C 
INPUT-LIGAND-PDBQT: BRANCH  35  36
INPUT-LIGAND-PDBQT: ATOM     36  C23 UNL     1      -4.292  -1.075  -0.250  0.00  0.00    +0.074 C 
INPUT-LIGAND-PDBQT: ATOM     37  C24 UNL     1      -4.329  -1.995   0.966  0.00  0.00    +0.017 C 
INPUT-LIGAND-PDBQT: BRANCH  36  38
INPUT-LIGAND-PDBQT: ATOM     38  C25 UNL     1      -3.064  -0.178  -0.159  0.00  0.00    +0.217 C 
INPUT-LIGAND-PDBQT: ATOM     39  O6  UNL     1      -1.995  -0.416  -0.712  0.00  0.00    -0.276 OA
INPUT-LIGAND-PDBQT: ATOM     40  N4  UNL     1      -3.234   0.887   0.689  0.00  0.00    -0.304 N 
INPUT-LIGAND-PDBQT: ATOM     41  H47 UNL     1      -4.108   1.007   1.197  0.00  0.00    +0.149 HD
INPUT-LIGAND-PDBQT: BRANCH  40  42
INPUT-LIGAND-PDBQT: ATOM     42  C26 UNL     1      -2.141   1.768   1.100  0.00  0.00    +0.161 C 
INPUT-LIGAND-PDBQT: BRANCH  42  43
INPUT-LIGAND-PDBQT: ATOM     43  C27 UNL     1      -2.343   1.943   2.618  0.00  0.00    +0.234 C 
INPUT-LIGAND-PDBQT: ATOM     44  O7  UNL     1      -3.467   2.022   3.117  0.00  0.00    -0.274 OA
INPUT-LIGAND-PDBQT: ATOM     45  N5  UNL     1      -1.180   2.023   3.348  0.00  0.00    -0.310 N 
INPUT-LIGAND-PDBQT: ATOM     46  H49 UNL     1      -0.302   1.771   2.917  0.00  0.00    +0.149 HD
INPUT-LIGAND-PDBQT: BRANCH  45  47
INPUT-LIGAND-PDBQT: ATOM     47  C28 UNL     1      -1.202   2.108   4.791  0.00  0.00    +0.139 C 
INPUT-LIGAND-PDBQT: BRANCH  47  48
INPUT-LIGAND-PDBQT: ATOM     48  C29 UNL     1      -1.166   0.743   5.431  0.00  0.00    -0.030 A 
INPUT-LIGAND-PDBQT: ATOM     49  C30 UNL     1      -2.351   0.122   5.848  0.00  0.00    +0.005 A 
INPUT-LIGAND-PDBQT: ATOM     50  C31 UNL     1      -2.322  -1.133   6.462  0.00  0.00    +0.000 A 
INPUT-LIGAND-PDBQT: ATOM     51  C32 UNL     1      -1.106  -1.780   6.653  0.00  0.00    +0.000 A 
INPUT-LIGAND-PDBQT: ATOM     52  C33 UNL     1       0.079  -1.186   6.219  0.00  0.00    +0.000 A 
INPUT-LIGAND-PDBQT: ATOM     53  C34 UNL     1       0.050   0.069   5.608  0.00  0.00    +0.005 A 
INPUT-LIGAND-PDBQT: ENDBRANCH  47  48
INPUT-LIGAND-PDBQT: ENDBRANCH  45  47
INPUT-LIGAND-PDBQT: ENDBRANCH  42  43
INPUT-LIGAND-PDBQT: BRANCH  42  54
INPUT-LIGAND-PDBQT: ATOM     54  C35 UNL     1      -2.189   3.127   0.366  0.00  0.00    +0.012 C 
INPUT-LIGAND-PDBQT: ATOM     55  C36 UNL     1      -1.044   4.056   0.791  0.00  0.00    +0.009 C 
INPUT-LIGAND-PDBQT: ATOM     56  C37 UNL     1      -2.126   2.941  -1.154  0.00  0.00    +0.009 C 
INPUT-LIGAND-PDBQT: ENDBRANCH  42  54
INPUT-LIGAND-PDBQT: ENDBRANCH  40  42
INPUT-LIGAND-PDBQT: ENDBRANCH  36  38
INPUT-LIGAND-PDBQT: ENDBRANCH  35  36
INPUT-LIGAND-PDBQT: ENDBRANCH  32  35
INPUT-LIGAND-PDBQT: ENDBRANCH   1  32
INPUT-LIGAND-PDBQT: TORSDOF 23


    FINAL DOCKED STATE:
    ________________________


Run:   1 / 20
Time taken for this run:   2.054s

DOCKED: MODEL        1
DOCKED: USER    Run = 1
DOCKED: USER
DOCKED: USER    Estimated Free Energy of Binding    =  +6.86 kcal/mol  [=(1)+(2)+(3)-(4)]
DOCKED: USER
DOCKED: USER    (1) Final Intermolecular Energy     =  +0.00 kcal/mol
DOCKED: USER        vdW + Hbond + desolv Energy     =  +0.00 kcal/mol
DOCKED: USER        Electrostatic Energy            =  +0.00 kcal/mol
DOCKED: USER        Moving Ligand-Fixed Receptor    =  +0.00 kcal/mol
DOCKED: USER        Moving Ligand-Moving Receptor   =  +0.00 kcal/mol
DOCKED: USER    (2) Final Total Internal Energy     = -15.27 kcal/mol
DOCKED: USER    (3) Torsional Free Energy           =  +6.86 kcal/mol
DOCKED: USER    (4) Unbound System's Energy         = -15.27 kcal/mol
DOCKED: USER
DOCKED: USER
DOCKED: REMARK  Name = ligands/ligand_1.pdb
DOCKED: REMARK  34 active torsions:
DOCKED: REMARK  status: ('A' for Active; 'I' for Inactive)
DOCKED: REMARK    1  A    between atoms: C1_1  and  S1_2
DOCKED: REMARK    2  A    between atoms: S1_2  and  C2_3
DOCKED: REMARK    3  A    between atoms: C2_3  and  C3_4
DOCKED: REMARK    4  A    between atoms: C3_4  and  C4_5
DOCKED: REMARK    5  A    between atoms: C4_5  and  N1_6
DOCKED: REMARK    6  A    between atoms: C4_5  and  C15_21
DOCKED: REMARK    7  A    between atoms: C5_7  and  C6_9
DOCKED: REMARK    8  A    between atoms: C6_9  and  N2_10
DOCKED: REMARK    9  A    between atoms: C6_9  and  C12_18
DOCKED: REMARK   10  A    between atoms: C7_11  and  O3_13
DOCKED: REMARK   11  A    between atoms: O3_13  and  C8_14
DOCKED: REMARK   12  A    between atoms: C8_14  and  C9_15
DOCKED: REMARK   13  A    between atoms: C8_14  and  C10_16
DOCKED: REMARK   14  A    between atoms: C8_14  and  C11_17
DOCKED: REMARK   15  A    between atoms: C12_18  and  C13_19
DOCKED: REMARK   16  A    between atoms: C12_18  and  C14_20
DOCKED: REMARK   17  A    between atoms: N3_23  and  C16_24
DOCKED: REMARK   18  A    between atoms: C16_24  and  C17_25
DOCKED: REMARK   19  A    between atoms: C16_24  and  C21_29
DOCKED: REMARK   20  A    between atoms: C17_25  and  C18_26
DOCKED: REMARK   21  A    between atoms: C18_26  and  C19_27
DOCKED: REMARK   22  A    between atoms: C18_26  and  C20_28
DOCKED: REMARK   23  A    between atoms: C21_29  and  O5_30
DOCKED: REMARK   24  A    between atoms: C21_29  and  C22_31
DOCKED: REMARK   25  A    between atoms: C22_31  and  C23_32
DOCKED: REMARK   26  A    between atoms: C23_32  and  C24_33
DOCKED: REMARK   27  A    between atoms: C23_32  and  C25_34
DOCKED: REMARK   28  A    between atoms: N4_36  and  C26_37
DOCKED: REMARK   29  A    between atoms: C26_37  and  C27_38
DOCKED: REMARK   30  A    between atoms: C26_37  and  C35_48
DOCKED: REMARK   31  A    between atoms: N5_40  and  C28_41
DOCKED: REMARK   32  A    between atoms: C28_41  and  C29_42
DOCKED: REMARK   33  A    between atoms: C35_48  and  C36_49
DOCKED: REMARK   34  A    between atoms: C35_48  and  C37_50
DOCKED: REMARK                            x       y       z     vdW  Elec       q    Type
DOCKED: REMARK                         _______ _______ _______ _____ _____    ______ ____
DOCKED: USER                              x       y       z     vdW  Elec       q    Type
DOCKED: USER                           _______ _______ _______ _____ _____    ______ ____
DOCKED: ROOT
DOCKED: ATOM      1  C16 UNL     1      10.064  -0.079  -4.970 +0.00 +0.00    +0.102 C  
DOCKED: ENDROOT
DOCKED: BRANCH   1   4
DOCKED: ATOM      2  C15 UNL     1       8.322  -0.815  -3.393 +0.00 +0.00    +0.234 C  
DOCKED: ATOM      3  O4  UNL     1       7.506  -0.058  -3.924 +0.00 -0.00    -0.274 OA 
DOCKED: ATOM      4  N3  UNL     1       9.644  -0.860  -3.801 +0.00 -0.00    -0.308 N  
DOCKED: ATOM      5  H28 UNL     1      10.089  -1.759  -3.705 +0.00 +0.00    +0.149 HD 
DOCKED: BRANCH   2   6
DOCKED: ATOM      6  C4  UNL     1       7.882  -1.811  -2.289 +0.00 +0.00    +0.160 C  
DOCKED: BRANCH   6   7
DOCKED: ATOM      7  N1  UNL     1       9.086  -2.536  -1.876 +0.00 -0.00    -0.302 N  
DOCKED: ATOM      8  C5  UNL     1       9.442  -3.717  -2.488 +0.00 +0.00    +0.234 C  
DOCKED: ATOM      9  O1  UNL     1       8.725  -4.276  -3.326 +0.00 -0.00    -0.274 OA 
DOCKED: ATOM     10  H9  UNL     1       9.760  -2.023  -1.314 +0.00 +0.00    +0.150 HD 
DOCKED: BRANCH   8  11
DOCKED: ATOM     11  C6  UNL     1      10.794  -4.317  -2.057 +0.00 +0.00    +0.165 C  
DOCKED: BRANCH  11  12
DOCKED: ATOM     12  N2  UNL     1      11.787  -3.741  -2.955 +0.00 -0.00    -0.270 N  
DOCKED: ATOM     13  C7  UNL     1      12.114  -2.428  -2.996 +0.00 +0.00    +0.401 C  
DOCKED: ATOM     14  O2  UNL     1      11.667  -1.574  -2.246 +0.00 -0.00    -0.226 OA 
DOCKED: ATOM     15  H11 UNL     1      12.228  -4.356  -3.636 +0.00 +0.00    +0.153 HD 
DOCKED: BRANCH  13  16
DOCKED: ATOM     16  O3  UNL     1      12.999  -2.234  -3.997 +0.00 -0.00    -0.445 OA 
DOCKED: BRANCH  16  17
DOCKED: ATOM     17  C8  UNL     1      14.330  -1.727  -3.733 +0.00 +0.00    +0.107 C  
DOCKED: ATOM     18  C9  UNL     1      15.027  -2.843  -2.936 +0.00 +0.00    +0.055 C  
DOCKED: ATOM     19  C10 UNL     1      14.284  -0.462  -2.870 +0.00 +0.00    +0.055 C  
DOCKED: ATOM     20  C11 UNL     1      15.109  -1.497  -5.032 +0.00 +0.00    +0.055 C  
DOCKED: ENDBRANCH  16  17
DOCKED: ENDBRANCH  13  16
DOCKED: ENDBRANCH  11  12
DOCKED: BRANCH  11  21
DOCKED: ATOM     21  C12 UNL     1      11.164  -4.049  -0.581 +0.00 +0.00    +0.012 C  
DOCKED: ATOM     22  C13 UNL     1      10.149  -4.624   0.417 +0.00 +0.00    +0.009 C  
DOCKED: ATOM     23  C14 UNL     1      12.572  -4.533  -0.230 +0.00 +0.00    +0.009 C  
DOCKED: ENDBRANCH  11  21
DOCKED: ENDBRANCH   8  11
DOCKED: ENDBRANCH   6   7
DOCKED: BRANCH   6  24
DOCKED: ATOM     24  C3  UNL     1       7.156  -1.271  -1.052 +0.00 +0.00    +0.042 C  
DOCKED: BRANCH  24  25
DOCKED: ATOM     25  C2  UNL     1       8.136  -0.990   0.087 +0.00 +0.00    +0.071 C  
DOCKED: BRANCH  25  27
DOCKED: ATOM     26  C1  UNL     1      10.817  -0.346   0.389 +0.00 +0.00    +0.084 C  
DOCKED: ATOM     27  S1  UNL     1       9.314   0.329  -0.351 +0.00 -0.00    -0.164 S  
DOCKED: ENDBRANCH  25  27
DOCKED: ENDBRANCH  24  25
DOCKED: ENDBRANCH   6  24
DOCKED: ENDBRANCH   2   6
DOCKED: ENDBRANCH   1   4
DOCKED: BRANCH   1  28
DOCKED: ATOM     28  C17 UNL     1      10.473   1.360  -4.593 +0.00 +0.00    +0.028 C  
DOCKED: BRANCH  28  29
DOCKED: ATOM     29  C18 UNL     1      11.783   1.514  -3.784 +0.00 -0.00    -0.015 C  
DOCKED: ATOM     30  C19 UNL     1      12.882   2.225  -4.574 +0.00 +0.00    +0.007 C  
DOCKED: ATOM     31  C20 UNL     1      11.587   2.188  -2.430 +0.00 +0.00    +0.007 C  
DOCKED: ENDBRANCH  28  29
DOCKED: ENDBRANCH   1  28
DOCKED: BRANCH   1  32
DOCKED: ATOM     32  C21 UNL     1      11.128  -0.838  -5.820 +0.00 +0.00    +0.135 C  
DOCKED: BRANCH  32  33
DOCKED: ATOM     33  O5  UNL     1      10.800  -2.241  -5.733 +0.00 -0.00    -0.390 OA 
DOCKED: ATOM     34  H40 UNL     1      11.485  -2.654  -5.176 +0.00 +0.00    +0.210 HD 
DOCKED: ENDBRANCH  32  33
DOCKED: BRANCH  32  35
DOCKED: ATOM     35  C22 UNL     1      11.259  -0.558  -7.329 +0.00 +0.00    +0.045 C  
DOCKED: BRANCH  35  36
DOCKED: ATOM     36  C23 UNL     1      12.366  -1.159  -8.210 +0.00 +0.00    +0.074 C  
DOCKED: ATOM     37  C24 UNL     1      13.739  -0.523  -8.018 +0.00 +0.00    +0.017 C  
DOCKED: BRANCH  36  38
DOCKED: ATOM     38  C25 UNL     1      12.508  -2.675  -8.167 +0.00 +0.00    +0.217 C  
DOCKED: ATOM     39  O6  UNL     1      12.251  -3.417  -9.110 +0.00 -0.00    -0.276 OA 
DOCKED: ATOM     40  N4  UNL     1      12.863  -3.150  -6.930 +0.00 -0.00    -0.304 N  
DOCKED: ATOM     41  H47 UNL     1      12.987  -2.510  -6.148 +0.00 +0.00    +0.149 HD 
DOCKED: BRANCH  40  42
DOCKED: ATOM     42  C26 UNL     1      12.862  -4.572  -6.586 +0.00 +0.00    +0.161 C  
DOCKED: BRANCH  42  43
DOCKED: ATOM     43  C27 UNL     1      11.379  -4.896  -6.314 +0.00 +0.00    +0.234 C  
DOCKED: ATOM     44  O7  UNL     1      10.907  -4.861  -5.176 +0.00 -0.00    -0.274 OA 
DOCKED: ATOM     45  N5  UNL     1      10.652  -5.241  -7.428 +0.00 -0.00    -0.310 N  
DOCKED: ATOM     46  H49 UNL     1      11.038  -5.077  -8.347 +0.00 +0.00    +0.149 HD 
DOCKED: BRANCH  45  47
DOCKED: ATOM     47  C28 UNL     1       9.231  -5.496  -7.350 +0.00 +0.00    +0.139 C  
DOCKED: BRANCH  47  48
DOCKED: ATOM     48  C29 UNL     1       8.457  -4.245  -7.017 +0.00 -0.00    -0.030 A  
DOCKED: ATOM     49  C30 UNL     1       8.673  -3.063  -7.739 +0.00 +0.00    +0.005 A  
DOCKED: ATOM     50  C31 UNL     1       7.975  -1.895  -7.422 +0.00 +0.00    +0.000 A  
DOCKED: ATOM     51  C32 UNL     1       7.048  -1.904  -6.385 +0.00 +0.00    +0.000 A  
DOCKED: ATOM     52  C33 UNL     1       6.804  -3.080  -5.675 +0.00 +0.00    +0.000 A  
DOCKED: ATOM     53  C34 UNL     1       7.503  -4.246  -5.991 +0.00 +0.00    +0.005 A  
DOCKED: ENDBRANCH  47  48
DOCKED: ENDBRANCH  45  47
DOCKED: ENDBRANCH  42  43
DOCKED: BRANCH  42  54
DOCKED: ATOM     54  C35 UNL     1      13.738  -4.866  -5.348 +0.00 +0.00    +0.012 C  
DOCKED: ATOM     55  C36 UNL     1      13.443  -6.245  -4.743 +0.00 +0.00    +0.009 C  
DOCKED: ATOM     56  C37 UNL     1      15.230  -4.795  -5.693 +0.00 +0.00    +0.009 C  
DOCKED: ENDBRANCH  42  54
DOCKED: ENDBRANCH  40  42
DOCKED: ENDBRANCH  36  38
DOCKED: ENDBRANCH  35  36
DOCKED: ENDBRANCH  32  35
DOCKED: ENDBRANCH   1  32
DOCKED: TORSDOF 23
DOCKED: TER
DOCKED: ENDMDL
________________________________________________________________________________


    FINAL DOCKED STATE:
    ________________________


Run:   2 / 20
Time taken for this run:   2.054s

DOCKED: MODEL        2
DOCKED: USER    Run = 2
DOCKED: USER
DOCKED: USER    Estimated Free Energy of Binding    =  +6.86 kcal/mol  [=(1)+(2)+(3)-(4)]
DOCKED: USER
DOCKED: USER    (1) Final Intermolecular Energy     =  +0.00 kcal/mol
DOCKED: USER        vdW + Hbond + desolv Energy     =  +0.00 kcal/mol
DOCKED: USER        Electrostatic Energy            =  +0.00 kcal/mol
DOCKED: USER        Moving Ligand-Fixed Receptor    =  +0.00 kcal/mol
DOCKED: USER        Moving Ligand-Moving Receptor   =  +0.00 kcal/mol
DOCKED: USER    (2) Final Total Internal Energy     = -15.01 kcal/mol
DOCKED: USER    (3) Torsional Free Energy           =  +6.86 kcal/mol
DOCKED: USER    (4) Unbound System's Energy         = -15.01 kcal/mol
DOCKED: USER
DOCKED: USER
DOCKED: REMARK  Name = ligands/ligand_1.pdb
DOCKED: REMARK  34 active torsions:
DOCKED: REMARK  status: ('A' for Active; 'I' for Inactive)
DOCKED: REMARK    1  A    between atoms: C1_1  and  S1_2
DOCKED: REMARK    2  A    between atoms: S1_2  and  C2_3
DOCKED: REMARK    3  A    between atoms: C2_3  and  C3_4
DOCKED: REMARK    4  A    between atoms: C3_4  and  C4_5
DOCKED: REMARK    5  A    between atoms: C4_5  and  N1_6
DOCKED: REMARK    6  A    between atoms: C4_5  and  C15_21
DOCKED: REMARK    7  A    between atoms: C5_7  and  C6_9
DOCKED: REMARK    8  A    between atoms: C6_9  and  N2_10
DOCKED: REMARK    9  A    between atoms: C6_9  and  C12_18
DOCKED: REMARK   10  A    between atoms: C7_11  and  O3_13
DOCKED: REMARK   11  A    between atoms: O3_13  and  C8_14
DOCKED: REMARK   12  A    between atoms: C8_14  and  C9_15
DOCKED: REMARK   13  A    between atoms: C8_14  and  C10_16
DOCKED: REMARK   14  A    between atoms: C8_14  and  C11_17
DOCKED: REMARK   15  A    between atoms: C12_18  and  C13_19
DOCKED: REMARK   16  A    between atoms: C12_18  and  C14_20
DOCKED: REMARK   17  A    between atoms: N3_23  and  C16_24
DOCKED: REMARK   18  A    between atoms: C16_24  and  C17_25
DOCKED: REMARK   19  A    between atoms: C16_24  and  C21_29
DOCKED: REMARK   20  A    between atoms: C17_25  and  C18_26
DOCKED: REMARK   21  A    between atoms: C18_26  and  C19_27
DOCKED: REMARK   22  A    between atoms: C18_26  and  C20_28
DOCKED: REMARK   23  A    between atoms: C21_29  and  O5_30
DOCKED: REMARK   24  A    between atoms: C21_29  and  C22_31
DOCKED: REMARK   25  A    between atoms: C22_31  and  C23_32
DOCKED: REMARK   26  A    between atoms: C23_32  and  C24_33
DOCKED: REMARK   27  A    between atoms: C23_32  and  C25_34
DOCKED: REMARK   28  A    between atoms: N4_36  and  C26_37
DOCKED: REMARK   29  A    between atoms: C26_37  and  C27_38
DOCKED: REMARK   30  A    between atoms: C26_37  and  C35_48
DOCKED: REMARK   31  A    between atoms: N5_40  and  C28_41
DOCKED: REMARK   32  A    between atoms: C28_41  and  C29_42
DOCKED: REMARK   33  A    between atoms: C35_48  and  C36_49
DOCKED: REMARK   34  A    between atoms: C35_48  and  C37_50
DOCKED: REMARK                            x       y       z     vdW  Elec       q    Type
DOCKED: REMARK                         _______ _______ _______ _____ _____    ______ ____
DOCKED: USER                              x       y       z     vdW  Elec       q    Type
DOCKED: USER                           _______ _______ _______ _____ _____    ______ ____
DOCKED: ROOT
DOCKED: ATOM      1  C16 UNL     1      16.318  -7.559   0.081 +0.00 +0.00    +0.102 C  
DOCKED: ENDROOT
DOCKED: BRANCH   1   4
DOCKED: ATOM      2  C15 UNL     1      16.917  -5.220  -0.399 +0.00 +0.00    +0.234 C  
DOCKED: ATOM      3  O4  UNL     1      17.262  -5.531  -1.542 +0.00 -0.00    -0.274 OA 
DOCKED: ATOM      4  N3  UNL     1      16.485  -6.167   0.513 +0.00 -0.00    -0.308 N  
DOCKED: ATOM      5  H28 UNL     1      15.799  -5.839   1.174 +0.00 +0.00    +0.149 HD 
DOCKED: BRANCH   2   6
DOCKED: ATOM      6  C4  UNL     1      16.879  -3.734   0.043 +0.00 +0.00    +0.160 C  
DOCKED: BRANCH   6   7
DOCKED: ATOM      7  N1  UNL     1      15.803  -3.619   1.030 +0.00 -0.00    -0.302 N  
DOCKED: ATOM      8  C5  UNL     1      14.997  -2.504   1.065 +0.00 +0.00    +0.234 C  
DOCKED: ATOM      9  O1  UNL     1      15.199  -1.512   0.355 +0.00 -0.00    -0.274 OA 
DOCKED: ATOM     10  H9  UNL     1      15.523  -4.473   1.505 +0.00 +0.00    +0.150 HD 
DOCKED: BRANCH   8  11
DOCKED: ATOM     11  C6  UNL     1      13.820  -2.555   2.060 +0.00 +0.00    +0.165 C  
DOCKED: BRANCH  11  12
DOCKED: ATOM     12  N2  UNL     1      14.411  -2.862   3.356 +0.00 -0.00    -0.270 N  
DOCKED: ATOM     13  C7  UNL     1      14.850  -4.088   3.728 +0.00 +0.00    +0.401 C  
DOCKED: ATOM     14  O2  UNL     1      14.865  -5.073   3.006 +0.00 -0.00    -0.226 OA 
DOCKED: ATOM     15  H11 UNL     1      14.450  -2.119   4.051 +0.00 +0.00    +0.153 HD 
DOCKED: BRANCH  13  16
DOCKED: ATOM     16  O3  UNL     1      15.254  -4.030   5.015 +0.00 -0.00    -0.445 OA 
DOCKED: BRANCH  16  17
DOCKED: ATOM     17  C8  UNL     1      14.298  -3.910   6.097 +0.00 +0.00    +0.107 C  
DOCKED: ATOM     18  C9  UNL     1      14.505  -2.490   6.651 +0.00 +0.00    +0.055 C  
DOCKED: ATOM     19  C10 UNL     1      14.589  -4.920   7.212 +0.00 +0.00    +0.055 C  
DOCKED: ATOM     20  C11 UNL     1      12.859  -4.029   5.588 +0.00 +0.00    +0.055 C  
DOCKED: ENDBRANCH  16  17
DOCKED: ENDBRANCH  13  16
DOCKED: ENDBRANCH  11  12
DOCKED: BRANCH  11  21
DOCKED: ATOM     21  C12 UNL     1      12.992  -1.251   2.127 +0.00 +0.00    +0.012 C  
DOCKED: ATOM     22  C13 UNL     1      12.049  -1.064   0.930 +0.00 +0.00    +0.009 C  
DOCKED: ATOM     23  C14 UNL     1      12.209  -1.120   3.435 +0.00 +0.00    +0.009 C  
DOCKED: ENDBRANCH  11  21
DOCKED: ENDBRANCH   8  11
DOCKED: ENDBRANCH   6   7
DOCKED: BRANCH   6  24
DOCKED: ATOM     24  C3  UNL     1      18.157  -3.094   0.596 +0.00 +0.00    +0.042 C  
DOCKED: BRANCH  24  25
DOCKED: ATOM     25  C2  UNL     1      18.881  -4.042   1.554 +0.00 +0.00    +0.071 C  
DOCKED: BRANCH  25  27
DOCKED: ATOM     26  C1  UNL     1      17.900  -5.493   3.705 +0.00 +0.00    +0.084 C  
DOCKED: ATOM     27  S1  UNL     1      18.342  -3.795   3.277 +0.00 -0.00    -0.164 S  
DOCKED: ENDBRANCH  25  27
DOCKED: ENDBRANCH  24  25
DOCKED: ENDBRANCH   6  24
DOCKED: ENDBRANCH   2   6
DOCKED: ENDBRANCH   1   4
DOCKED: BRANCH   1  28
DOCKED: ATOM     28  C17 UNL     1      17.596  -8.396   0.304 +0.00 +0.00    +0.028 C  
DOCKED: BRANCH  28  29
DOCKED: ATOM     29  C18 UNL     1      18.617  -7.834   1.322 +0.00 -0.00    -0.015 C  
DOCKED: ATOM     30  C19 UNL     1      18.937  -8.825   2.441 +0.00 +0.00    +0.007 C  
DOCKED: ATOM     31  C20 UNL     1      19.905  -7.333   0.677 +0.00 +0.00    +0.007 C  
DOCKED: ENDBRANCH  28  29
DOCKED: ENDBRANCH   1  28
DOCKED: BRANCH   1  32
DOCKED: ATOM     32  C21 UNL     1      15.029  -8.200   0.680 +0.00 +0.00    +0.135 C  
DOCKED: BRANCH  32  33
DOCKED: ATOM     33  O5  UNL     1      14.662  -7.394   1.821 +0.00 -0.00    -0.390 OA 
DOCKED: ATOM     34  H40 UNL     1      14.565  -6.479   1.498 +0.00 +0.00    +0.210 HD 
DOCKED: ENDBRANCH  32  33
DOCKED: BRANCH  32  35
DOCKED: ATOM     35  C22 UNL     1      13.745  -8.295  -0.163 +0.00 +0.00    +0.045 C  
DOCKED: BRANCH  35  36
DOCKED: ATOM     36  C23 UNL     1      12.998  -7.070  -0.713 +0.00 +0.00    +0.074 C  
DOCKED: ATOM     37  C24 UNL     1      11.651  -7.388  -1.354 +0.00 +0.00    +0.017 C  
DOCKED: BRANCH  36  38
DOCKED: ATOM     38  C25 UNL     1      12.829  -5.900   0.248 +0.00 +0.00    +0.217 C  
DOCKED: ATOM     39  O6  UNL     1      13.761  -5.266   0.732 +0.00 -0.00    -0.276 OA 
DOCKED: ATOM     40  N4  UNL     1      11.523  -5.679   0.605 +0.00 -0.00    -0.304 N  
DOCKED: ATOM     41  H47 UNL     1      10.782  -6.279   0.249 +0.00 +0.00    +0.149 HD 
DOCKED: BRANCH  40  42
DOCKED: ATOM     42  C26 UNL     1      11.127  -4.754   1.667 +0.00 +0.00    +0.161 C  
DOCKED: BRANCH  42  43
DOCKED: ATOM     43  C27 UNL     1      11.081  -5.627   2.936 +0.00 +0.00    +0.234 C  
DOCKED: ATOM     44  O7  UNL     1      10.042  -5.779   3.581 +0.00 -0.00    -0.274 OA 
DOCKED: ATOM     45  N5  UNL     1      12.285  -6.192   3.289 +0.00 -0.00    -0.310 N  
DOCKED: ATOM     46  H49 UNL     1      13.052  -6.184   2.632 +0.00 +0.00    +0.149 HD 
DOCKED: BRANCH  45  47
DOCKED: ATOM     47  C28 UNL     1      12.389  -7.100   4.409 +0.00 +0.00    +0.139 C  
DOCKED: BRANCH  47  48
DOCKED: ATOM     48  C29 UNL     1      13.651  -7.923   4.344 +0.00 -0.00    -0.030 A  
DOCKED: ATOM     49  C30 UNL     1      14.864  -7.403   4.815 +0.00 +0.00    +0.005 A  
DOCKED: ATOM     50  C31 UNL     1      16.041  -8.152   4.737 +0.00 +0.00    +0.000 A  
DOCKED: ATOM     51  C32 UNL     1      16.010  -9.433   4.195 +0.00 +0.00    +0.000 A  
DOCKED: ATOM     52  C33 UNL     1      14.805  -9.974   3.747 +0.00 +0.00    +0.000 A  
DOCKED: ATOM     53  C34 UNL     1      13.630  -9.224   3.823 +0.00 +0.00    +0.005 A  
DOCKED: ENDBRANCH  47  48
DOCKED: ENDBRANCH  45  47
DOCKED: ENDBRANCH  42  43
DOCKED: BRANCH  42  54
DOCKED: ATOM     54  C35 UNL     1       9.754  -4.103   1.382 +0.00 +0.00    +0.012 C  
DOCKED: ATOM     55  C36 UNL     1       9.428  -2.980   2.376 +0.00 +0.00    +0.009 C  
DOCKED: ATOM     56  C37 UNL     1       9.693  -3.530  -0.038 +0.00 +0.00    +0.009 C  
DOCKED: ENDBRANCH  42  54
DOCKED: ENDBRANCH  40  42
DOCKED: ENDBRANCH  36  38
DOCKED: ENDBRANCH  35  36
DOCKED: ENDBRANCH  32  35
DOCKED: ENDBRANCH   1  32
DOCKED: TORSDOF 23
DOCKED: TER
DOCKED: ENDMDL
________________________________________________________________________________


    FINAL DOCKED STATE:
    ________________________


Run:   3 / 20
Time taken for this run:   2.054s

DOCKED: MODEL        3
DOCKED: USER    Run = 3
DOCKED: USER
DOCKED: USER    Estimated Free Energy of Binding    =  +6.86 kcal/mol  [=(1)+(2)+(3)-(4)]
DOCKED: USER
DOCKED: USER    (1) Final Intermolecular Energy     =  +0.00 kcal/mol
DOCKED: USER        vdW + Hbond + desolv Energy     =  +0.00 kcal/mol
DOCKED: USER        Electrostatic Energy            =  +0.00 kcal/mol
DOCKED: USER        Moving Ligand-Fixed Receptor    =  +0.00 kcal/mol
DOCKED: USER        Moving Ligand-Moving Receptor   =  +0.00 kcal/mol
DOCKED: USER    (2) Final Total Internal Energy     = -15.02 kcal/mol
DOCKED: USER    (3) Torsional Free Energy           =  +6.86 kcal/mol
DOCKED: USER    (4) Unbound System's Energy         = -15.02 kcal/mol
DOCKED: USER
DOCKED: USER
DOCKED: REMARK  Name = ligands/ligand_1.pdb
DOCKED: REMARK  34 active torsions:
DOCKED: REMARK  status: ('A' for Active; 'I' for Inactive)
DOCKED: REMARK    1  A    between atoms: C1_1  and  S1_2
DOCKED: REMARK    2  A    between atoms: S1_2  and  C2_3
DOCKED: REMARK    3  A    between atoms: C2_3  and  C3_4
DOCKED: REMARK    4  A    between atoms: C3_4  and  C4_5
DOCKED: REMARK    5  A    between atoms: C4_5  and  N1_6
DOCKED: REMARK    6  A    between atoms: C4_5  and  C15_21
DOCKED: REMARK    7  A    between atoms: C5_7  and  C6_9
DOCKED: REMARK    8  A    between atoms: C6_9  and  N2_10
DOCKED: REMARK    9  A    between atoms: C6_9  and  C12_18
DOCKED: REMARK   10  A    between atoms: C7_11  and  O3_13
DOCKED: REMARK   11  A    between atoms: O3_13  and  C8_14
DOCKED: REMARK   12  A    between atoms: C8_14  and  C9_15
DOCKED: REMARK   13  A    between atoms: C8_14  and  C10_16
DOCKED: REMARK   14  A    between atoms: C8_14  and  C11_17
DOCKED: REMARK   15  A    between atoms: C12_18  and  C13_19
DOCKED: REMARK   16  A    between atoms: C12_18  and  C14_20
DOCKED: REMARK   17  A    between atoms: N3_23  and  C16_24
DOCKED: REMARK   18  A    between atoms: C16_24  and  C17_25
DOCKED: REMARK   19  A    between atoms: C16_24  and  C21_29
DOCKED: REMARK   20  A    between atoms: C17_25  and  C18_26
DOCKED: REMARK   21  A    between atoms: C18_26  and  C19_27
DOCKED: REMARK   22  A    between atoms: C18_26  and  C20_28
DOCKED: REMARK   23  A    between atoms: C21_29  and  O5_30
DOCKED: REMARK   24  A    between atoms: C21_29  and  C22_31
DOCKED: REMARK   25  A    between atoms: C22_31  and  C23_32
DOCKED: REMARK   26  A    between atoms: C23_32  and  C24_33
DOCKED: REMARK   27  A    between atoms: C23_32  and  C25_34
DOCKED: REMARK   28  A    between atoms: N4_36  and  C26_37
DOCKED: REMARK   29  A    between atoms: C26_37  and  C27_38
DOCKED: REMARK   30  A    between atoms: C26_37  and  C35_48
DOCKED: REMARK   31  A    between atoms: N5_40  and  C28_41
DOCKED: REMARK   32  A    between atoms: C28_41  and  C29_42
DOCKED: REMARK   33  A    between atoms: C35_48  and  C36_49
DOCKED: REMARK   34  A    between atoms: C35_48  and  C37_50
DOCKED: REMARK                            x       y       z     vdW  Elec       q    Type
DOCKED: REMARK                         _______ _______ _______ _____ _____    ______ ____
DOCKED: USER                              x       y       z     vdW  Elec       q    Type
DOCKED: USER                           _______ _______ _______ _____ _____    ______ ____
DOCKED: ROOT
DOCKED: ATOM      1  C16 UNL     1      18.103  -3.455   0.633 +0.00 +0.00    +0.102 C  
DOCKED: ENDROOT
DOCKED: BRANCH   1   4
DOCKED: ATOM      2  C15 UNL     1      18.439  -4.202  -1.690 +0.00 +0.00    +0.234 C  
DOCKED: ATOM      3  O4  UNL     1      19.662  -4.186  -1.529 +0.00 -0.00    -0.274 OA 
DOCKED: ATOM      4  N3  UNL     1      17.570  -3.798  -0.690 +0.00 -0.00    -0.308 N  
DOCKED: ATOM      5  H28 UNL     1      16.680  -4.271  -0.684 +0.00 +0.00    +0.149 HD 
DOCKED: BRANCH   2   6
DOCKED: ATOM      6  C4  UNL     1      17.815  -4.751  -2.998 +0.00 +0.00    +0.160 C  
DOCKED: BRANCH   6   7
DOCKED: ATOM      7  N1  UNL     1      16.514  -5.317  -2.637 +0.00 -0.00    -0.302 N  
DOCKED: ATOM      8  C5  UNL     1      16.070  -6.486  -3.213 +0.00 +0.00    +0.234 C  
DOCKED: ATOM      9  O1  UNL     1      16.680  -7.052  -4.128 +0.00 -0.00    -0.274 OA 
DOCKED: ATOM     10  H9  UNL     1      16.080  -4.963  -1.789 +0.00 +0.00    +0.150 HD 
DOCKED: BRANCH   8  11
DOCKED: ATOM     11  C6  UNL     1      14.747  -7.050  -2.658 +0.00 +0.00    +0.165 C  
DOCKED: BRANCH  11  12
DOCKED: ATOM     12  N2  UNL     1      13.788  -5.957  -2.736 +0.00 -0.00    -0.270 N  
DOCKED: ATOM     13  C7  UNL     1      13.747  -4.908  -1.880 +0.00 +0.00    +0.401 C  
DOCKED: ATOM     14  O2  UNL     1      14.545  -4.714  -0.977 +0.00 -0.00    -0.226 OA 
DOCKED: ATOM     15  H11 UNL     1      13.062  -6.009  -3.450 +0.00 +0.00    +0.153 HD 
DOCKED: BRANCH  13  16
DOCKED: ATOM     16  O3  UNL     1      12.684  -4.136  -2.193 +0.00 -0.00    -0.445 OA 
DOCKED: BRANCH  16  17
DOCKED: ATOM     17  C8  UNL     1      11.332  -4.564  -1.896 +0.00 +0.00    +0.107 C  
DOCKED: ATOM     18  C9  UNL     1      10.700  -4.856  -3.268 +0.00 +0.00    +0.055 C  
DOCKED: ATOM     19  C10 UNL     1      10.532  -3.449  -1.214 +0.00 +0.00    +0.055 C  
DOCKED: ATOM     20  C11 UNL     1      11.321  -5.853  -1.070 +0.00 +0.00    +0.055 C  
DOCKED: ENDBRANCH  16  17
DOCKED: ENDBRANCH  13  16
DOCKED: ENDBRANCH  11  12
DOCKED: BRANCH  11  21
DOCKED: ATOM     21  C12 UNL     1      14.226  -8.296  -3.410 +0.00 +0.00    +0.012 C  
DOCKED: ATOM     22  C13 UNL     1      15.015  -9.574  -3.093 +0.00 +0.00    +0.009 C  
DOCKED: ATOM     23  C14 UNL     1      12.732  -8.535  -3.186 +0.00 +0.00    +0.009 C  
DOCKED: ENDBRANCH  11  21
DOCKED: ENDBRANCH   8  11
DOCKED: ENDBRANCH   6   7
DOCKED: BRANCH   6  24
DOCKED: ATOM     24  C3  UNL     1      17.652  -3.805  -4.194 +0.00 +0.00    +0.042 C  
DOCKED: BRANCH  24  25
DOCKED: ATOM     25  C2  UNL     1      17.076  -2.457  -3.758 +0.00 +0.00    +0.071 C  
DOCKED: BRANCH  25  27
DOCKED: ATOM     26  C1  UNL     1      14.950  -1.758  -2.120 +0.00 +0.00    +0.084 C  
DOCKED: ATOM     27  S1  UNL     1      15.255  -2.477  -3.748 +0.00 -0.00    -0.164 S  
DOCKED: ENDBRANCH  25  27
DOCKED: ENDBRANCH  24  25
DOCKED: ENDBRANCH   6  24
DOCKED: ENDBRANCH   2   6
DOCKED: ENDBRANCH   1   4
DOCKED: BRANCH   1  28
DOCKED: ATOM     28  C17 UNL     1      18.438  -1.953   0.754 +0.00 +0.00    +0.028 C  
DOCKED: BRANCH  28  29
DOCKED: ATOM     29  C18 UNL     1      17.670  -0.998  -0.190 +0.00 -0.00    -0.015 C  
DOCKED: ATOM     30  C19 UNL     1      17.043   0.183   0.552 +0.00 +0.00    +0.007 C  
DOCKED: ATOM     31  C20 UNL     1      18.506  -0.500  -1.363 +0.00 +0.00    +0.007 C  
DOCKED: ENDBRANCH  28  29
DOCKED: ENDBRANCH   1  28
DOCKED: BRANCH   1  32
DOCKED: ATOM     32  C21 UNL     1      17.196  -3.997   1.779 +0.00 +0.00    +0.135 C  
DOCKED: BRANCH  32  33
DOCKED: ATOM     33  O5  UNL     1      15.899  -4.245   1.195 +0.00 -0.00    -0.390 OA 
DOCKED: ATOM     34  H40 UNL     1      16.040  -4.864   0.455 +0.00 +0.00    +0.210 HD 
DOCKED: ENDBRANCH  32  33
DOCKED: BRANCH  32  35
DOCKED: ATOM     35  C22 UNL     1      17.559  -5.306   2.503 +0.00 +0.00    +0.045 C  
DOCKED: BRANCH  35  36
DOCKED: ATOM     36  C23 UNL     1      17.657  -6.667   1.796 +0.00 +0.00    +0.074 C  
DOCKED: ATOM     37  C24 UNL     1      17.858  -7.852   2.735 +0.00 +0.00    +0.017 C  
DOCKED: BRANCH  36  38
DOCKED: ATOM     38  C25 UNL     1      16.541  -6.994   0.813 +0.00 +0.00    +0.217 C  
DOCKED: ATOM     39  O6  UNL     1      16.308  -6.350  -0.205 +0.00 -0.00    -0.276 OA 
DOCKED: ATOM     40  N4  UNL     1      15.745  -8.034   1.224 +0.00 -0.00    -0.304 N  
DOCKED: ATOM     41  H47 UNL     1      15.917  -8.493   2.117 +0.00 +0.00    +0.149 HD 
DOCKED: BRANCH  40  42
DOCKED: ATOM     42  C26 UNL     1      14.495  -8.399   0.560 +0.00 +0.00    +0.161 C  
DOCKED: BRANCH  42  43
DOCKED: ATOM     43  C27 UNL     1      13.417  -7.581   1.299 +0.00 +0.00    +0.234 C  
DOCKED: ATOM     44  O7  UNL     1      12.487  -8.126   1.897 +0.00 -0.00    -0.274 OA 
DOCKED: ATOM     45  N5  UNL     1      13.572  -6.217   1.216 +0.00 -0.00    -0.310 N  
DOCKED: ATOM     46  H49 UNL     1      14.442  -5.834   0.874 +0.00 +0.00    +0.149 HD 
DOCKED: BRANCH  45  47
DOCKED: ATOM     47  C28 UNL     1      12.690  -5.316   1.921 +0.00 +0.00    +0.139 C  
DOCKED: BRANCH  47  48
DOCKED: ATOM     48  C29 UNL     1      13.286  -3.936   2.048 +0.00 -0.00    -0.030 A  
DOCKED: ATOM     49  C30 UNL     1      13.179  -3.017   0.996 +0.00 +0.00    +0.005 A  
DOCKED: ATOM     50  C31 UNL     1      13.749  -1.745   1.098 +0.00 +0.00    +0.000 A  
DOCKED: ATOM     51  C32 UNL     1      14.421  -1.381   2.260 +0.00 +0.00    +0.000 A  
DOCKED: ATOM     52  C33 UNL     1      14.512  -2.276   3.326 +0.00 +0.00    +0.000 A  
DOCKED: ATOM     53  C34 UNL     1      13.945  -3.548   3.222 +0.00 +0.00    +0.005 A  
DOCKED: ENDBRANCH  47  48
DOCKED: ENDBRANCH  45  47
DOCKED: ENDBRANCH  42  43
DOCKED: BRANCH  42  54
DOCKED: ATOM     54  C35 UNL     1      14.213  -9.916   0.655 +0.00 +0.00    +0.012 C  
DOCKED: ATOM     55  C36 UNL     1      13.027 -10.341  -0.221 +0.00 +0.00    +0.009 C  
DOCKED: ATOM     56  C37 UNL     1      15.440 -10.736   0.244 +0.00 +0.00    +0.009 C  
DOCKED: ENDBRANCH  42  54
DOCKED: ENDBRANCH  40  42
DOCKED: ENDBRANCH  36  38
DOCKED: ENDBRANCH  35  36
DOCKED: ENDBRANCH  32  35
DOCKED: ENDBRANCH   1  32
DOCKED: TORSDOF 23
DOCKED: TER
DOCKED: ENDMDL
________________________________________________________________________________


    FINAL DOCKED STATE:
    ________________________


Run:   4 / 20
Time taken for this run:   2.054s

DOCKED: MODEL        4
DOCKED: USER    Run = 4
DOCKED: USER
DOCKED: USER    Estimated Free Energy of Binding    =  +6.86 kcal/mol  [=(1)+(2)+(3)-(4)]
DOCKED: USER
DOCKED: USER    (1) Final Intermolecular Energy     =  +0.00 kcal/mol
DOCKED: USER        vdW + Hbond + desolv Energy     =  +0.00 kcal/mol
DOCKED: USER        Electrostatic Energy            =  +0.00 kcal/mol
DOCKED: USER        Moving Ligand-Fixed Receptor    =  +0.00 kcal/mol
DOCKED: USER        Moving Ligand-Moving Receptor   =  +0.00 kcal/mol
DOCKED: USER    (2) Final Total Internal Energy     = -15.24 kcal/mol
DOCKED: USER    (3) Torsional Free Energy           =  +6.86 kcal/mol
DOCKED: USER    (4) Unbound System's Energy         = -15.24 kcal/mol
DOCKED: USER
DOCKED: USER
DOCKED: REMARK  Name = ligands/ligand_1.pdb
DOCKED: REMARK  34 active torsions:
DOCKED: REMARK  status: ('A' for Active; 'I' for Inactive)
DOCKED: REMARK    1  A    between atoms: C1_1  and  S1_2
DOCKED: REMARK    2  A    between atoms: S1_2  and  C2_3
DOCKED: REMARK    3  A    between atoms: C2_3  and  C3_4
DOCKED: REMARK    4  A    between atoms: C3_4  and  C4_5
DOCKED: REMARK    5  A    between atoms: C4_5  and  N1_6
DOCKED: REMARK    6  A    between atoms: C4_5  and  C15_21
DOCKED: REMARK    7  A    between atoms: C5_7  and  C6_9
DOCKED: REMARK    8  A    between atoms: C6_9  and  N2_10
DOCKED: REMARK    9  A    between atoms: C6_9  and  C12_18
DOCKED: REMARK   10  A    between atoms: C7_11  and  O3_13
DOCKED: REMARK   11  A    between atoms: O3_13  and  C8_14
DOCKED: REMARK   12  A    between atoms: C8_14  and  C9_15
DOCKED: REMARK   13  A    between atoms: C8_14  and  C10_16
DOCKED: REMARK   14  A    between atoms: C8_14  and  C11_17
DOCKED: REMARK   15  A    between atoms: C12_18  and  C13_19
DOCKED: REMARK   16  A    between atoms: C12_18  and  C14_20
DOCKED: REMARK   17  A    between atoms: N3_23  and  C16_24
DOCKED: REMARK   18  A    between atoms: C16_24  and  C17_25
DOCKED: REMARK   19  A    between atoms: C16_24  and  C21_29
DOCKED: REMARK   20  A    between atoms: C17_25  and  C18_26
DOCKED: REMARK   21  A    between atoms: C18_26  and  C19_27
DOCKED: REMARK   22  A    between atoms: C18_26  and  C20_28
DOCKED: REMARK   23  A    between atoms: C21_29  and  O5_30
DOCKED: REMARK   24  A    between atoms: C21_29  and  C22_31
DOCKED: REMARK   25  A    between atoms: C22_31  and  C23_32
DOCKED: REMARK   26  A    between atoms: C23_32  and  C24_33
DOCKED: REMARK   27  A    between atoms: C23_32  and  C25_34
DOCKED: REMARK   28  A    between atoms: N4_36  and  C26_37
DOCKED: REMARK   29  A    between atoms: C26_37  and  C27_38
DOCKED: REMARK   30  A    between atoms: C26_37  and  C35_48
DOCKED: REMARK   31  A    between atoms: N5_40  and  C28_41
DOCKED: REMARK   32  A    between atoms: C28_41  and  C29_42
DOCKED: REMARK   33  A    between atoms: C35_48  and  C36_49
DOCKED: REMARK   34  A    between atoms: C35_48  and  C37_50
DOCKED: REMARK                            x       y       z     vdW  Elec       q    Type
DOCKED: REMARK                         _______ _______ _______ _____ _____    ______ ____
DOCKED: USER                              x       y       z     vdW  Elec       q    Type
DOCKED: USER                           _______ _______ _______ _____ _____    ______ ____
DOCKED: ROOT
DOCKED: ATOM      1  C16 UNL     1       8.723  -3.696  -5.033 +0.00 +0.00    +0.102 C  
DOCKED: ENDROOT
DOCKED: BRANCH   1   4
DOCKED: ATOM      2  C15 UNL     1       9.819  -1.537  -4.583 +0.00 +0.00    +0.234 C  
DOCKED: ATOM      3  O4  UNL     1      10.403  -1.595  -5.668 +0.00 -0.00    -0.274 OA 
DOCKED: ATOM      4  N3  UNL     1       9.000  -2.563  -4.143 +0.00 -0.00    -0.308 N  
DOCKED: ATOM      5  H28 UNL     1       8.227  -2.273  -3.566 +0.00 +0.00    +0.149 HD 
DOCKED: BRANCH   2   6
DOCKED: ATOM      6  C4  UNL     1       9.915  -0.271  -3.695 +0.00 +0.00    +0.160 C  
DOCKED: BRANCH   6   7
DOCKED: ATOM      7  N1  UNL     1       9.278  -0.605  -2.419 +0.00 -0.00    -0.302 N  
DOCKED: ATOM      8  C5  UNL     1       8.783   0.384  -1.599 +0.00 +0.00    +0.234 C  
DOCKED: ATOM      9  O1  UNL     1       8.941   1.588  -1.835 +0.00 -0.00    -0.274 OA 
DOCKED: ATOM     10  H9  UNL     1       8.999  -1.573  -2.286 +0.00 +0.00    +0.150 HD 
DOCKED: BRANCH   8  11
DOCKED: ATOM     11  C6  UNL     1       8.021  -0.097  -0.349 +0.00 +0.00    +0.165 C  
DOCKED: BRANCH  11  12
DOCKED: ATOM     12  N2  UNL     1       6.846  -0.799  -0.847 +0.00 -0.00    -0.270 N  
DOCKED: ATOM     13  C7  UNL     1       6.867  -2.033  -1.403 +0.00 +0.00    +0.401 C  
DOCKED: ATOM     14  O2  UNL     1       7.859  -2.739  -1.498 +0.00 -0.00    -0.226 OA 
DOCKED: ATOM     15  H11 UNL     1       5.953  -0.308  -0.827 +0.00 +0.00    +0.153 HD 
DOCKED: BRANCH  13  16
DOCKED: ATOM     16  O3  UNL     1       5.623  -2.337  -1.829 +0.00 -0.00    -0.445 OA 
DOCKED: BRANCH  16  17
DOCKED: ATOM     17  C8  UNL     1       4.809  -3.314  -1.135 +0.00 +0.00    +0.107 C  
DOCKED: ATOM     18  C9  UNL     1       4.703  -2.787   0.307 +0.00 +0.00    +0.055 C  
DOCKED: ATOM     19  C10 UNL     1       5.489  -4.687  -1.108 +0.00 +0.00    +0.055 C  
DOCKED: ATOM     20  C11 UNL     1       3.400  -3.393  -1.728 +0.00 +0.00    +0.055 C  
DOCKED: ENDBRANCH  16  17
DOCKED: ENDBRANCH  13  16
DOCKED: ENDBRANCH  11  12
DOCKED: BRANCH  11  21
DOCKED: ATOM     21  C12 UNL     1       8.851  -1.006   0.586 +0.00 +0.00    +0.012 C  
DOCKED: ATOM     22  C13 UNL     1      10.130  -0.337   1.110 +0.00 +0.00    +0.009 C  
DOCKED: ATOM     23  C14 UNL     1       8.030  -1.551   1.756 +0.00 +0.00    +0.009 C  
DOCKED: ENDBRANCH  11  21
DOCKED: ENDBRANCH   8  11
DOCKED: ENDBRANCH   6   7
DOCKED: BRANCH   6  24
DOCKED: ATOM     24  C3  UNL     1      11.293   0.349  -3.437 +0.00 +0.00    +0.042 C  
DOCKED: BRANCH  24  25
DOCKED: ATOM     25  C2  UNL     1      11.949  -0.259  -2.197 +0.00 +0.00    +0.071 C  
DOCKED: BRANCH  25  27
DOCKED: ATOM     26  C1  UNL     1      11.470  -2.724  -1.019 +0.00 +0.00    +0.084 C  
DOCKED: ATOM     27  S1  UNL     1      12.337  -2.023  -2.440 +0.00 -0.00    -0.164 S  
DOCKED: ENDBRANCH  25  27
DOCKED: ENDBRANCH  24  25
DOCKED: ENDBRANCH   6  24
DOCKED: ENDBRANCH   2   6
DOCKED: ENDBRANCH   1   4
DOCKED: BRANCH   1  28
DOCKED: ATOM     28  C17 UNL     1       9.700  -4.869  -4.805 +0.00 +0.00    +0.028 C  
DOCKED: BRANCH  28  29
DOCKED: ATOM     29  C18 UNL     1      10.372  -4.944  -3.414 +0.00 -0.00    -0.015 C  
DOCKED: ATOM     30  C19 UNL     1       9.390  -5.329  -2.307 +0.00 +0.00    +0.007 C  
DOCKED: ATOM     31  C20 UNL     1      11.592  -5.857  -3.377 +0.00 +0.00    +0.007 C  
DOCKED: ENDBRANCH  28  29
DOCKED: ENDBRANCH   1  28
DOCKED: BRANCH   1  32
DOCKED: ATOM     32  C21 UNL     1       7.220  -4.107  -4.994 +0.00 +0.00    +0.135 C  
DOCKED: BRANCH  32  33
DOCKED: ATOM     33  O5  UNL     1       6.760  -3.857  -3.649 +0.00 -0.00    -0.390 OA 
DOCKED: ATOM     34  H40 UNL     1       6.921  -2.912  -3.469 +0.00 +0.00    +0.210 HD 
DOCKED: ENDBRANCH  32  33
DOCKED: BRANCH  32  35
DOCKED: ATOM     35  C22 UNL     1       6.197  -3.394  -5.898 +0.00 +0.00    +0.045 C  
DOCKED: BRANCH  35  36
DOCKED: ATOM     36  C23 UNL     1       5.607  -2.010  -5.585 +0.00 +0.00    +0.074 C  
DOCKED: ATOM     37  C24 UNL     1       4.391  -2.037  -4.665 +0.00 +0.00    +0.017 C  
DOCKED: BRANCH  36  38
DOCKED: ATOM     38  C25 UNL     1       6.590  -0.961  -5.082 +0.00 +0.00    +0.217 C  
DOCKED: ATOM     39  O6  UNL     1       6.868  -0.789  -3.899 +0.00 -0.00    -0.276 OA 
DOCKED: ATOM     40  N4  UNL     1       7.069  -0.148  -6.077 +0.00 -0.00    -0.304 N  
DOCKED: ATOM     41  H47 UNL     1       6.751  -0.266  -7.037 +0.00 +0.00    +0.149 HD 
DOCKED: BRANCH  40  42
DOCKED: ATOM     42  C26 UNL     1       7.860   1.055  -5.820 +0.00 +0.00    +0.161 C  
DOCKED: BRANCH  42  43
DOCKED: ATOM     43  C27 UNL     1       6.880   2.011  -5.110 +0.00 +0.00    +0.234 C  
DOCKED: ATOM     44  O7  UNL     1       6.139   2.766  -5.743 +0.00 -0.00    -0.274 OA 
DOCKED: ATOM     45  N5  UNL     1       6.921   1.961  -3.736 +0.00 -0.00    -0.310 N  
DOCKED: ATOM     46  H49 UNL     1       7.408   1.203  -3.279 +0.00 +0.00    +0.149 HD 
DOCKED: BRANCH  45  47
DOCKED: ATOM     47  C28 UNL     1       6.008   2.737  -2.928 +0.00 +0.00    +0.139 C  
DOCKED: BRANCH  47  48
DOCKED: ATOM     48  C29 UNL     1       5.110   1.856  -2.097 +0.00 -0.00    -0.030 A  
DOCKED: ATOM     49  C30 UNL     1       4.323   0.868  -2.705 +0.00 +0.00    +0.005 A  
DOCKED: ATOM     50  C31 UNL     1       3.472   0.063  -1.943 +0.00 +0.00    +0.000 A  
DOCKED: ATOM     51  C32 UNL     1       3.412   0.234  -0.564 +0.00 +0.00    +0.000 A  
DOCKED: ATOM     52  C33 UNL     1       4.210   1.194   0.058 +0.00 +0.00    +0.000 A  
DOCKED: ATOM     53  C34 UNL     1       5.058   2.001  -0.704 +0.00 +0.00    +0.005 A  
DOCKED: ENDBRANCH  47  48
DOCKED: ENDBRANCH  45  47
DOCKED: ENDBRANCH  42  43
DOCKED: BRANCH  42  54
DOCKED: ATOM     54  C35 UNL     1       8.405   1.677  -7.125 +0.00 +0.00    +0.012 C  
DOCKED: ATOM     55  C36 UNL     1       9.566   2.647  -6.864 +0.00 +0.00    +0.009 C  
DOCKED: ATOM     56  C37 UNL     1       8.885   0.595  -8.099 +0.00 +0.00    +0.009 C  
DOCKED: ENDBRANCH  42  54
DOCKED: ENDBRANCH  40  42
DOCKED: ENDBRANCH  36  38
DOCKED: ENDBRANCH  35  36
DOCKED: ENDBRANCH  32  35
DOCKED: ENDBRANCH   1  32
DOCKED: TORSDOF 23
DOCKED: TER
DOCKED: ENDMDL
________________________________________________________________________________


    FINAL DOCKED STATE:
    ________________________


Run:   5 / 20
Time taken for this run:   2.054s

DOCKED: MODEL        5
DOCKED: USER    Run = 5
DOCKED: USER
DOCKED: USER    Estimated Free Energy of Binding    =  +6.86 kcal/mol  [=(1)+(2)+(3)-(4)]
DOCKED: USER
DOCKED: USER    (1) Final Intermolecular Energy     =  +0.00 kcal/mol
DOCKED: USER        vdW + Hbond + desolv Energy     =  +0.00 kcal/mol
DOCKED: USER        Electrostatic Energy            =  +0.00 kcal/mol
DOCKED: USER        Moving Ligand-Fixed Receptor    =  +0.00 kcal/mol
DOCKED: USER        Moving Ligand-Moving Receptor   =  +0.00 kcal/mol
DOCKED: USER    (2) Final Total Internal Energy     = -15.24 kcal/mol
DOCKED: USER    (3) Torsional Free Energy           =  +6.86 kcal/mol
DOCKED: USER    (4) Unbound System's Energy         = -15.24 kcal/mol
DOCKED: USER
DOCKED: USER
DOCKED: REMARK  Name = ligands/ligand_1.pdb
DOCKED: REMARK  34 active torsions:
DOCKED: REMARK  status: ('A' for Active; 'I' for Inactive)
DOCKED: REMARK    1  A    between atoms: C1_1  and  S1_2
DOCKED: REMARK    2  A    between atoms: S1_2  and  C2_3
DOCKED: REMARK    3  A    between atoms: C2_3  and  C3_4
DOCKED: REMARK    4  A    between atoms: C3_4  and  C4_5
DOCKED: REMARK    5  A    between atoms: C4_5  and  N1_6
DOCKED: REMARK    6  A    between atoms: C4_5  and  C15_21
DOCKED: REMARK    7  A    between atoms: C5_7  and  C6_9
DOCKED: REMARK    8  A    between atoms: C6_9  and  N2_10
DOCKED: REMARK    9  A    between atoms: C6_9  and  C12_18
DOCKED: REMARK   10  A    between atoms: C7_11  and  O3_13
DOCKED: REMARK   11  A    between atoms: O3_13  and  C8_14
DOCKED: REMARK   12  A    between atoms: C8_14  and  C9_15
DOCKED: REMARK   13  A    between atoms: C8_14  and  C10_16
DOCKED: REMARK   14  A    between atoms: C8_14  and  C11_17
DOCKED: REMARK   15  A    between atoms: C12_18  and  C13_19
DOCKED: REMARK   16  A    between atoms: C12_18  and  C14_20
DOCKED: REMARK   17  A    between atoms: N3_23  and  C16_24
DOCKED: REMARK   18  A    between atoms: C16_24  and  C17_25
DOCKED: REMARK   19  A    between atoms: C16_24  and  C21_29
DOCKED: REMARK   20  A    between atoms: C17_25  and  C18_26
DOCKED: REMARK   21  A    between atoms: C18_26  and  C19_27
DOCKED: REMARK   22  A    between atoms: C18_26  and  C20_28
DOCKED: REMARK   23  A    between atoms: C21_29  and  O5_30
DOCKED: REMARK   24  A    between atoms: C21_29  and  C22_31
DOCKED: REMARK   25  A    between atoms: C22_31  and  C23_32
DOCKED: REMARK   26  A    between atoms: C23_32  and  C24_33
DOCKED: REMARK   27  A    between atoms: C23_32  and  C25_34
DOCKED: REMARK   28  A    between atoms: N4_36  and  C26_37
DOCKED: REMARK   29  A    between atoms: C26_37  and  C27_38
DOCKED: REMARK   30  A    between atoms: C26_37  and  C35_48
DOCKED: REMARK   31  A    between atoms: N5_40  and  C28_41
DOCKED: REMARK   32  A    between atoms: C28_41  and  C29_42
DOCKED: REMARK   33  A    between atoms: C35_48  and  C36_49
DOCKED: REMARK   34  A    between atoms: C35_48  and  C37_50
DOCKED: REMARK                            x       y       z     vdW  Elec       q    Type
DOCKED: REMARK                         _______ _______ _______ _____ _____    ______ ____
DOCKED: USER                              x       y       z     vdW  Elec       q    Type
DOCKED: USER                           _______ _______ _______ _____ _____    ______ ____
DOCKED: ROOT
DOCKED: ATOM      1  C16 UNL     1      10.484   1.897   3.690 +0.00 +0.00    +0.102 C  
DOCKED: ENDROOT
DOCKED: BRANCH   1   4
DOCKED: ATOM      2  C15 UNL     1       8.047   1.938   3.342 +0.00 +0.00    +0.234 C  
DOCKED: ATOM      3  O4  UNL     1       8.123   3.074   2.868 +0.00 -0.00    -0.274 OA 
DOCKED: ATOM      4  N3  UNL     1       9.161   1.282   3.837 +0.00 -0.00    -0.308 N  
DOCKED: ATOM      5  H28 UNL     1       9.141   0.279   3.739 +0.00 +0.00    +0.149 HD 
DOCKED: BRANCH   2   6
DOCKED: ATOM      6  C4  UNL     1       6.706   1.161   3.333 +0.00 +0.00    +0.160 C  
DOCKED: BRANCH   6   7
DOCKED: ATOM      7  N1  UNL     1       6.969  -0.135   3.963 +0.00 -0.00    -0.302 N  
DOCKED: ATOM      8  C5  UNL     1       7.332  -1.226   3.205 +0.00 +0.00    +0.234 C  
DOCKED: ATOM      9  O1  UNL     1       7.349  -1.203   1.969 +0.00 -0.00    -0.274 OA 
DOCKED: ATOM     10  H9  UNL     1       7.115  -0.134   4.969 +0.00 +0.00    +0.150 HD 
DOCKED: BRANCH   8  11
DOCKED: ATOM     11  C6  UNL     1       7.708  -2.497   3.992 +0.00 +0.00    +0.165 C  
DOCKED: BRANCH  11  12
DOCKED: ATOM     12  N2  UNL     1       9.137  -2.390   4.255 +0.00 -0.00    -0.270 N  
DOCKED: ATOM     13  C7  UNL     1       9.702  -1.456   5.056 +0.00 +0.00    +0.401 C  
DOCKED: ATOM     14  O2  UNL     1       9.084  -0.628   5.707 +0.00 -0.00    -0.226 OA 
DOCKED: ATOM     15  H11 UNL     1       9.761  -3.026   3.762 +0.00 +0.00    +0.153 HD 
DOCKED: BRANCH  13  16
DOCKED: ATOM     16  O3  UNL     1      11.044  -1.596   5.003 +0.00 -0.00    -0.445 OA 
DOCKED: BRANCH  16  17
DOCKED: ATOM     17  C8  UNL     1      11.858  -1.478   6.196 +0.00 +0.00    +0.107 C  
DOCKED: ATOM     18  C9  UNL     1      11.129  -2.322   7.257 +0.00 +0.00    +0.055 C  
DOCKED: ATOM     19  C10 UNL     1      11.926  -0.027   6.683 +0.00 +0.00    +0.055 C  
DOCKED: ATOM     20  C11 UNL     1      13.255  -2.068   5.981 +0.00 +0.00    +0.055 C  
DOCKED: ENDBRANCH  16  17
DOCKED: ENDBRANCH  13  16
DOCKED: ENDBRANCH  11  12
DOCKED: BRANCH  11  21
DOCKED: ATOM     21  C12 UNL     1       6.917  -2.684   5.306 +0.00 +0.00    +0.012 C  
DOCKED: ATOM     22  C13 UNL     1       5.395  -2.694   5.107 +0.00 +0.00    +0.009 C  
DOCKED: ATOM     23  C14 UNL     1       7.350  -3.930   6.080 +0.00 +0.00    +0.009 C  
DOCKED: ENDBRANCH  11  21
DOCKED: ENDBRANCH   8  11
DOCKED: ENDBRANCH   6   7
DOCKED: BRANCH   6  24
DOCKED: ATOM     24  C3  UNL     1       5.473   1.806   3.976 +0.00 +0.00    +0.042 C  
DOCKED: BRANCH  24  25
DOCKED: ATOM     25  C2  UNL     1       5.218   1.241   5.373 +0.00 +0.00    +0.071 C  
DOCKED: BRANCH  25  27
DOCKED: ATOM     26  C1  UNL     1       6.741   0.242   7.465 +0.00 +0.00    +0.084 C  
DOCKED: ATOM     27  S1  UNL     1       6.491   1.784   6.558 +0.00 -0.00    -0.164 S  
DOCKED: ENDBRANCH  25  27
DOCKED: ENDBRANCH  24  25
DOCKED: ENDBRANCH   6  24
DOCKED: ENDBRANCH   2   6
DOCKED: ENDBRANCH   1   4
DOCKED: BRANCH   1  28
DOCKED: ATOM     28  C17 UNL     1      10.811   2.859   4.852 +0.00 +0.00    +0.028 C  
DOCKED: BRANCH  28  29
DOCKED: ATOM     29  C18 UNL     1       9.753   2.967   5.975 +0.00 -0.00    -0.015 C  
DOCKED: ATOM     30  C19 UNL     1      10.361   2.827   7.371 +0.00 +0.00    +0.007 C  
DOCKED: ATOM     31  C20 UNL     1       8.906   4.232   5.894 +0.00 +0.00    +0.007 C  
DOCKED: ENDBRANCH  28  29
DOCKED: ENDBRANCH   1  28
DOCKED: BRANCH   1  32
DOCKED: ATOM     32  C21 UNL     1      11.590   0.832   3.419 +0.00 +0.00    +0.135 C  
DOCKED: BRANCH  32  33
DOCKED: ATOM     33  O5  UNL     1      10.986  -0.187   2.594 +0.00 -0.00    -0.390 OA 
DOCKED: ATOM     34  H40 UNL     1      10.868  -0.972   3.160 +0.00 +0.00    +0.210 HD 
DOCKED: ENDBRANCH  32  33
DOCKED: BRANCH  32  35
DOCKED: ATOM     35  C22 UNL     1      12.881   1.224   2.678 +0.00 +0.00    +0.045 C  
DOCKED: BRANCH  35  36
DOCKED: ATOM     36  C23 UNL     1      14.068   0.270   2.478 +0.00 +0.00    +0.074 C  
DOCKED: ATOM     37  C24 UNL     1      14.915   0.048   3.727 +0.00 +0.00    +0.017 C  
DOCKED: BRANCH  36  38
DOCKED: ATOM     38  C25 UNL     1      13.746  -1.080   1.849 +0.00 +0.00    +0.217 C  
DOCKED: ATOM     39  O6  UNL     1      14.105  -1.419   0.726 +0.00 -0.00    -0.276 OA 
DOCKED: ATOM     40  N4  UNL     1      12.923  -1.856   2.625 +0.00 -0.00    -0.304 N  
DOCKED: ATOM     41  H47 UNL     1      12.576  -1.507   3.516 +0.00 +0.00    +0.149 HD 
DOCKED: BRANCH  40  42
DOCKED: ATOM     42  C26 UNL     1      12.310  -3.097   2.153 +0.00 +0.00    +0.161 C  
DOCKED: BRANCH  42  43
DOCKED: ATOM     43  C27 UNL     1      11.109  -2.630   1.307 +0.00 +0.00    +0.234 C  
DOCKED: ATOM     44  O7  UNL     1       9.977  -2.537   1.786 +0.00 -0.00    -0.274 OA 
DOCKED: ATOM     45  N5  UNL     1      11.403  -2.354  -0.008 +0.00 -0.00    -0.310 N  
DOCKED: ATOM     46  H49 UNL     1      12.367  -2.271  -0.296 +0.00 +0.00    +0.149 HD 
DOCKED: BRANCH  45  47
DOCKED: ATOM     47  C28 UNL     1      10.401  -1.830  -0.909 +0.00 +0.00    +0.139 C  
DOCKED: BRANCH  47  48
DOCKED: ATOM     48  C29 UNL     1      10.007  -0.420  -0.546 +0.00 -0.00    -0.030 A  
DOCKED: ATOM     49  C30 UNL     1      10.987   0.560  -0.339 +0.00 +0.00    +0.005 A  
DOCKED: ATOM     50  C31 UNL     1      10.629   1.863   0.018 +0.00 +0.00    +0.000 A  
DOCKED: ATOM     51  C32 UNL     1       9.287   2.196   0.160 +0.00 +0.00    +0.000 A  
DOCKED: ATOM     52  C33 UNL     1       8.299   1.237  -0.069 +0.00 +0.00    +0.000 A  
DOCKED: ATOM     53  C34 UNL     1       8.657  -0.065  -0.423 +0.00 +0.00    +0.005 A  
DOCKED: ENDBRANCH  47  48
DOCKED: ENDBRANCH  45  47
DOCKED: ENDBRANCH  42  43
DOCKED: BRANCH  42  54
DOCKED: ATOM     54  C35 UNL     1      11.858  -3.998   3.323 +0.00 +0.00    +0.012 C  
DOCKED: ATOM     55  C36 UNL     1      10.868  -5.081   2.873 +0.00 +0.00    +0.009 C  
DOCKED: ATOM     56  C37 UNL     1      13.054  -4.682   3.994 +0.00 +0.00    +0.009 C  
DOCKED: ENDBRANCH  42  54
DOCKED: ENDBRANCH  40  42
DOCKED: ENDBRANCH  36  38
DOCKED: ENDBRANCH  35  36
DOCKED: ENDBRANCH  32  35
DOCKED: ENDBRANCH   1  32
DOCKED: TORSDOF 23
DOCKED: TER
DOCKED: ENDMDL
________________________________________________________________________________


    FINAL DOCKED STATE:
    ________________________


Run:   6 / 20
Time taken for this run:   2.054s

DOCKED: MODEL        6
DOCKED: USER    Run = 6
DOCKED: USER
DOCKED: USER    Estimated Free Energy of Binding    =  +6.86 kcal/mol  [=(1)+(2)+(3)-(4)]
DOCKED: USER
DOCKED: USER    (1) Final Intermolecular Energy     =  +0.00 kcal/mol
DOCKED: USER        vdW + Hbond + desolv Energy     =  +0.00 kcal/mol
DOCKED: USER        Electrostatic Energy            =  +0.00 kcal/mol
DOCKED: USER        Moving Ligand-Fixed Receptor    =  +0.00 kcal/mol
DOCKED: USER        Moving Ligand-Moving Receptor   =  +0.00 kcal/mol
DOCKED: USER    (2) Final Total Internal Energy     = -15.24 kcal/mol
DOCKED: USER    (3) Torsional Free Energy           =  +6.86 kcal/mol
DOCKED: USER    (4) Unbound System's Energy         = -15.24 kcal/mol
DOCKED: USER
DOCKED: USER
DOCKED: REMARK  Name = ligands/ligand_1.pdb
DOCKED: REMARK  34 active torsions:
DOCKED: REMARK  status: ('A' for Active; 'I' for Inactive)
DOCKED: REMARK    1  A    between atoms: C1_1  and  S1_2
DOCKED: REMARK    2  A    between atoms: S1_2  and  C2_3
DOCKED: REMARK    3  A    between atoms: C2_3  and  C3_4
DOCKED: REMARK    4  A    between atoms: C3_4  and  C4_5
DOCKED: REMARK    5  A    between atoms: C4_5  and  N1_6
DOCKED: REMARK    6  A    between atoms: C4_5  and  C15_21
DOCKED: REMARK    7  A    between atoms: C5_7  and  C6_9
DOCKED: REMARK    8  A    between atoms: C6_9  and  N2_10
DOCKED: REMARK    9  A    between atoms: C6_9  and  C12_18
DOCKED: REMARK   10  A    between atoms: C7_11  and  O3_13
DOCKED: REMARK   11  A    between atoms: O3_13  and  C8_14
DOCKED: REMARK   12  A    between atoms: C8_14  and  C9_15
DOCKED: REMARK   13  A    between atoms: C8_14  and  C10_16
DOCKED: REMARK   14  A    between atoms: C8_14  and  C11_17
DOCKED: REMARK   15  A    between atoms: C12_18  and  C13_19
DOCKED: REMARK   16  A    between atoms: C12_18  and  C14_20
DOCKED: REMARK   17  A    between atoms: N3_23  and  C16_24
DOCKED: REMARK   18  A    between atoms: C16_24  and  C17_25
DOCKED: REMARK   19  A    between atoms: C16_24  and  C21_29
DOCKED: REMARK   20  A    between atoms: C17_25  and  C18_26
DOCKED: REMARK   21  A    between atoms: C18_26  and  C19_27
DOCKED: REMARK   22  A    between atoms: C18_26  and  C20_28
DOCKED: REMARK   23  A    between atoms: C21_29  and  O5_30
DOCKED: REMARK   24  A    between atoms: C21_29  and  C22_31
DOCKED: REMARK   25  A    between atoms: C22_31  and  C23_32
DOCKED: REMARK   26  A    between atoms: C23_32  and  C24_33
DOCKED: REMARK   27  A    between atoms: C23_32  and  C25_34
DOCKED: REMARK   28  A    between atoms: N4_36  and  C26_37
DOCKED: REMARK   29  A    between atoms: C26_37  and  C27_38
DOCKED: REMARK   30  A    between atoms: C26_37  and  C35_48
DOCKED: REMARK   31  A    between atoms: N5_40  and  C28_41
DOCKED: REMARK   32  A    between atoms: C28_41  and  C29_42
DOCKED: REMARK   33  A    between atoms: C35_48  and  C36_49
DOCKED: REMARK   34  A    between atoms: C35_48  and  C37_50
DOCKED: REMARK                            x       y       z     vdW  Elec       q    Type
DOCKED: REMARK                         _______ _______ _______ _____ _____    ______ ____
DOCKED: USER                              x       y       z     vdW  Elec       q    Type
DOCKED: USER                           _______ _______ _______ _____ _____    ______ ____
DOCKED: ROOT
DOCKED: ATOM      1  C16 UNL     1       5.418  -8.614   3.158 +0.00 +0.00    +0.102 C  
DOCKED: ENDROOT
DOCKED: BRANCH   1   4
DOCKED: ATOM      2  C15 UNL     1       7.337  -8.022   1.733 +0.00 +0.00    +0.234 C  
DOCKED: ATOM      3  O4  UNL     1       7.338  -9.154   1.244 +0.00 -0.00    -0.274 OA 
DOCKED: ATOM      4  N3  UNL     1       6.456  -7.665   2.740 +0.00 -0.00    -0.308 N  
DOCKED: ATOM      5  H28 UNL     1       6.176  -6.697   2.736 +0.00 +0.00    +0.149 HD 
DOCKED: BRANCH   2   6
DOCKED: ATOM      6  C4  UNL     1       8.278  -6.918   1.185 +0.00 +0.00    +0.160 C  
DOCKED: BRANCH   6   7
DOCKED: ATOM      7  N1  UNL     1       8.171  -5.783   2.103 +0.00 -0.00    -0.302 N  
DOCKED: ATOM      8  C5  UNL     1       8.463  -4.505   1.680 +0.00 +0.00    +0.234 C  
DOCKED: ATOM      9  O1  UNL     1       8.927  -4.263   0.560 +0.00 -0.00    -0.274 OA 
DOCKED: ATOM     10  H9  UNL     1       7.648  -5.934   2.961 +0.00 +0.00    +0.150 HD 
DOCKED: BRANCH   8  11
DOCKED: ATOM     11  C6  UNL     1       8.189  -3.380   2.698 +0.00 +0.00    +0.165 C  
DOCKED: BRANCH  11  12
DOCKED: ATOM     12  N2  UNL     1       6.745  -3.362   2.887 +0.00 -0.00    -0.270 N  
DOCKED: ATOM     13  C7  UNL     1       6.053  -4.281   3.600 +0.00 +0.00    +0.401 C  
DOCKED: ATOM     14  O2  UNL     1       6.554  -5.202   4.225 +0.00 -0.00    -0.226 OA 
DOCKED: ATOM     15  H11 UNL     1       6.210  -2.639   2.407 +0.00 +0.00    +0.153 HD 
DOCKED: BRANCH  13  16
DOCKED: ATOM     16  O3  UNL     1       4.734  -4.007   3.494 +0.00 -0.00    -0.445 OA 
DOCKED: BRANCH  16  17
DOCKED: ATOM     17  C8  UNL     1       3.989  -3.462   4.610 +0.00 +0.00    +0.107 C  
DOCKED: ATOM     18  C9  UNL     1       4.692  -2.135   4.945 +0.00 +0.00    +0.055 C  
DOCKED: ATOM     19  C10 UNL     1       4.066  -4.382   5.833 +0.00 +0.00    +0.055 C  
DOCKED: ATOM     20  C11 UNL     1       2.539  -3.160   4.221 +0.00 +0.00    +0.055 C  
DOCKED: ENDBRANCH  16  17
DOCKED: ENDBRANCH  13  16
DOCKED: ENDBRANCH  11  12
DOCKED: BRANCH  11  21
DOCKED: ATOM     21  C12 UNL     1       8.921  -3.557   4.048 +0.00 +0.00    +0.012 C  
DOCKED: ATOM     22  C13 UNL     1      10.447  -3.637   3.910 +0.00 +0.00    +0.009 C  
DOCKED: ATOM     23  C14 UNL     1       8.544  -2.478   5.066 +0.00 +0.00    +0.009 C  
DOCKED: ENDBRANCH  11  21
DOCKED: ENDBRANCH   8  11
DOCKED: ENDBRANCH   6   7
DOCKED: BRANCH   6  24
DOCKED: ATOM     24  C3  UNL     1       9.755  -7.254   0.950 +0.00 +0.00    +0.042 C  
DOCKED: BRANCH  24  25
DOCKED: ATOM     25  C2  UNL     1      10.589  -6.986   2.203 +0.00 +0.00    +0.071 C  
DOCKED: BRANCH  25  27
DOCKED: ATOM     26  C1  UNL     1       9.746  -6.893   4.844 +0.00 +0.00    +0.084 C  
DOCKED: ATOM     27  S1  UNL     1      10.134  -8.108   3.565 +0.00 -0.00    -0.164 S  
DOCKED: ENDBRANCH  25  27
DOCKED: ENDBRANCH  24  25
DOCKED: ENDBRANCH   6  24
DOCKED: ENDBRANCH   2   6
DOCKED: ENDBRANCH   1   4
DOCKED: BRANCH   1  28
DOCKED: ATOM     28  C17 UNL     1       5.869  -9.483   4.350 +0.00 +0.00    +0.028 C  
DOCKED: BRANCH  28  29
DOCKED: ATOM     29  C18 UNL     1       6.975  -8.890   5.255 +0.00 -0.00    -0.015 C  
DOCKED: ATOM     30  C19 UNL     1       6.485  -7.699   6.079 +0.00 +0.00    +0.007 C  
DOCKED: ATOM     31  C20 UNL     1       7.637  -9.922   6.161 +0.00 +0.00    +0.007 C  
DOCKED: ENDBRANCH  28  29
DOCKED: ENDBRANCH   1  28
DOCKED: BRANCH   1  32
DOCKED: ATOM     32  C21 UNL     1       4.044  -7.909   3.371 +0.00 +0.00    +0.135 C  
DOCKED: BRANCH  32  33
DOCKED: ATOM     33  O5  UNL     1       4.334  -6.582   3.861 +0.00 -0.00    -0.390 OA 
DOCKED: ATOM     34  H40 UNL     1       4.887  -6.149   3.184 +0.00 +0.00    +0.210 HD 
DOCKED: ENDBRANCH  32  33
DOCKED: BRANCH  32  35
DOCKED: ATOM     35  C22 UNL     1       3.091  -7.689   2.182 +0.00 +0.00    +0.045 C  
DOCKED: BRANCH  35  36
DOCKED: ATOM     36  C23 UNL     1       3.273  -6.572   1.143 +0.00 +0.00    +0.074 C  
DOCKED: ATOM     37  C24 UNL     1       2.659  -5.234   1.543 +0.00 +0.00    +0.017 C  
DOCKED: BRANCH  36  38
DOCKED: ATOM     38  C25 UNL     1       4.696  -6.340   0.651 +0.00 +0.00    +0.217 C  
DOCKED: ATOM     39  O6  UNL     1       5.497  -5.584   1.191 +0.00 -0.00    -0.276 OA 
DOCKED: ATOM     40  N4  UNL     1       4.974  -6.988  -0.526 +0.00 -0.00    -0.304 N  
DOCKED: ATOM     41  H47 UNL     1       4.257  -7.541  -0.991 +0.00 +0.00    +0.149 HD 
DOCKED: BRANCH  40  42
DOCKED: ATOM     42  C26 UNL     1       6.193  -6.759  -1.300 +0.00 +0.00    +0.161 C  
DOCKED: BRANCH  42  43
DOCKED: ATOM     43  C27 UNL     1       6.054  -5.311  -1.810 +0.00 +0.00    +0.234 C  
DOCKED: ATOM     44  O7  UNL     1       5.474  -5.049  -2.865 +0.00 -0.00    -0.274 OA 
DOCKED: ATOM     45  N5  UNL     1       6.643  -4.360  -1.009 +0.00 -0.00    -0.310 N  
DOCKED: ATOM     46  H49 UNL     1       6.940  -4.608  -0.076 +0.00 +0.00    +0.149 HD 
DOCKED: BRANCH  45  47
DOCKED: ATOM     47  C28 UNL     1       6.530  -2.950  -1.309 +0.00 +0.00    +0.139 C  
DOCKED: BRANCH  47  48
DOCKED: ATOM     48  C29 UNL     1       5.852  -2.194  -0.195 +0.00 -0.00    -0.030 A  
DOCKED: ATOM     49  C30 UNL     1       4.586  -2.585   0.261 +0.00 +0.00    +0.005 A  
DOCKED: ATOM     50  C31 UNL     1       3.942  -1.875   1.279 +0.00 +0.00    +0.000 A  
DOCKED: ATOM     51  C32 UNL     1       4.568  -0.775   1.854 +0.00 +0.00    +0.000 A  
DOCKED: ATOM     52  C33 UNL     1       5.839  -0.390   1.429 +0.00 +0.00    +0.000 A  
DOCKED: ATOM     53  C34 UNL     1       6.481  -1.098   0.411 +0.00 +0.00    +0.005 A  
DOCKED: ENDBRANCH  47  48
DOCKED: ENDBRANCH  45  47
DOCKED: ENDBRANCH  42  43
DOCKED: BRANCH  42  54
DOCKED: ATOM     54  C35 UNL     1       6.328  -7.757  -2.472 +0.00 +0.00    +0.012 C  
DOCKED: ATOM     55  C36 UNL     1       7.769  -7.846  -2.994 +0.00 +0.00    +0.009 C  
DOCKED: ATOM     56  C37 UNL     1       5.871  -9.161  -2.062 +0.00 +0.00    +0.009 C  
DOCKED: ENDBRANCH  42  54
DOCKED: ENDBRANCH  40  42
DOCKED: ENDBRANCH  36  38
DOCKED: ENDBRANCH  35  36
DOCKED: ENDBRANCH  32  35
DOCKED: ENDBRANCH   1  32
DOCKED: TORSDOF 23
DOCKED: TER
DOCKED: ENDMDL
________________________________________________________________________________


    FINAL DOCKED STATE:
    ________________________


Run:   7 / 20
Time taken for this run:   2.054s

DOCKED: MODEL        7
DOCKED: USER    Run = 7
DOCKED: USER
DOCKED: USER    Estimated Free Energy of Binding    =  +6.86 kcal/mol  [=(1)+(2)+(3)-(4)]
DOCKED: USER
DOCKED: USER    (1) Final Intermolecular Energy     =  +0.00 kcal/mol
DOCKED: USER        vdW + Hbond + desolv Energy     =  +0.00 kcal/mol
DOCKED: USER        Electrostatic Energy            =  +0.00 kcal/mol
DOCKED: USER        Moving Ligand-Fixed Receptor    =  +0.00 kcal/mol
DOCKED: USER        Moving Ligand-Moving Receptor   =  +0.00 kcal/mol
DOCKED: USER    (2) Final Total Internal Energy     = -15.07 kcal/mol
DOCKED: USER    (3) Torsional Free Energy           =  +6.86 kcal/mol
DOCKED: USER    (4) Unbound System's Energy         = -15.07 kcal/mol
DOCKED: USER
DOCKED: USER
DOCKED: REMARK  Name = ligands/ligand_1.pdb
DOCKED: REMARK  34 active torsions:
DOCKED: REMARK  status: ('A' for Active; 'I' for Inactive)
DOCKED: REMARK    1  A    between atoms: C1_1  and  S1_2
DOCKED: REMARK    2  A    between atoms: S1_2  and  C2_3
DOCKED: REMARK    3  A    between atoms: C2_3  and  C3_4
DOCKED: REMARK    4  A    between atoms: C3_4  and  C4_5
DOCKED: REMARK    5  A    between atoms: C4_5  and  N1_6
DOCKED: REMARK    6  A    between atoms: C4_5  and  C15_21
DOCKED: REMARK    7  A    between atoms: C5_7  and  C6_9
DOCKED: REMARK    8  A    between atoms: C6_9  and  N2_10
DOCKED: REMARK    9  A    between atoms: C6_9  and  C12_18
DOCKED: REMARK   10  A    between atoms: C7_11  and  O3_13
DOCKED: REMARK   11  A    between atoms: O3_13  and  C8_14
DOCKED: REMARK   12  A    between atoms: C8_14  and  C9_15
DOCKED: REMARK   13  A    between atoms: C8_14  and  C10_16
DOCKED: REMARK   14  A    between atoms: C8_14  and  C11_17
DOCKED: REMARK   15  A    between atoms: C12_18  and  C13_19
DOCKED: REMARK   16  A    between atoms: C12_18  and  C14_20
DOCKED: REMARK   17  A    between atoms: N3_23  and  C16_24
DOCKED: REMARK   18  A    between atoms: C16_24  and  C17_25
DOCKED: REMARK   19  A    between atoms: C16_24  and  C21_29
DOCKED: REMARK   20  A    between atoms: C17_25  and  C18_26
DOCKED: REMARK   21  A    between atoms: C18_26  and  C19_27
DOCKED: REMARK   22  A    between atoms: C18_26  and  C20_28
DOCKED: REMARK   23  A    between atoms: C21_29  and  O5_30
DOCKED: REMARK   24  A    between atoms: C21_29  and  C22_31
DOCKED: REMARK   25  A    between atoms: C22_31  and  C23_32
DOCKED: REMARK   26  A    between atoms: C23_32  and  C24_33
DOCKED: REMARK   27  A    between atoms: C23_32  and  C25_34
DOCKED: REMARK   28  A    between atoms: N4_36  and  C26_37
DOCKED: REMARK   29  A    between atoms: C26_37  and  C27_38
DOCKED: REMARK   30  A    between atoms: C26_37  and  C35_48
DOCKED: REMARK   31  A    between atoms: N5_40  and  C28_41
DOCKED: REMARK   32  A    between atoms: C28_41  and  C29_42
DOCKED: REMARK   33  A    between atoms: C35_48  and  C36_49
DOCKED: REMARK   34  A    between atoms: C35_48  and  C37_50
DOCKED: REMARK                            x       y       z     vdW  Elec       q    Type
DOCKED: REMARK                         _______ _______ _______ _____ _____    ______ ____
DOCKED: USER                              x       y       z     vdW  Elec       q    Type
DOCKED: USER                           _______ _______ _______ _____ _____    ______ ____
DOCKED: ROOT
DOCKED: ATOM      1  C16 UNL     1      14.997  -0.468   5.316 +0.00 +0.00    +0.102 C  
DOCKED: ENDROOT
DOCKED: BRANCH   1   4
DOCKED: ATOM      2  C15 UNL     1      12.952  -0.951   4.032 +0.00 +0.00    +0.234 C  
DOCKED: ATOM      3  O4  UNL     1      12.354  -0.050   4.626 +0.00 -0.00    -0.274 OA 
DOCKED: ATOM      4  N3  UNL     1      14.260  -1.281   4.342 +0.00 -0.00    -0.308 N  
DOCKED: ATOM      5  H28 UNL     1      14.808  -1.622   3.568 +0.00 +0.00    +0.149 HD 
DOCKED: BRANCH   2   6
DOCKED: ATOM      6  C4  UNL     1      12.286  -1.705   2.852 +0.00 +0.00    +0.160 C  
DOCKED: BRANCH   6   7
DOCKED: ATOM      7  N1  UNL     1      13.040  -2.947   2.671 +0.00 -0.00    -0.302 N  
DOCKED: ATOM      8  C5  UNL     1      13.231  -3.478   1.415 +0.00 +0.00    +0.234 C  
DOCKED: ATOM      9  O1  UNL     1      12.696  -3.008   0.404 +0.00 -0.00    -0.274 OA 
DOCKED: ATOM     10  H9  UNL     1      13.613  -3.255   3.453 +0.00 +0.00    +0.150 HD 
DOCKED: BRANCH   8  11
DOCKED: ATOM     11  C6  UNL     1      14.148  -4.714   1.338 +0.00 +0.00    +0.165 C  
DOCKED: BRANCH  11  12
DOCKED: ATOM     12  N2  UNL     1      15.506  -4.208   1.486 +0.00 -0.00    -0.270 N  
DOCKED: ATOM     13  C7  UNL     1      16.021  -3.713   2.636 +0.00 +0.00    +0.401 C  
DOCKED: ATOM     14  O2  UNL     1      15.436  -3.688   3.708 +0.00 -0.00    -0.226 OA 
DOCKED: ATOM     15  H11 UNL     1      16.095  -4.172   0.655 +0.00 +0.00    +0.153 HD 
DOCKED: BRANCH  13  16
DOCKED: ATOM     16  O3  UNL     1      17.268  -3.257   2.392 +0.00 -0.00    -0.445 OA 
DOCKED: BRANCH  16  17
DOCKED: ATOM     17  C8  UNL     1      18.435  -4.046   2.732 +0.00 +0.00    +0.107 C  
DOCKED: ATOM     18  C9  UNL     1      19.500  -3.641   1.698 +0.00 +0.00    +0.055 C  
DOCKED: ATOM     19  C10 UNL     1      18.156  -5.545   2.589 +0.00 +0.00    +0.055 C  
DOCKED: ATOM     20  C11 UNL     1      18.957  -3.699   4.129 +0.00 +0.00    +0.055 C  
DOCKED: ENDBRANCH  16  17
DOCKED: ENDBRANCH  13  16
DOCKED: ENDBRANCH  11  12
DOCKED: BRANCH  11  21
DOCKED: ATOM     21  C12 UNL     1      13.844  -5.794   2.401 +0.00 +0.00    +0.012 C  
DOCKED: ATOM     22  C13 UNL     1      12.406  -6.327   2.336 +0.00 +0.00    +0.009 C  
DOCKED: ATOM     23  C14 UNL     1      14.835  -6.959   2.356 +0.00 +0.00    +0.009 C  
DOCKED: ENDBRANCH  11  21
DOCKED: ENDBRANCH   8  11
DOCKED: ENDBRANCH   6   7
DOCKED: BRANCH   6  24
DOCKED: ATOM     24  C3  UNL     1      10.787  -2.017   2.926 +0.00 +0.00    +0.042 C  
DOCKED: BRANCH  24  25
DOCKED: ATOM     25  C2  UNL     1      10.536  -3.358   3.616 +0.00 +0.00    +0.071 C  
DOCKED: BRANCH  25  27
DOCKED: ATOM     26  C1  UNL     1      12.236  -4.671   5.371 +0.00 +0.00    +0.084 C  
DOCKED: ATOM     27  S1  UNL     1      11.040  -3.317   5.366 +0.00 -0.00    -0.164 S  
DOCKED: ENDBRANCH  25  27
DOCKED: ENDBRANCH  24  25
DOCKED: ENDBRANCH   6  24
DOCKED: ENDBRANCH   2   6
DOCKED: ENDBRANCH   1   4
DOCKED: BRANCH   1  28
DOCKED: ATOM     28  C17 UNL     1      14.781  -0.956   6.764 +0.00 +0.00    +0.028 C  
DOCKED: BRANCH  28  29
DOCKED: ATOM     29  C18 UNL     1      14.309  -2.420   6.935 +0.00 -0.00    -0.015 C  
DOCKED: ATOM     30  C19 UNL     1      15.443  -3.428   6.744 +0.00 +0.00    +0.007 C  
DOCKED: ATOM     31  C20 UNL     1      13.591  -2.678   8.254 +0.00 +0.00    +0.007 C  
DOCKED: ENDBRANCH  28  29
DOCKED: ENDBRANCH   1  28
DOCKED: BRANCH   1  32
DOCKED: ATOM     32  C21 UNL     1      16.496  -0.309   4.919 +0.00 +0.00    +0.135 C  
DOCKED: BRANCH  32  33
DOCKED: ATOM     33  O5  UNL     1      16.902  -1.565   4.333 +0.00 -0.00    -0.390 OA 
DOCKED: ATOM     34  H40 UNL     1      16.320  -1.717   3.567 +0.00 +0.00    +0.210 HD 
DOCKED: ENDBRANCH  32  33
DOCKED: BRANCH  32  35
DOCKED: ATOM     35  C22 UNL     1      16.918   0.758   3.893 +0.00 +0.00    +0.045 C  
DOCKED: BRANCH  35  36
DOCKED: ATOM     36  C23 UNL     1      17.463   0.424   2.496 +0.00 +0.00    +0.074 C  
DOCKED: ATOM     37  C24 UNL     1      18.740  -0.410   2.500 +0.00 +0.00    +0.017 C  
DOCKED: BRANCH  36  38
DOCKED: ATOM     38  C25 UNL     1      16.469  -0.192   1.518 +0.00 +0.00    +0.217 C  
DOCKED: ATOM     39  O6  UNL     1      15.533  -0.912   1.851 +0.00 -0.00    -0.276 OA 
DOCKED: ATOM     40  N4  UNL     1      16.778   0.057   0.205 +0.00 -0.00    -0.304 N  
DOCKED: ATOM     41  H47 UNL     1      17.611   0.589  -0.037 +0.00 +0.00    +0.149 HD 
DOCKED: BRANCH  40  42
DOCKED: ATOM     42  C26 UNL     1      16.099  -0.594  -0.916 +0.00 +0.00    +0.161 C  
DOCKED: BRANCH  42  43
DOCKED: ATOM     43  C27 UNL     1      14.714   0.081  -0.966 +0.00 +0.00    +0.234 C  
DOCKED: ATOM     44  O7  UNL     1      14.472   1.007  -1.742 +0.00 -0.00    -0.274 OA 
DOCKED: ATOM     45  N5  UNL     1      13.798  -0.419  -0.070 +0.00 -0.00    -0.310 N  
DOCKED: ATOM     46  H49 UNL     1      13.989  -1.288   0.407 +0.00 +0.00    +0.149 HD 
DOCKED: BRANCH  45  47
DOCKED: ATOM     47  C28 UNL     1      12.432   0.054  -0.049 +0.00 +0.00    +0.139 C  
DOCKED: BRANCH  47  48
DOCKED: ATOM     48  C29 UNL     1      12.182   0.986   1.111 +0.00 -0.00    -0.030 A  
DOCKED: ATOM     49  C30 UNL     1      13.254   1.592   1.779 +0.00 +0.00    +0.005 A  
DOCKED: ATOM     50  C31 UNL     1      13.030   2.439   2.868 +0.00 +0.00    +0.000 A  
DOCKED: ATOM     51  C32 UNL     1      11.730   2.693   3.289 +0.00 +0.00    +0.000 A  
DOCKED: ATOM     52  C33 UNL     1      10.651   2.118   2.616 +0.00 +0.00    +0.000 A  
DOCKED: ATOM     53  C34 UNL     1      10.875   1.270   1.530 +0.00 +0.00    +0.005 A  
DOCKED: ENDBRANCH  47  48
DOCKED: ENDBRANCH  45  47
DOCKED: ENDBRANCH  42  43
DOCKED: BRANCH  42  54
DOCKED: ATOM     54  C35 UNL     1      15.974  -2.120  -0.707 +0.00 +0.00    +0.012 C  
DOCKED: ATOM     55  C36 UNL     1      15.013  -2.766  -1.713 +0.00 +0.00    +0.009 C  
DOCKED: ATOM     56  C37 UNL     1      17.337  -2.811  -0.823 +0.00 +0.00    +0.009 C  
DOCKED: ENDBRANCH  42  54
DOCKED: ENDBRANCH  40  42
DOCKED: ENDBRANCH  36  38
DOCKED: ENDBRANCH  35  36
DOCKED: ENDBRANCH  32  35
DOCKED: ENDBRANCH   1  32
DOCKED: TORSDOF 23
DOCKED: TER
DOCKED: ENDMDL
________________________________________________________________________________


    FINAL DOCKED STATE:
    ________________________


Run:   8 / 20
Time taken for this run:   2.054s

DOCKED: MODEL        8
DOCKED: USER    Run = 8
DOCKED: USER
DOCKED: USER    Estimated Free Energy of Binding    =  +6.86 kcal/mol  [=(1)+(2)+(3)-(4)]
DOCKED: USER
DOCKED: USER    (1) Final Intermolecular Energy     =  +0.00 kcal/mol
DOCKED: USER        vdW + Hbond + desolv Energy     =  +0.00 kcal/mol
DOCKED: USER        Electrostatic Energy            =  +0.00 kcal/mol
DOCKED: USER        Moving Ligand-Fixed Receptor    =  +0.00 kcal/mol
DOCKED: USER        Moving Ligand-Moving Receptor   =  +0.00 kcal/mol
DOCKED: USER    (2) Final Total Internal Energy     = -15.24 kcal/mol
DOCKED: USER    (3) Torsional Free Energy           =  +6.86 kcal/mol
DOCKED: USER    (4) Unbound System's Energy         = -15.24 kcal/mol
DOCKED: USER
DOCKED: USER
DOCKED: REMARK  Name = ligands/ligand_1.pdb
DOCKED: REMARK  34 active torsions:
DOCKED: REMARK  status: ('A' for Active; 'I' for Inactive)
DOCKED: REMARK    1  A    between atoms: C1_1  and  S1_2
DOCKED: REMARK    2  A    between atoms: S1_2  and  C2_3
DOCKED: REMARK    3  A    between atoms: C2_3  and  C3_4
DOCKED: REMARK    4  A    between atoms: C3_4  and  C4_5
DOCKED: REMARK    5  A    between atoms: C4_5  and  N1_6
DOCKED: REMARK    6  A    between atoms: C4_5  and  C15_21
DOCKED: REMARK    7  A    between atoms: C5_7  and  C6_9
DOCKED: REMARK    8  A    between atoms: C6_9  and  N2_10
DOCKED: REMARK    9  A    between atoms: C6_9  and  C12_18
DOCKED: REMARK   10  A    between atoms: C7_11  and  O3_13
DOCKED: REMARK   11  A    between atoms: O3_13  and  C8_14
DOCKED: REMARK   12  A    between atoms: C8_14  and  C9_15
DOCKED: REMARK   13  A    between atoms: C8_14  and  C10_16
DOCKED: REMARK   14  A    between atoms: C8_14  and  C11_17
DOCKED: REMARK   15  A    between atoms: C12_18  and  C13_19
DOCKED: REMARK   16  A    between atoms: C12_18  and  C14_20
DOCKED: REMARK   17  A    between atoms: N3_23  and  C16_24
DOCKED: REMARK   18  A    between atoms: C16_24  and  C17_25
DOCKED: REMARK   19  A    between atoms: C16_24  and  C21_29
DOCKED: REMARK   20  A    between atoms: C17_25  and  C18_26
DOCKED: REMARK   21  A    between atoms: C18_26  and  C19_27
DOCKED: REMARK   22  A    between atoms: C18_26  and  C20_28
DOCKED: REMARK   23  A    between atoms: C21_29  and  O5_30
DOCKED: REMARK   24  A    between atoms: C21_29  and  C22_31
DOCKED: REMARK   25  A    between atoms: C22_31  and  C23_32
DOCKED: REMARK   26  A    between atoms: C23_32  and  C24_33
DOCKED: REMARK   27  A    between atoms: C23_32  and  C25_34
DOCKED: REMARK   28  A    between atoms: N4_36  and  C26_37
DOCKED: REMARK   29  A    between atoms: C26_37  and  C27_38
DOCKED: REMARK   30  A    between atoms: C26_37  and  C35_48
DOCKED: REMARK   31  A    between atoms: N5_40  and  C28_41
DOCKED: REMARK   32  A    between atoms: C28_41  and  C29_42
DOCKED: REMARK   33  A    between atoms: C35_48  and  C36_49
DOCKED: REMARK   34  A    between atoms: C35_48  and  C37_50
DOCKED: REMARK                            x       y       z     vdW  Elec       q    Type
DOCKED: REMARK                         _______ _______ _______ _____ _____    ______ ____
DOCKED: USER                              x       y       z     vdW  Elec       q    Type
DOCKED: USER                           _______ _______ _______ _____ _____    ______ ____
DOCKED: ROOT
DOCKED: ATOM      1  C16 UNL     1      15.587  -0.439   0.853 +0.00 +0.00    +0.102 C  
DOCKED: ENDROOT
DOCKED: BRANCH   1   4
DOCKED: ATOM      2  C15 UNL     1      13.479  -0.456   2.125 +0.00 +0.00    +0.234 C  
DOCKED: ATOM      3  O4  UNL     1      13.547   0.767   2.275 +0.00 -0.00    -0.274 OA 
DOCKED: ATOM      4  N3  UNL     1      14.477  -1.165   1.479 +0.00 -0.00    -0.308 N  
DOCKED: ATOM      5  H28 UNL     1      14.163  -1.981   0.979 +0.00 +0.00    +0.149 HD 
DOCKED: BRANCH   2   6
DOCKED: ATOM      6  C4  UNL     1      12.227  -1.245   2.587 +0.00 +0.00    +0.160 C  
DOCKED: BRANCH   6   7
DOCKED: ATOM      7  N1  UNL     1      12.551  -2.666   2.441 +0.00 -0.00    -0.302 N  
DOCKED: ATOM      8  C5  UNL     1      11.553  -3.609   2.338 +0.00 +0.00    +0.234 C  
DOCKED: ATOM      9  O1  UNL     1      10.356  -3.329   2.471 +0.00 -0.00    -0.274 OA 
DOCKED: ATOM     10  H9  UNL     1      13.505  -2.894   2.174 +0.00 +0.00    +0.150 HD 
DOCKED: BRANCH   8  11
DOCKED: ATOM     11  C6  UNL     1      12.016  -5.052   2.058 +0.00 +0.00    +0.165 C  
DOCKED: BRANCH  11  12
DOCKED: ATOM     12  N2  UNL     1      12.662  -5.013   0.754 +0.00 -0.00    -0.270 N  
DOCKED: ATOM     13  C7  UNL     1      13.887  -4.485   0.518 +0.00 +0.00    +0.401 C  
DOCKED: ATOM     14  O2  UNL     1      14.628  -4.034   1.377 +0.00 -0.00    -0.226 OA 
DOCKED: ATOM     15  H11 UNL     1      12.137  -5.358  -0.049 +0.00 +0.00    +0.153 HD 
DOCKED: BRANCH  13  16
DOCKED: ATOM     16  O3  UNL     1      14.134  -4.540  -0.808 +0.00 -0.00    -0.445 OA 
DOCKED: BRANCH  16  17
DOCKED: ATOM     17  C8  UNL     1      15.092  -5.480  -1.355 +0.00 +0.00    +0.107 C  
DOCKED: ATOM     18  C9  UNL     1      14.550  -6.867  -0.967 +0.00 +0.00    +0.055 C  
DOCKED: ATOM     19  C10 UNL     1      16.474  -5.298  -0.720 +0.00 +0.00    +0.055 C  
DOCKED: ATOM     20  C11 UNL     1      15.154  -5.391  -2.882 +0.00 +0.00    +0.055 C  
DOCKED: ENDBRANCH  16  17
DOCKED: ENDBRANCH  13  16
DOCKED: ENDBRANCH  11  12
DOCKED: BRANCH  11  21
DOCKED: ATOM     21  C12 UNL     1      12.969  -5.629   3.130 +0.00 +0.00    +0.012 C  
DOCKED: ATOM     22  C13 UNL     1      12.361  -5.653   4.539 +0.00 +0.00    +0.009 C  
DOCKED: ATOM     23  C14 UNL     1      13.493  -7.019   2.763 +0.00 +0.00    +0.009 C  
DOCKED: ENDBRANCH  11  21
DOCKED: ENDBRANCH   8  11
DOCKED: ENDBRANCH   6   7
DOCKED: BRANCH   6  24
DOCKED: ATOM     24  C3  UNL     1      11.666  -0.986   3.990 +0.00 +0.00    +0.042 C  
DOCKED: BRANCH  24  25
DOCKED: ATOM     25  C2  UNL     1      12.317  -1.903   5.025 +0.00 +0.00    +0.071 C  
DOCKED: BRANCH  25  27
DOCKED: ATOM     26  C1  UNL     1      14.773  -3.187   4.894 +0.00 +0.00    +0.084 C  
DOCKED: ATOM     27  S1  UNL     1      14.093  -1.544   5.216 +0.00 -0.00    -0.164 S  
DOCKED: ENDBRANCH  25  27
DOCKED: ENDBRANCH  24  25
DOCKED: ENDBRANCH   6  24
DOCKED: ENDBRANCH   2   6
DOCKED: ENDBRANCH   1   4
DOCKED: BRANCH   1  28
DOCKED: ATOM     28  C17 UNL     1      16.801  -0.304   1.796 +0.00 +0.00    +0.028 C  
DOCKED: BRANCH  28  29
DOCKED: ATOM     29  C18 UNL     1      16.920  -1.361   2.920 +0.00 -0.00    -0.015 C  
DOCKED: ATOM     30  C19 UNL     1      17.283  -2.747   2.388 +0.00 +0.00    +0.007 C  
DOCKED: ATOM     31  C20 UNL     1      17.877  -0.957   4.036 +0.00 +0.00    +0.007 C  
DOCKED: ENDBRANCH  28  29
DOCKED: ENDBRANCH   1  28
DOCKED: BRANCH   1  32
DOCKED: ATOM     32  C21 UNL     1      15.938  -1.018  -0.552 +0.00 +0.00    +0.135 C  
DOCKED: BRANCH  32  33
DOCKED: ATOM     33  O5  UNL     1      15.688  -2.439  -0.484 +0.00 -0.00    -0.390 OA 
DOCKED: ATOM     34  H40 UNL     1      14.755  -2.547  -0.223 +0.00 +0.00    +0.210 HD 
DOCKED: ENDBRANCH  32  33
DOCKED: BRANCH  32  35
DOCKED: ATOM     35  C22 UNL     1      15.172  -0.544  -1.800 +0.00 +0.00    +0.045 C  
DOCKED: BRANCH  35  36
DOCKED: ATOM     36  C23 UNL     1      13.767  -1.041  -2.175 +0.00 +0.00    +0.074 C  
DOCKED: ATOM     37  C24 UNL     1      13.751  -2.339  -2.976 +0.00 +0.00    +0.017 C  
DOCKED: BRANCH  36  38
DOCKED: ATOM     38  C25 UNL     1      12.767  -1.149  -1.031 +0.00 +0.00    +0.217 C  
DOCKED: ATOM     39  O6  UNL     1      12.627  -2.147  -0.330 +0.00 -0.00    -0.276 OA 
DOCKED: ATOM     40  N4  UNL     1      11.958  -0.047  -0.914 +0.00 -0.00    -0.304 N  
DOCKED: ATOM     41  H47 UNL     1      12.046   0.729  -1.567 +0.00 +0.00    +0.149 HD 
DOCKED: BRANCH  40  42
DOCKED: ATOM     42  C26 UNL     1      10.792   0.002  -0.032 +0.00 +0.00    +0.161 C  
DOCKED: BRANCH  42  43
DOCKED: ATOM     43  C27 UNL     1       9.813  -1.023  -0.637 +0.00 +0.00    +0.234 C  
DOCKED: ATOM     44  O7  UNL     1       9.019  -0.714  -1.527 +0.00 -0.00    -0.274 OA 
DOCKED: ATOM     45  N5  UNL     1       9.888  -2.283  -0.090 +0.00 -0.00    -0.310 N  
DOCKED: ATOM     46  H49 UNL     1      10.671  -2.525   0.500 +0.00 +0.00    +0.149 HD 
DOCKED: BRANCH  45  47
DOCKED: ATOM     47  C28 UNL     1       9.091  -3.375  -0.603 +0.00 +0.00    +0.139 C  
DOCKED: BRANCH  47  48
DOCKED: ATOM     48  C29 UNL     1       9.951  -4.456  -1.209 +0.00 -0.00    -0.030 A  
DOCKED: ATOM     49  C30 UNL     1      10.894  -4.144  -2.197 +0.00 +0.00    +0.005 A  
DOCKED: ATOM     50  C31 UNL     1      11.677  -5.145  -2.778 +0.00 +0.00    +0.000 A  
DOCKED: ATOM     51  C32 UNL     1      11.530  -6.464  -2.365 +0.00 +0.00    +0.000 A  
DOCKED: ATOM     52  C33 UNL     1      10.614  -6.786  -1.363 +0.00 +0.00    +0.000 A  
DOCKED: ATOM     53  C34 UNL     1       9.829  -5.786  -0.785 +0.00 +0.00    +0.005 A  
DOCKED: ENDBRANCH  47  48
DOCKED: ENDBRANCH  45  47
DOCKED: ENDBRANCH  42  43
DOCKED: BRANCH  42  54
DOCKED: ATOM     54  C35 UNL     1      10.167   1.415   0.018 +0.00 +0.00    +0.012 C  
DOCKED: ATOM     55  C36 UNL     1       9.305   1.623   1.271 +0.00 +0.00    +0.009 C  
DOCKED: ATOM     56  C37 UNL     1      11.246   2.502  -0.016 +0.00 +0.00    +0.009 C  
DOCKED: ENDBRANCH  42  54
DOCKED: ENDBRANCH  40  42
DOCKED: ENDBRANCH  36  38
DOCKED: ENDBRANCH  35  36
DOCKED: ENDBRANCH  32  35
DOCKED: ENDBRANCH   1  32
DOCKED: TORSDOF 23
DOCKED: TER
DOCKED: ENDMDL
________________________________________________________________________________


    FINAL DOCKED STATE:
    ________________________


Run:   9 / 20
Time taken for this run:   2.054s

DOCKED: MODEL        9
DOCKED: USER    Run = 9
DOCKED: USER
DOCKED: USER    Estimated Free Energy of Binding    =  +6.86 kcal/mol  [=(1)+(2)+(3)-(4)]
DOCKED: USER
DOCKED: USER    (1) Final Intermolecular Energy     =  +0.00 kcal/mol
DOCKED: USER        vdW + Hbond + desolv Energy     =  +0.00 kcal/mol
DOCKED: USER        Electrostatic Energy            =  +0.00 kcal/mol
DOCKED: USER        Moving Ligand-Fixed Receptor    =  +0.00 kcal/mol
DOCKED: USER        Moving Ligand-Moving Receptor   =  +0.00 kcal/mol
DOCKED: USER    (2) Final Total Internal Energy     = -15.25 kcal/mol
DOCKED: USER    (3) Torsional Free Energy           =  +6.86 kcal/mol
DOCKED: USER    (4) Unbound System's Energy         = -15.25 kcal/mol
DOCKED: USER
DOCKED: USER
DOCKED: REMARK  Name = ligands/ligand_1.pdb
DOCKED: REMARK  34 active torsions:
DOCKED: REMARK  status: ('A' for Active; 'I' for Inactive)
DOCKED: REMARK    1  A    between atoms: C1_1  and  S1_2
DOCKED: REMARK    2  A    between atoms: S1_2  and  C2_3
DOCKED: REMARK    3  A    between atoms: C2_3  and  C3_4
DOCKED: REMARK    4  A    between atoms: C3_4  and  C4_5
DOCKED: REMARK    5  A    between atoms: C4_5  and  N1_6
DOCKED: REMARK    6  A    between atoms: C4_5  and  C15_21
DOCKED: REMARK    7  A    between atoms: C5_7  and  C6_9
DOCKED: REMARK    8  A    between atoms: C6_9  and  N2_10
DOCKED: REMARK    9  A    between atoms: C6_9  and  C12_18
DOCKED: REMARK   10  A    between atoms: C7_11  and  O3_13
DOCKED: REMARK   11  A    between atoms: O3_13  and  C8_14
DOCKED: REMARK   12  A    between atoms: C8_14  and  C9_15
DOCKED: REMARK   13  A    between atoms: C8_14  and  C10_16
DOCKED: REMARK   14  A    between atoms: C8_14  and  C11_17
DOCKED: REMARK   15  A    between atoms: C12_18  and  C13_19
DOCKED: REMARK   16  A    between atoms: C12_18  and  C14_20
DOCKED: REMARK   17  A    between atoms: N3_23  and  C16_24
DOCKED: REMARK   18  A    between atoms: C16_24  and  C17_25
DOCKED: REMARK   19  A    between atoms: C16_24  and  C21_29
DOCKED: REMARK   20  A    between atoms: C17_25  and  C18_26
DOCKED: REMARK   21  A    between atoms: C18_26  and  C19_27
DOCKED: REMARK   22  A    between atoms: C18_26  and  C20_28
DOCKED: REMARK   23  A    between atoms: C21_29  and  O5_30
DOCKED: REMARK   24  A    between atoms: C21_29  and  C22_31
DOCKED: REMARK   25  A    between atoms: C22_31  and  C23_32
DOCKED: REMARK   26  A    between atoms: C23_32  and  C24_33
DOCKED: REMARK   27  A    between atoms: C23_32  and  C25_34
DOCKED: REMARK   28  A    between atoms: N4_36  and  C26_37
DOCKED: REMARK   29  A    between atoms: C26_37  and  C27_38
DOCKED: REMARK   30  A    between atoms: C26_37  and  C35_48
DOCKED: REMARK   31  A    between atoms: N5_40  and  C28_41
DOCKED: REMARK   32  A    between atoms: C28_41  and  C29_42
DOCKED: REMARK   33  A    between atoms: C35_48  and  C36_49
DOCKED: REMARK   34  A    between atoms: C35_48  and  C37_50
DOCKED: REMARK                            x       y       z     vdW  Elec       q    Type
DOCKED: REMARK                         _______ _______ _______ _____ _____    ______ ____
DOCKED: USER                              x       y       z     vdW  Elec       q    Type
DOCKED: USER                           _______ _______ _______ _____ _____    ______ ____
DOCKED: ROOT
DOCKED: ATOM      1  C16 UNL     1       8.783   0.073  -1.313 +0.00 +0.00    +0.102 C  
DOCKED: ENDROOT
DOCKED: BRANCH   1   4
DOCKED: ATOM      2  C15 UNL     1       9.066  -2.298  -0.709 +0.00 +0.00    +0.234 C  
DOCKED: ATOM      3  O4  UNL     1       7.884  -2.362  -0.364 +0.00 -0.00    -0.274 OA 
DOCKED: ATOM      4  N3  UNL     1       9.632  -1.112  -1.144 +0.00 -0.00    -0.308 N  
DOCKED: ATOM      5  H28 UNL     1      10.363  -1.216  -1.830 +0.00 +0.00    +0.149 HD 
DOCKED: BRANCH   2   6
DOCKED: ATOM      6  C4  UNL     1       9.954  -3.568  -0.745 +0.00 +0.00    +0.160 C  
DOCKED: BRANCH   6   7
DOCKED: ATOM      7  N1  UNL     1      11.323  -3.114  -0.995 +0.00 -0.00    -0.302 N  
DOCKED: ATOM      8  C5  UNL     1      12.254  -3.959  -1.558 +0.00 +0.00    +0.234 C  
DOCKED: ATOM      9  O1  UNL     1      12.022  -5.154  -1.778 +0.00 -0.00    -0.274 OA 
DOCKED: ATOM     10  H9  UNL     1      11.485  -2.111  -0.973 +0.00 +0.00    +0.150 HD 
DOCKED: BRANCH   8  11
DOCKED: ATOM     11  C6  UNL     1      13.620  -3.329  -1.892 +0.00 +0.00    +0.165 C  
DOCKED: BRANCH  11  12
DOCKED: ATOM     12  N2  UNL     1      13.359  -2.350  -2.939 +0.00 -0.00    -0.270 N  
DOCKED: ATOM     13  C7  UNL     1      12.763  -1.152  -2.737 +0.00 +0.00    +0.401 C  
DOCKED: ATOM     14  O2  UNL     1      12.427  -0.714  -1.648 +0.00 -0.00    -0.226 OA 
DOCKED: ATOM     15  H11 UNL     1      13.592  -2.604  -3.897 +0.00 +0.00    +0.153 HD 
DOCKED: BRANCH  13  16
DOCKED: ATOM     16  O3  UNL     1      12.603  -0.542  -3.932 +0.00 -0.00    -0.445 OA 
DOCKED: BRANCH  16  17
DOCKED: ATOM     17  C8  UNL     1      13.414   0.599  -4.306 +0.00 +0.00    +0.107 C  
DOCKED: ATOM     18  C9  UNL     1      14.863   0.082  -4.271 +0.00 +0.00    +0.055 C  
DOCKED: ATOM     19  C10 UNL     1      13.275   1.738  -3.291 +0.00 +0.00    +0.055 C  
DOCKED: ATOM     20  C11 UNL     1      13.099   1.068  -5.729 +0.00 +0.00    +0.055 C  
DOCKED: ENDBRANCH  16  17
DOCKED: ENDBRANCH  13  16
DOCKED: ENDBRANCH  11  12
DOCKED: BRANCH  11  21
DOCKED: ATOM     21  C12 UNL     1      14.325  -2.671  -0.684 +0.00 +0.00    +0.012 C  
DOCKED: ATOM     22  C13 UNL     1      14.592  -3.645   0.472 +0.00 +0.00    +0.009 C  
DOCKED: ATOM     23  C14 UNL     1      15.621  -1.959  -1.076 +0.00 +0.00    +0.009 C  
DOCKED: ENDBRANCH  11  21
DOCKED: ENDBRANCH   8  11
DOCKED: ENDBRANCH   6   7
DOCKED: BRANCH   6  24
DOCKED: ATOM     24  C3  UNL     1       9.937  -4.517   0.458 +0.00 +0.00    +0.042 C  
DOCKED: BRANCH  24  25
DOCKED: ATOM     25  C2  UNL     1      10.990  -4.118   1.492 +0.00 +0.00    +0.071 C  
DOCKED: BRANCH  25  27
DOCKED: ATOM     26  C1  UNL     1      12.151  -1.628   1.874 +0.00 +0.00    +0.084 C  
DOCKED: ATOM     27  S1  UNL     1      10.614  -2.502   2.244 +0.00 -0.00    -0.164 S  
DOCKED: ENDBRANCH  25  27
DOCKED: ENDBRANCH  24  25
DOCKED: ENDBRANCH   6  24
DOCKED: ENDBRANCH   2   6
DOCKED: ENDBRANCH   1   4
DOCKED: BRANCH   1  28
DOCKED: ATOM     28  C17 UNL     1       8.770   0.964  -0.053 +0.00 +0.00    +0.028 C  
DOCKED: BRANCH  28  29
DOCKED: ATOM     29  C18 UNL     1      10.002   0.859   0.877 +0.00 -0.00    -0.015 C  
DOCKED: ATOM     30  C19 UNL     1      11.262   1.460   0.254 +0.00 +0.00    +0.007 C  
DOCKED: ATOM     31  C20 UNL     1       9.768   1.446   2.265 +0.00 +0.00    +0.007 C  
DOCKED: ENDBRANCH  28  29
DOCKED: ENDBRANCH   1  28
DOCKED: BRANCH   1  32
DOCKED: ATOM     32  C21 UNL     1       9.117   0.840  -2.628 +0.00 +0.00    +0.135 C  
DOCKED: BRANCH  32  33
DOCKED: ATOM     33  O5  UNL     1      10.535   0.683  -2.848 +0.00 -0.00    -0.390 OA 
DOCKED: ATOM     34  H40 UNL     1      10.703  -0.275  -2.916 +0.00 +0.00    +0.210 HD 
DOCKED: ENDBRANCH  32  33
DOCKED: BRANCH  32  35
DOCKED: ATOM     35  C22 UNL     1       8.465   0.420  -3.958 +0.00 +0.00    +0.045 C  
DOCKED: BRANCH  35  36
DOCKED: ATOM     36  C23 UNL     1       8.939  -0.779  -4.795 +0.00 +0.00    +0.074 C  
DOCKED: ATOM     37  C24 UNL     1      10.089  -0.467  -5.746 +0.00 +0.00    +0.017 C  
DOCKED: BRANCH  36  38
DOCKED: ATOM     38  C25 UNL     1       9.262  -2.050  -4.021 +0.00 +0.00    +0.217 C  
DOCKED: ATOM     39  O6  UNL     1      10.368  -2.312  -3.558 +0.00 -0.00    -0.276 OA 
DOCKED: ATOM     40  N4  UNL     1       8.214  -2.934  -3.970 +0.00 -0.00    -0.304 N  
DOCKED: ATOM     41  H47 UNL     1       7.336  -2.719  -4.438 +0.00 +0.00    +0.149 HD 
DOCKED: BRANCH  40  42
DOCKED: ATOM     42  C26 UNL     1       8.341  -4.301  -3.466 +0.00 +0.00    +0.161 C  
DOCKED: BRANCH  42  43
DOCKED: ATOM     43  C27 UNL     1       9.265  -4.998  -4.484 +0.00 +0.00    +0.234 C  
DOCKED: ATOM     44  O7  UNL     1       8.821  -5.533  -5.502 +0.00 -0.00    -0.274 OA 
DOCKED: ATOM     45  N5  UNL     1      10.599  -4.989  -4.151 +0.00 -0.00    -0.310 N  
DOCKED: ATOM     46  H49 UNL     1      10.925  -4.386  -3.409 +0.00 +0.00    +0.149 HD 
DOCKED: BRANCH  45  47
DOCKED: ATOM     47  C28 UNL     1      11.601  -5.532  -5.042 +0.00 +0.00    +0.139 C  
DOCKED: BRANCH  47  48
DOCKED: ATOM     48  C29 UNL     1      12.586  -4.479  -5.482 +0.00 -0.00    -0.030 A  
DOCKED: ATOM     49  C30 UNL     1      12.139  -3.295  -6.083 +0.00 +0.00    +0.005 A  
DOCKED: ATOM     50  C31 UNL     1      13.049  -2.325  -6.514 +0.00 +0.00    +0.000 A  
DOCKED: ATOM     51  C32 UNL     1      14.413  -2.529  -6.334 +0.00 +0.00    +0.000 A  
DOCKED: ATOM     52  C33 UNL     1      14.871  -3.691  -5.713 +0.00 +0.00    +0.000 A  
DOCKED: ATOM     53  C34 UNL     1      13.962  -4.661  -5.285 +0.00 +0.00    +0.005 A  
DOCKED: ENDBRANCH  47  48
DOCKED: ENDBRANCH  45  47
DOCKED: ENDBRANCH  42  43
DOCKED: BRANCH  42  54
DOCKED: ATOM     54  C35 UNL     1       6.972  -5.011  -3.372 +0.00 +0.00    +0.012 C  
DOCKED: ATOM     55  C36 UNL     1       6.992  -6.181  -2.380 +0.00 +0.00    +0.009 C  
DOCKED: ATOM     56  C37 UNL     1       5.867  -4.035  -2.951 +0.00 +0.00    +0.009 C  
DOCKED: ENDBRANCH  42  54
DOCKED: ENDBRANCH  40  42
DOCKED: ENDBRANCH  36  38
DOCKED: ENDBRANCH  35  36
DOCKED: ENDBRANCH  32  35
DOCKED: ENDBRANCH   1  32
DOCKED: TORSDOF 23
DOCKED: TER
DOCKED: ENDMDL
________________________________________________________________________________


    FINAL DOCKED STATE:
    ________________________


Run:   10 / 20
Time taken for this run:   2.054s

DOCKED: MODEL        10
DOCKED: USER    Run = 10
DOCKED: USER
DOCKED: USER    Estimated Free Energy of Binding    =  +6.86 kcal/mol  [=(1)+(2)+(3)-(4)]
DOCKED: USER
DOCKED: USER    (1) Final Intermolecular Energy     =  +0.00 kcal/mol
DOCKED: USER        vdW + Hbond + desolv Energy     =  +0.00 kcal/mol
DOCKED: USER        Electrostatic Energy            =  +0.00 kcal/mol
DOCKED: USER        Moving Ligand-Fixed Receptor    =  +0.00 kcal/mol
DOCKED: USER        Moving Ligand-Moving Receptor   =  +0.00 kcal/mol
DOCKED: USER    (2) Final Total Internal Energy     = -15.02 kcal/mol
DOCKED: USER    (3) Torsional Free Energy           =  +6.86 kcal/mol
DOCKED: USER    (4) Unbound System's Energy         = -15.02 kcal/mol
DOCKED: USER
DOCKED: USER
DOCKED: REMARK  Name = ligands/ligand_1.pdb
DOCKED: REMARK  34 active torsions:
DOCKED: REMARK  status: ('A' for Active; 'I' for Inactive)
DOCKED: REMARK    1  A    between atoms: C1_1  and  S1_2
DOCKED: REMARK    2  A    between atoms: S1_2  and  C2_3
DOCKED: REMARK    3  A    between atoms: C2_3  and  C3_4
DOCKED: REMARK    4  A    between atoms: C3_4  and  C4_5
DOCKED: REMARK    5  A    between atoms: C4_5  and  N1_6
DOCKED: REMARK    6  A    between atoms: C4_5  and  C15_21
DOCKED: REMARK    7  A    between atoms: C5_7  and  C6_9
DOCKED: REMARK    8  A    between atoms: C6_9  and  N2_10
DOCKED: REMARK    9  A    between atoms: C6_9  and  C12_18
DOCKED: REMARK   10  A    between atoms: C7_11  and  O3_13
DOCKED: REMARK   11  A    between atoms: O3_13  and  C8_14
DOCKED: REMARK   12  A    between atoms: C8_14  and  C9_15
DOCKED: REMARK   13  A    between atoms: C8_14  and  C10_16
DOCKED: REMARK   14  A    between atoms: C8_14  and  C11_17
DOCKED: REMARK   15  A    between atoms: C12_18  and  C13_19
DOCKED: REMARK   16  A    between atoms: C12_18  and  C14_20
DOCKED: REMARK   17  A    between atoms: N3_23  and  C16_24
DOCKED: REMARK   18  A    between atoms: C16_24  and  C17_25
DOCKED: REMARK   19  A    between atoms: C16_24  and  C21_29
DOCKED: REMARK   20  A    between atoms: C17_25  and  C18_26
DOCKED: REMARK   21  A    between atoms: C18_26  and  C19_27
DOCKED: REMARK   22  A    between atoms: C18_26  and  C20_28
DOCKED: REMARK   23  A    between atoms: C21_29  and  O5_30
DOCKED: REMARK   24  A    between atoms: C21_29  and  C22_31
DOCKED: REMARK   25  A    between atoms: C22_31  and  C23_32
DOCKED: REMARK   26  A    between atoms: C23_32  and  C24_33
DOCKED: REMARK   27  A    between atoms: C23_32  and  C25_34
DOCKED: REMARK   28  A    between atoms: N4_36  and  C26_37
DOCKED: REMARK   29  A    between atoms: C26_37  and  C27_38
DOCKED: REMARK   30  A    between atoms: C26_37  and  C35_48
DOCKED: REMARK   31  A    between atoms: N5_40  and  C28_41
DOCKED: REMARK   32  A    between atoms: C28_41  and  C29_42
DOCKED: REMARK   33  A    between atoms: C35_48  and  C36_49
DOCKED: REMARK   34  A    between atoms: C35_48  and  C37_50
DOCKED: REMARK                            x       y       z     vdW  Elec       q    Type
DOCKED: REMARK                         _______ _______ _______ _____ _____    ______ ____
DOCKED: USER                              x       y       z     vdW  Elec       q    Type
DOCKED: USER                           _______ _______ _______ _____ _____    ______ ____
DOCKED: ROOT
DOCKED: ATOM      1  C16 UNL     1       5.526   1.415   0.237 +0.00 +0.00    +0.102 C  
DOCKED: ENDROOT
DOCKED: BRANCH   1   4
DOCKED: ATOM      2  C15 UNL     1       7.895   1.042  -0.323 +0.00 +0.00    +0.234 C  
DOCKED: ATOM      3  O4  UNL     1       8.133   0.731   0.847 +0.00 -0.00    -0.274 OA 
DOCKED: ATOM      4  N3  UNL     1       6.636   1.457  -0.722 +0.00 -0.00    -0.308 N  
DOCKED: ATOM      5  H28 UNL     1       6.392   1.221  -1.671 +0.00 +0.00    +0.149 HD 
DOCKED: BRANCH   2   6
DOCKED: ATOM      6  C4  UNL     1       8.983   0.907  -1.419 +0.00 +0.00    +0.160 C  
DOCKED: BRANCH   6   7
DOCKED: ATOM      7  N1  UNL     1       8.282   0.601  -2.668 +0.00 -0.00    -0.302 N  
DOCKED: ATOM      8  C5  UNL     1       8.832  -0.261  -3.590 +0.00 +0.00    +0.234 C  
DOCKED: ATOM      9  O1  UNL     1       9.970  -0.728  -3.471 +0.00 -0.00    -0.274 OA 
DOCKED: ATOM     10  H9  UNL     1       7.296   0.842  -2.711 +0.00 +0.00    +0.150 HD 
DOCKED: BRANCH   8  11
DOCKED: ATOM     11  C6  UNL     1       7.944  -0.605  -4.802 +0.00 +0.00    +0.165 C  
DOCKED: BRANCH  11  12
DOCKED: ATOM     12  N2  UNL     1       7.565   0.673  -5.390 +0.00 -0.00    -0.270 N  
DOCKED: ATOM     13  C7  UNL     1       6.628   1.505  -4.878 +0.00 +0.00    +0.401 C  
DOCKED: ATOM     14  O2  UNL     1       6.031   1.322  -3.829 +0.00 -0.00    -0.226 OA 
DOCKED: ATOM     15  H11 UNL     1       7.993   0.936  -6.276 +0.00 +0.00    +0.153 HD 
DOCKED: BRANCH  13  16
DOCKED: ATOM     16  O3  UNL     1       6.471   2.549  -5.720 +0.00 -0.00    -0.445 OA 
DOCKED: BRANCH  16  17
DOCKED: ATOM     17  C8  UNL     1       5.914   2.368  -7.045 +0.00 +0.00    +0.107 C  
DOCKED: ATOM     18  C9  UNL     1       4.909   3.520  -7.213 +0.00 +0.00    +0.055 C  
DOCKED: ATOM     19  C10 UNL     1       5.161   1.039  -7.156 +0.00 +0.00    +0.055 C  
DOCKED: ATOM     20  C11 UNL     1       6.990   2.499  -8.127 +0.00 +0.00    +0.055 C  
DOCKED: ENDBRANCH  16  17
DOCKED: ENDBRANCH  13  16
DOCKED: ENDBRANCH  11  12
DOCKED: BRANCH  11  21
DOCKED: ATOM     21  C12 UNL     1       8.629  -1.513  -5.850 +0.00 +0.00    +0.012 C  
DOCKED: ATOM     22  C13 UNL     1       8.763  -2.973  -5.398 +0.00 +0.00    +0.009 C  
DOCKED: ATOM     23  C14 UNL     1       7.946  -1.450  -7.218 +0.00 +0.00    +0.009 C  
DOCKED: ENDBRANCH  11  21
DOCKED: ENDBRANCH   8  11
DOCKED: ENDBRANCH   6   7
DOCKED: BRANCH   6  24
DOCKED: ATOM     24  C3  UNL     1       9.954   2.072  -1.644 +0.00 +0.00    +0.042 C  
DOCKED: BRANCH  24  25
DOCKED: ATOM     25  C2  UNL     1       9.216   3.411  -1.668 +0.00 +0.00    +0.071 C  
DOCKED: BRANCH  25  27
DOCKED: ATOM     26  C1  UNL     1       6.913   4.266  -2.955 +0.00 +0.00    +0.084 C  
DOCKED: ATOM     27  S1  UNL     1       8.620   3.818  -3.341 +0.00 -0.00    -0.164 S  
DOCKED: ENDBRANCH  25  27
DOCKED: ENDBRANCH  24  25
DOCKED: ENDBRANCH   6  24
DOCKED: ENDBRANCH   2   6
DOCKED: ENDBRANCH   1   4
DOCKED: BRANCH   1  28
DOCKED: ATOM     28  C17 UNL     1       5.344   2.757   0.976 +0.00 +0.00    +0.028 C  
DOCKED: BRANCH  28  29
DOCKED: ATOM     29  C18 UNL     1       5.966   4.004   0.303 +0.00 -0.00    -0.015 C  
DOCKED: ATOM     30  C19 UNL     1       4.949   5.125   0.087 +0.00 +0.00    +0.007 C  
DOCKED: ATOM     31  C20 UNL     1       7.193   4.540   1.032 +0.00 +0.00    +0.007 C  
DOCKED: ENDBRANCH  28  29
DOCKED: ENDBRANCH   1  28
DOCKED: BRANCH   1  32
DOCKED: ATOM     32  C21 UNL     1       4.219   0.869  -0.416 +0.00 +0.00    +0.135 C  
DOCKED: BRANCH  32  33
DOCKED: ATOM     33  O5  UNL     1       4.374   1.031  -1.842 +0.00 -0.00    -0.390 OA 
DOCKED: ATOM     34  H40 UNL     1       5.198   0.572  -2.088 +0.00 +0.00    +0.210 HD 
DOCKED: ENDBRANCH  32  33
DOCKED: BRANCH  32  35
DOCKED: ATOM     35  C22 UNL     1       3.816  -0.604  -0.229 +0.00 +0.00    +0.045 C  
DOCKED: BRANCH  35  36
DOCKED: ATOM     36  C23 UNL     1       4.667  -1.786  -0.717 +0.00 +0.00    +0.074 C  
DOCKED: ATOM     37  C24 UNL     1       3.984  -3.145  -0.602 +0.00 +0.00    +0.017 C  
DOCKED: BRANCH  36  38
DOCKED: ATOM     38  C25 UNL     1       5.270  -1.648  -2.110 +0.00 +0.00    +0.217 C  
DOCKED: ATOM     39  O6  UNL     1       6.073  -0.778  -2.429 +0.00 -0.00    -0.276 OA 
DOCKED: ATOM     40  N4  UNL     1       4.751  -2.540  -3.014 +0.00 -0.00    -0.304 N  
DOCKED: ATOM     41  H47 UNL     1       4.023  -3.194  -2.734 +0.00 +0.00    +0.149 HD 
DOCKED: BRANCH  40  42
DOCKED: ATOM     42  C26 UNL     1       5.016  -2.472  -4.451 +0.00 +0.00    +0.161 C  
DOCKED: BRANCH  42  43
DOCKED: ATOM     43  C27 UNL     1       3.875  -1.596  -5.007 +0.00 +0.00    +0.234 C  
DOCKED: ATOM     44  O7  UNL     1       3.076  -2.027  -5.841 +0.00 -0.00    -0.274 OA 
DOCKED: ATOM     45  N5  UNL     1       3.844  -0.312  -4.516 +0.00 -0.00    -0.310 N  
DOCKED: ATOM     46  H49 UNL     1       4.402  -0.072  -3.710 +0.00 +0.00    +0.149 HD 
DOCKED: BRANCH  45  47
DOCKED: ATOM     47  C28 UNL     1       2.788   0.607  -4.880 +0.00 +0.00    +0.139 C  
DOCKED: BRANCH  47  48
DOCKED: ATOM     48  C29 UNL     1       2.713   1.775  -3.929 +0.00 -0.00    -0.030 A  
DOCKED: ATOM     49  C30 UNL     1       3.569   2.873  -4.083 +0.00 +0.00    +0.005 A  
DOCKED: ATOM     50  C31 UNL     1       3.519   3.948  -3.191 +0.00 +0.00    +0.000 A  
DOCKED: ATOM     51  C32 UNL     1       2.603   3.935  -2.146 +0.00 +0.00    +0.000 A  
DOCKED: ATOM     52  C33 UNL     1       1.726   2.861  -1.996 +0.00 +0.00    +0.000 A  
DOCKED: ATOM     53  C34 UNL     1       1.778   1.786  -2.885 +0.00 +0.00    +0.005 A  
DOCKED: ENDBRANCH  47  48
DOCKED: ENDBRANCH  45  47
DOCKED: ENDBRANCH  42  43
DOCKED: BRANCH  42  54
DOCKED: ATOM     54  C35 UNL     1       5.020  -3.872  -5.104 +0.00 +0.00    +0.012 C  
DOCKED: ATOM     55  C36 UNL     1       5.498  -3.831  -6.562 +0.00 +0.00    +0.009 C  
DOCKED: ATOM     56  C37 UNL     1       5.912  -4.846  -4.327 +0.00 +0.00    +0.009 C  
DOCKED: ENDBRANCH  42  54
DOCKED: ENDBRANCH  40  42
DOCKED: ENDBRANCH  36  38
DOCKED: ENDBRANCH  35  36
DOCKED: ENDBRANCH  32  35
DOCKED: ENDBRANCH   1  32
DOCKED: TORSDOF 23
DOCKED: TER
DOCKED: ENDMDL
________________________________________________________________________________


    FINAL DOCKED STATE:
    ________________________


Run:   11 / 20
Time taken for this run:   2.054s

DOCKED: MODEL        11
DOCKED: USER    Run = 11
DOCKED: USER
DOCKED: USER    Estimated Free Energy of Binding    =  +6.86 kcal/mol  [=(1)+(2)+(3)-(4)]
DOCKED: USER
DOCKED: USER    (1) Final Intermolecular Energy     =  +0.00 kcal/mol
DOCKED: USER        vdW + Hbond + desolv Energy     =  +0.00 kcal/mol
DOCKED: USER        Electrostatic Energy            =  +0.00 kcal/mol
DOCKED: USER        Moving Ligand-Fixed Receptor    =  +0.00 kcal/mol
DOCKED: USER        Moving Ligand-Moving Receptor   =  +0.00 kcal/mol
DOCKED: USER    (2) Final Total Internal Energy     = -15.30 kcal/mol
DOCKED: USER    (3) Torsional Free Energy           =  +6.86 kcal/mol
DOCKED: USER    (4) Unbound System's Energy         = -15.30 kcal/mol
DOCKED: USER
DOCKED: USER
DOCKED: REMARK  Name = ligands/ligand_1.pdb
DOCKED: REMARK  34 active torsions:
DOCKED: REMARK  status: ('A' for Active; 'I' for Inactive)
DOCKED: REMARK    1  A    between atoms: C1_1  and  S1_2
DOCKED: REMARK    2  A    between atoms: S1_2  and  C2_3
DOCKED: REMARK    3  A    between atoms: C2_3  and  C3_4
DOCKED: REMARK    4  A    between atoms: C3_4  and  C4_5
DOCKED: REMARK    5  A    between atoms: C4_5  and  N1_6
DOCKED: REMARK    6  A    between atoms: C4_5  and  C15_21
DOCKED: REMARK    7  A    between atoms: C5_7  and  C6_9
DOCKED: REMARK    8  A    between atoms: C6_9  and  N2_10
DOCKED: REMARK    9  A    between atoms: C6_9  and  C12_18
DOCKED: REMARK   10  A    between atoms: C7_11  and  O3_13
DOCKED: REMARK   11  A    between atoms: O3_13  and  C8_14
DOCKED: REMARK   12  A    between atoms: C8_14  and  C9_15
DOCKED: REMARK   13  A    between atoms: C8_14  and  C10_16
DOCKED: REMARK   14  A    between atoms: C8_14  and  C11_17
DOCKED: REMARK   15  A    between atoms: C12_18  and  C13_19
DOCKED: REMARK   16  A    between atoms: C12_18  and  C14_20
DOCKED: REMARK   17  A    between atoms: N3_23  and  C16_24
DOCKED: REMARK   18  A    between atoms: C16_24  and  C17_25
DOCKED: REMARK   19  A    between atoms: C16_24  and  C21_29
DOCKED: REMARK   20  A    between atoms: C17_25  and  C18_26
DOCKED: REMARK   21  A    between atoms: C18_26  and  C19_27
DOCKED: REMARK   22  A    between atoms: C18_26  and  C20_28
DOCKED: REMARK   23  A    between atoms: C21_29  and  O5_30
DOCKED: REMARK   24  A    between atoms: C21_29  and  C22_31
DOCKED: REMARK   25  A    between atoms: C22_31  and  C23_32
DOCKED: REMARK   26  A    between atoms: C23_32  and  C24_33
DOCKED: REMARK   27  A    between atoms: C23_32  and  C25_34
DOCKED: REMARK   28  A    between atoms: N4_36  and  C26_37
DOCKED: REMARK   29  A    between atoms: C26_37  and  C27_38
DOCKED: REMARK   30  A    between atoms: C26_37  and  C35_48
DOCKED: REMARK   31  A    between atoms: N5_40  and  C28_41
DOCKED: REMARK   32  A    between atoms: C28_41  and  C29_42
DOCKED: REMARK   33  A    between atoms: C35_48  and  C36_49
DOCKED: REMARK   34  A    between atoms: C35_48  and  C37_50
DOCKED: REMARK                            x       y       z     vdW  Elec       q    Type
DOCKED: REMARK                         _______ _______ _______ _____ _____    ______ ____
DOCKED: USER                              x       y       z     vdW  Elec       q    Type
DOCKED: USER                           _______ _______ _______ _____ _____    ______ ____
DOCKED: ROOT
DOCKED: ATOM      1  C16 UNL     1      13.461  -3.227  -0.670 +0.00 +0.00    +0.102 C  
DOCKED: ENDROOT
DOCKED: BRANCH   1   4
DOCKED: ATOM      2  C15 UNL     1      14.272  -1.214   0.494 +0.00 +0.00    +0.234 C  
DOCKED: ATOM      3  O4  UNL     1      15.440  -1.542   0.270 +0.00 -0.00    -0.274 OA 
DOCKED: ATOM      4  N3  UNL     1      13.208  -2.016   0.118 +0.00 -0.00    -0.308 N  
DOCKED: ATOM      5  H28 UNL     1      12.365  -1.518  -0.121 +0.00 +0.00    +0.149 HD 
DOCKED: BRANCH   2   6
DOCKED: ATOM      6  C4  UNL     1      13.941   0.155   1.141 +0.00 +0.00    +0.160 C  
DOCKED: BRANCH   6   7
DOCKED: ATOM      7  N1  UNL     1      12.575   0.492   0.732 +0.00 -0.00    -0.302 N  
DOCKED: ATOM      8  C5  UNL     1      12.077   1.761   0.921 +0.00 +0.00    +0.234 C  
DOCKED: ATOM      9  O1  UNL     1      12.698   2.638   1.533 +0.00 -0.00    -0.274 OA 
DOCKED: ATOM     10  H9  UNL     1      12.115  -0.153   0.095 +0.00 +0.00    +0.150 HD 
DOCKED: BRANCH   8  11
DOCKED: ATOM     11  C6  UNL     1      10.678   2.029   0.333 +0.00 +0.00    +0.165 C  
DOCKED: BRANCH  11  12
DOCKED: ATOM     12  N2  UNL     1      10.633   1.303  -0.929 +0.00 -0.00    -0.270 N  
DOCKED: ATOM     13  C7  UNL     1      10.482  -0.038  -1.038 +0.00 +0.00    +0.401 C  
DOCKED: ATOM     14  O2  UNL     1      10.300  -0.798  -0.100 +0.00 -0.00    -0.226 OA 
DOCKED: ATOM     15  H11 UNL     1      10.780   1.830  -1.788 +0.00 +0.00    +0.153 HD 
DOCKED: BRANCH  13  16
DOCKED: ATOM     16  O3  UNL     1      10.573  -0.379  -2.342 +0.00 -0.00    -0.445 OA 
DOCKED: BRANCH  16  17
DOCKED: ATOM     17  C8  UNL     1       9.415  -0.332  -3.212 +0.00 +0.00    +0.107 C  
DOCKED: ATOM     18  C9  UNL     1       8.417  -1.329  -2.596 +0.00 +0.00    +0.055 C  
DOCKED: ATOM     19  C10 UNL     1       9.763  -0.797  -4.629 +0.00 +0.00    +0.055 C  
DOCKED: ATOM     20  C11 UNL     1       8.773   1.058  -3.215 +0.00 +0.00    +0.055 C  
DOCKED: ENDBRANCH  16  17
DOCKED: ENDBRANCH  13  16
DOCKED: ENDBRANCH  11  12
DOCKED: BRANCH  11  21
DOCKED: ATOM     21  C12 UNL     1       9.512   1.605   1.255 +0.00 +0.00    +0.012 C  
DOCKED: ATOM     22  C13 UNL     1       9.791   1.850   2.744 +0.00 +0.00    +0.009 C  
DOCKED: ATOM     23  C14 UNL     1       8.183   2.252   0.858 +0.00 +0.00    +0.009 C  
DOCKED: ENDBRANCH  11  21
DOCKED: ENDBRANCH   8  11
DOCKED: ENDBRANCH   6   7
DOCKED: BRANCH   6  24
DOCKED: ATOM     24  C3  UNL     1      14.075   0.307   2.661 +0.00 +0.00    +0.042 C  
DOCKED: BRANCH  24  25
DOCKED: ATOM     25  C2  UNL     1      12.815  -0.175   3.379 +0.00 +0.00    +0.071 C  
DOCKED: BRANCH  25  27
DOCKED: ATOM     26  C1  UNL     1      11.039  -2.145   2.564 +0.00 +0.00    +0.084 C  
DOCKED: ATOM     27  S1  UNL     1      12.668  -1.991   3.330 +0.00 -0.00    -0.164 S  
DOCKED: ENDBRANCH  25  27
DOCKED: ENDBRANCH  24  25
DOCKED: ENDBRANCH   6  24
DOCKED: ENDBRANCH   2   6
DOCKED: ENDBRANCH   1   4
DOCKED: BRANCH   1  28
DOCKED: ATOM     28  C17 UNL     1      14.470  -4.170   0.019 +0.00 +0.00    +0.028 C  
DOCKED: BRANCH  28  29
DOCKED: ATOM     29  C18 UNL     1      15.734  -4.538  -0.794 +0.00 -0.00    -0.015 C  
DOCKED: ATOM     30  C19 UNL     1      15.854  -3.735  -2.089 +0.00 +0.00    +0.007 C  
DOCKED: ATOM     31  C20 UNL     1      17.025  -4.436   0.011 +0.00 +0.00    +0.007 C  
DOCKED: ENDBRANCH  28  29
DOCKED: ENDBRANCH   1  28
DOCKED: BRANCH   1  32
DOCKED: ATOM     32  C21 UNL     1      12.135  -3.924  -1.100 +0.00 +0.00    +0.135 C  
DOCKED: BRANCH  32  33
DOCKED: ATOM     33  O5  UNL     1      11.190  -2.870  -1.384 +0.00 -0.00    -0.390 OA 
DOCKED: ATOM     34  H40 UNL     1      11.678  -2.030  -1.313 +0.00 +0.00    +0.210 HD 
DOCKED: ENDBRANCH  32  33
DOCKED: BRANCH  32  35
DOCKED: ATOM     35  C22 UNL     1      12.101  -4.828  -2.346 +0.00 +0.00    +0.045 C  
DOCKED: BRANCH  35  36
DOCKED: ATOM     36  C23 UNL     1      11.715  -4.329  -3.747 +0.00 +0.00    +0.074 C  
DOCKED: ATOM     37  C24 UNL     1      10.296  -3.779  -3.850 +0.00 +0.00    +0.017 C  
DOCKED: BRANCH  36  38
DOCKED: ATOM     38  C25 UNL     1      12.679  -3.347  -4.398 +0.00 +0.00    +0.217 C  
DOCKED: ATOM     39  O6  UNL     1      13.515  -3.658  -5.240 +0.00 -0.00    -0.276 OA 
DOCKED: ATOM     40  N4  UNL     1      12.592  -2.079  -3.880 +0.00 -0.00    -0.304 N  
DOCKED: ATOM     41  H47 UNL     1      11.944  -1.876  -3.122 +0.00 +0.00    +0.149 HD 
DOCKED: BRANCH  40  42
DOCKED: ATOM     42  C26 UNL     1      13.548  -1.017  -4.193 +0.00 +0.00    +0.161 C  
DOCKED: BRANCH  42  43
DOCKED: ATOM     43  C27 UNL     1      13.798  -0.319  -2.842 +0.00 +0.00    +0.234 C  
DOCKED: ATOM     44  O7  UNL     1      13.030  -0.459  -1.888 +0.00 -0.00    -0.274 OA 
DOCKED: ATOM     45  N5  UNL     1      14.920   0.475  -2.803 +0.00 -0.00    -0.310 N  
DOCKED: ATOM     46  H49 UNL     1      15.604   0.409  -3.544 +0.00 +0.00    +0.149 HD 
DOCKED: BRANCH  45  47
DOCKED: ATOM     47  C28 UNL     1      15.335   1.133  -1.585 +0.00 +0.00    +0.139 C  
DOCKED: BRANCH  47  48
DOCKED: ATOM     48  C29 UNL     1      14.580   2.419  -1.360 +0.00 -0.00    -0.030 A  
DOCKED: ATOM     49  C30 UNL     1      15.040   3.360  -0.428 +0.00 +0.00    +0.005 A  
DOCKED: ATOM     50  C31 UNL     1      14.332   4.543  -0.200 +0.00 +0.00    +0.000 A  
DOCKED: ATOM     51  C32 UNL     1      13.165   4.798  -0.911 +0.00 +0.00    +0.000 A  
DOCKED: ATOM     52  C33 UNL     1      12.710   3.883  -1.861 +0.00 +0.00    +0.000 A  
DOCKED: ATOM     53  C34 UNL     1      13.415   2.700  -2.087 +0.00 +0.00    +0.005 A  
DOCKED: ENDBRANCH  47  48
DOCKED: ENDBRANCH  45  47
DOCKED: ENDBRANCH  42  43
DOCKED: BRANCH  42  54
DOCKED: ATOM     54  C35 UNL     1      12.987  -0.029  -5.241 +0.00 +0.00    +0.012 C  
DOCKED: ATOM     55  C36 UNL     1      12.309   1.184  -4.590 +0.00 +0.00    +0.009 C  
DOCKED: ATOM     56  C37 UNL     1      14.092   0.475  -6.176 +0.00 +0.00    +0.009 C  
DOCKED: ENDBRANCH  42  54
DOCKED: ENDBRANCH  40  42
DOCKED: ENDBRANCH  36  38
DOCKED: ENDBRANCH  35  36
DOCKED: ENDBRANCH  32  35
DOCKED: ENDBRANCH   1  32
DOCKED: TORSDOF 23
DOCKED: TER
DOCKED: ENDMDL
________________________________________________________________________________


    FINAL DOCKED STATE:
    ________________________


Run:   12 / 20
Time taken for this run:   2.054s

DOCKED: MODEL        12
DOCKED: USER    Run = 12
DOCKED: USER
DOCKED: USER    Estimated Free Energy of Binding    =  +6.86 kcal/mol  [=(1)+(2)+(3)-(4)]
DOCKED: USER
DOCKED: USER    (1) Final Intermolecular Energy     =  +0.00 kcal/mol
DOCKED: USER        vdW + Hbond + desolv Energy     =  +0.00 kcal/mol
DOCKED: USER        Electrostatic Energy            =  +0.00 kcal/mol
DOCKED: USER        Moving Ligand-Fixed Receptor    =  +0.00 kcal/mol
DOCKED: USER        Moving Ligand-Moving Receptor   =  +0.00 kcal/mol
DOCKED: USER    (2) Final Total Internal Energy     = -14.94 kcal/mol
DOCKED: USER    (3) Torsional Free Energy           =  +6.86 kcal/mol
DOCKED: USER    (4) Unbound System's Energy         = -14.94 kcal/mol
DOCKED: USER
DOCKED: USER
DOCKED: REMARK  Name = ligands/ligand_1.pdb
DOCKED: REMARK  34 active torsions:
DOCKED: REMARK  status: ('A' for Active; 'I' for Inactive)
DOCKED: REMARK    1  A    between atoms: C1_1  and  S1_2
DOCKED: REMARK    2  A    between atoms: S1_2  and  C2_3
DOCKED: REMARK    3  A    between atoms: C2_3  and  C3_4
DOCKED: REMARK    4  A    between atoms: C3_4  and  C4_5
DOCKED: REMARK    5  A    between atoms: C4_5  and  N1_6
DOCKED: REMARK    6  A    between atoms: C4_5  and  C15_21
DOCKED: REMARK    7  A    between atoms: C5_7  and  C6_9
DOCKED: REMARK    8  A    between atoms: C6_9  and  N2_10
DOCKED: REMARK    9  A    between atoms: C6_9  and  C12_18
DOCKED: REMARK   10  A    between atoms: C7_11  and  O3_13
DOCKED: REMARK   11  A    between atoms: O3_13  and  C8_14
DOCKED: REMARK   12  A    between atoms: C8_14  and  C9_15
DOCKED: REMARK   13  A    between atoms: C8_14  and  C10_16
DOCKED: REMARK   14  A    between atoms: C8_14  and  C11_17
DOCKED: REMARK   15  A    between atoms: C12_18  and  C13_19
DOCKED: REMARK   16  A    between atoms: C12_18  and  C14_20
DOCKED: REMARK   17  A    between atoms: N3_23  and  C16_24
DOCKED: REMARK   18  A    between atoms: C16_24  and  C17_25
DOCKED: REMARK   19  A    between atoms: C16_24  and  C21_29
DOCKED: REMARK   20  A    between atoms: C17_25  and  C18_26
DOCKED: REMARK   21  A    between atoms: C18_26  and  C19_27
DOCKED: REMARK   22  A    between atoms: C18_26  and  C20_28
DOCKED: REMARK   23  A    between atoms: C21_29  and  O5_30
DOCKED: REMARK   24  A    between atoms: C21_29  and  C22_31
DOCKED: REMARK   25  A    between atoms: C22_31  and  C23_32
DOCKED: REMARK   26  A    between atoms: C23_32  and  C24_33
DOCKED: REMARK   27  A    between atoms: C23_32  and  C25_34
DOCKED: REMARK   28  A    between atoms: N4_36  and  C26_37
DOCKED: REMARK   29  A    between atoms: C26_37  and  C27_38
DOCKED: REMARK   30  A    between atoms: C26_37  and  C35_48
DOCKED: REMARK   31  A    between atoms: N5_40  and  C28_41
DOCKED: REMARK   32  A    between atoms: C28_41  and  C29_42
DOCKED: REMARK   33  A    between atoms: C35_48  and  C36_49
DOCKED: REMARK   34  A    between atoms: C35_48  and  C37_50
DOCKED: REMARK                            x       y       z     vdW  Elec       q    Type
DOCKED: REMARK                         _______ _______ _______ _____ _____    ______ ____
DOCKED: USER                              x       y       z     vdW  Elec       q    Type
DOCKED: USER                           _______ _______ _______ _____ _____    ______ ____
DOCKED: ROOT
DOCKED: ATOM      1  C16 UNL     1       6.812  -2.778  -1.293 +0.00 +0.00    +0.102 C  
DOCKED: ENDROOT
DOCKED: BRANCH   1   4
DOCKED: ATOM      2  C15 UNL     1       6.208  -0.671  -0.171 +0.00 +0.00    +0.234 C  
DOCKED: ATOM      3  O4  UNL     1       5.373  -1.264   0.516 +0.00 -0.00    -0.274 OA 
DOCKED: ATOM      4  N3  UNL     1       6.941  -1.324  -1.147 +0.00 -0.00    -0.308 N  
DOCKED: ATOM      5  H28 UNL     1       7.869  -0.959  -1.298 +0.00 +0.00    +0.149 HD 
DOCKED: BRANCH   2   6
DOCKED: ATOM      6  C4  UNL     1       6.531   0.824   0.083 +0.00 +0.00    +0.160 C  
DOCKED: BRANCH   6   7
DOCKED: ATOM      7  N1  UNL     1       7.888   1.050  -0.418 +0.00 -0.00    -0.302 N  
DOCKED: ATOM      8  C5  UNL     1       8.732   1.938   0.211 +0.00 +0.00    +0.234 C  
DOCKED: ATOM      9  O1  UNL     1       8.365   2.659   1.146 +0.00 -0.00    -0.274 OA 
DOCKED: ATOM     10  H9  UNL     1       8.256   0.364  -1.071 +0.00 +0.00    +0.150 HD 
DOCKED: BRANCH   8  11
DOCKED: ATOM     11  C6  UNL     1      10.175   1.993  -0.329 +0.00 +0.00    +0.165 C  
DOCKED: BRANCH  11  12
DOCKED: ATOM     12  N2  UNL     1      10.051   2.137  -1.773 +0.00 -0.00    -0.270 N  
DOCKED: ATOM     13  C7  UNL     1       9.786   1.120  -2.626 +0.00 +0.00    +0.401 C  
DOCKED: ATOM     14  O2  UNL     1       9.555  -0.030  -2.290 +0.00 -0.00    -0.226 OA 
DOCKED: ATOM     15  H11 UNL     1      10.228   3.056  -2.178 +0.00 +0.00    +0.153 HD 
DOCKED: BRANCH  13  16
DOCKED: ATOM     16  O3  UNL     1       9.828   1.594  -3.890 +0.00 -0.00    -0.445 OA 
DOCKED: BRANCH  16  17
DOCKED: ATOM     17  C8  UNL     1       9.779   0.699  -5.029 +0.00 +0.00    +0.107 C  
DOCKED: ATOM     18  C9  UNL     1       9.513   1.613  -6.238 +0.00 +0.00    +0.055 C  
DOCKED: ATOM     19  C10 UNL     1       8.623  -0.299  -4.904 +0.00 +0.00    +0.055 C  
DOCKED: ATOM     20  C11 UNL     1      11.118  -0.011  -5.241 +0.00 +0.00    +0.055 C  
DOCKED: ENDBRANCH  16  17
DOCKED: ENDBRANCH  13  16
DOCKED: ENDBRANCH  11  12
DOCKED: BRANCH  11  21
DOCKED: ATOM     21  C12 UNL     1      11.030   3.134   0.268 +0.00 +0.00    +0.012 C  
DOCKED: ATOM     22  C13 UNL     1      11.334   2.952   1.761 +0.00 +0.00    +0.009 C  
DOCKED: ATOM     23  C14 UNL     1      12.330   3.361  -0.506 +0.00 +0.00    +0.009 C  
DOCKED: ENDBRANCH  11  21
DOCKED: ENDBRANCH   8  11
DOCKED: ENDBRANCH   6   7
DOCKED: BRANCH   6  24
DOCKED: ATOM     24  C3  UNL     1       5.588   1.891  -0.484 +0.00 +0.00    +0.042 C  
DOCKED: BRANCH  24  25
DOCKED: ATOM     25  C2  UNL     1       4.921   1.411  -1.773 +0.00 +0.00    +0.071 C  
DOCKED: BRANCH  25  27
DOCKED: ATOM     26  C1  UNL     1       6.897   2.921  -3.002 +0.00 +0.00    +0.084 C  
DOCKED: ATOM     27  S1  UNL     1       6.115   1.299  -3.144 +0.00 -0.00    -0.164 S  
DOCKED: ENDBRANCH  25  27
DOCKED: ENDBRANCH  24  25
DOCKED: ENDBRANCH   6  24
DOCKED: ENDBRANCH   2   6
DOCKED: ENDBRANCH   1   4
DOCKED: BRANCH   1  28
DOCKED: ATOM     28  C17 UNL     1       5.890  -3.166  -2.468 +0.00 +0.00    +0.028 C  
DOCKED: BRANCH  28  29
DOCKED: ATOM     29  C18 UNL     1       6.135  -2.432  -3.807 +0.00 -0.00    -0.015 C  
DOCKED: ATOM     30  C19 UNL     1       6.888  -3.295  -4.821 +0.00 +0.00    +0.007 C  
DOCKED: ATOM     31  C20 UNL     1       4.865  -1.869  -4.435 +0.00 +0.00    +0.007 C  
DOCKED: ENDBRANCH  28  29
DOCKED: ENDBRANCH   1  28
DOCKED: BRANCH   1  32
DOCKED: ATOM     32  C21 UNL     1       8.203  -3.482  -1.321 +0.00 +0.00    +0.135 C  
DOCKED: BRANCH  32  33
DOCKED: ATOM     33  O5  UNL     1       9.152  -2.500  -1.790 +0.00 -0.00    -0.390 OA 
DOCKED: ATOM     34  H40 UNL     1       9.081  -1.734  -1.190 +0.00 +0.00    +0.210 HD 
DOCKED: ENDBRANCH  32  33
DOCKED: BRANCH  32  35
DOCKED: ATOM     35  C22 UNL     1       8.819  -4.035  -0.023 +0.00 +0.00    +0.045 C  
DOCKED: BRANCH  35  36
DOCKED: ATOM     36  C23 UNL     1       9.150  -3.163   1.198 +0.00 +0.00    +0.074 C  
DOCKED: ATOM     37  C24 UNL     1       9.910  -3.890   2.303 +0.00 +0.00    +0.017 C  
DOCKED: BRANCH  36  38
DOCKED: ATOM     38  C25 UNL     1       9.841  -1.837   0.907 +0.00 +0.00    +0.217 C  
DOCKED: ATOM     39  O6  UNL     1       9.325  -0.913   0.286 +0.00 -0.00    -0.276 OA 
DOCKED: ATOM     40  N4  UNL     1      11.147  -1.804   1.326 +0.00 -0.00    -0.304 N  
DOCKED: ATOM     41  H47 UNL     1      11.569  -2.621   1.763 +0.00 +0.00    +0.149 HD 
DOCKED: BRANCH  40  42
DOCKED: ATOM     42  C26 UNL     1      12.074  -0.727   0.979 +0.00 +0.00    +0.161 C  
DOCKED: BRANCH  42  43
DOCKED: ATOM     43  C27 UNL     1      12.706  -1.181  -0.351 +0.00 +0.00    +0.234 C  
DOCKED: ATOM     44  O7  UNL     1      13.912  -1.416  -0.448 +0.00 -0.00    -0.274 OA 
DOCKED: ATOM     45  N5  UNL     1      11.826  -1.277  -1.403 +0.00 -0.00    -0.310 N  
DOCKED: ATOM     46  H49 UNL     1      10.832  -1.250  -1.227 +0.00 +0.00    +0.149 HD 
DOCKED: BRANCH  45  47
DOCKED: ATOM     47  C28 UNL     1      12.250  -1.765  -2.696 +0.00 +0.00    +0.139 C  
DOCKED: BRANCH  47  48
DOCKED: ATOM     48  C29 UNL     1      11.584  -3.073  -3.044 +0.00 -0.00    -0.030 A  
DOCKED: ATOM     49  C30 UNL     1      10.837  -3.199  -4.223 +0.00 +0.00    +0.005 A  
DOCKED: ATOM     50  C31 UNL     1      10.199  -4.401  -4.540 +0.00 +0.00    +0.000 A  
DOCKED: ATOM     51  C32 UNL     1      10.313  -5.490  -3.682 +0.00 +0.00    +0.000 A  
DOCKED: ATOM     52  C33 UNL     1      11.075  -5.388  -2.519 +0.00 +0.00    +0.000 A  
DOCKED: ATOM     53  C34 UNL     1      11.711  -4.186  -2.201 +0.00 +0.00    +0.005 A  
DOCKED: ENDBRANCH  47  48
DOCKED: ENDBRANCH  45  47
DOCKED: ENDBRANCH  42  43
DOCKED: BRANCH  42  54
DOCKED: ATOM     54  C35 UNL     1      13.149  -0.518   2.070 +0.00 +0.00    +0.012 C  
DOCKED: ATOM     55  C36 UNL     1      14.005   0.728   1.810 +0.00 +0.00    +0.009 C  
DOCKED: ATOM     56  C37 UNL     1      12.514  -0.391   3.459 +0.00 +0.00    +0.009 C  
DOCKED: ENDBRANCH  42  54
DOCKED: ENDBRANCH  40  42
DOCKED: ENDBRANCH  36  38
DOCKED: ENDBRANCH  35  36
DOCKED: ENDBRANCH  32  35
DOCKED: ENDBRANCH   1  32
DOCKED: TORSDOF 23
DOCKED: TER
DOCKED: ENDMDL
________________________________________________________________________________


    FINAL DOCKED STATE:
    ________________________


Run:   13 / 20
Time taken for this run:   2.054s

DOCKED: MODEL        13
DOCKED: USER    Run = 13
DOCKED: USER
DOCKED: USER    Estimated Free Energy of Binding    =  +6.86 kcal/mol  [=(1)+(2)+(3)-(4)]
DOCKED: USER
DOCKED: USER    (1) Final Intermolecular Energy     =  +0.00 kcal/mol
DOCKED: USER        vdW + Hbond + desolv Energy     =  +0.00 kcal/mol
DOCKED: USER        Electrostatic Energy            =  +0.00 kcal/mol
DOCKED: USER        Moving Ligand-Fixed Receptor    =  +0.00 kcal/mol
DOCKED: USER        Moving Ligand-Moving Receptor   =  +0.00 kcal/mol
DOCKED: USER    (2) Final Total Internal Energy     = -15.24 kcal/mol
DOCKED: USER    (3) Torsional Free Energy           =  +6.86 kcal/mol
DOCKED: USER    (4) Unbound System's Energy         = -15.24 kcal/mol
DOCKED: USER
DOCKED: USER
DOCKED: REMARK  Name = ligands/ligand_1.pdb
DOCKED: REMARK  34 active torsions:
DOCKED: REMARK  status: ('A' for Active; 'I' for Inactive)
DOCKED: REMARK    1  A    between atoms: C1_1  and  S1_2
DOCKED: REMARK    2  A    between atoms: S1_2  and  C2_3
DOCKED: REMARK    3  A    between atoms: C2_3  and  C3_4
DOCKED: REMARK    4  A    between atoms: C3_4  and  C4_5
DOCKED: REMARK    5  A    between atoms: C4_5  and  N1_6
DOCKED: REMARK    6  A    between atoms: C4_5  and  C15_21
DOCKED: REMARK    7  A    between atoms: C5_7  and  C6_9
DOCKED: REMARK    8  A    between atoms: C6_9  and  N2_10
DOCKED: REMARK    9  A    between atoms: C6_9  and  C12_18
DOCKED: REMARK   10  A    between atoms: C7_11  and  O3_13
DOCKED: REMARK   11  A    between atoms: O3_13  and  C8_14
DOCKED: REMARK   12  A    between atoms: C8_14  and  C9_15
DOCKED: REMARK   13  A    between atoms: C8_14  and  C10_16
DOCKED: REMARK   14  A    between atoms: C8_14  and  C11_17
DOCKED: REMARK   15  A    between atoms: C12_18  and  C13_19
DOCKED: REMARK   16  A    between atoms: C12_18  and  C14_20
DOCKED: REMARK   17  A    between atoms: N3_23  and  C16_24
DOCKED: REMARK   18  A    between atoms: C16_24  and  C17_25
DOCKED: REMARK   19  A    between atoms: C16_24  and  C21_29
DOCKED: REMARK   20  A    between atoms: C17_25  and  C18_26
DOCKED: REMARK   21  A    between atoms: C18_26  and  C19_27
DOCKED: REMARK   22  A    between atoms: C18_26  and  C20_28
DOCKED: REMARK   23  A    between atoms: C21_29  and  O5_30
DOCKED: REMARK   24  A    between atoms: C21_29  and  C22_31
DOCKED: REMARK   25  A    between atoms: C22_31  and  C23_32
DOCKED: REMARK   26  A    between atoms: C23_32  and  C24_33
DOCKED: REMARK   27  A    between atoms: C23_32  and  C25_34
DOCKED: REMARK   28  A    between atoms: N4_36  and  C26_37
DOCKED: REMARK   29  A    between atoms: C26_37  and  C27_38
DOCKED: REMARK   30  A    between atoms: C26_37  and  C35_48
DOCKED: REMARK   31  A    between atoms: N5_40  and  C28_41
DOCKED: REMARK   32  A    between atoms: C28_41  and  C29_42
DOCKED: REMARK   33  A    between atoms: C35_48  and  C36_49
DOCKED: REMARK   34  A    between atoms: C35_48  and  C37_50
DOCKED: REMARK                            x       y       z     vdW  Elec       q    Type
DOCKED: REMARK                         _______ _______ _______ _____ _____    ______ ____
DOCKED: USER                              x       y       z     vdW  Elec       q    Type
DOCKED: USER                           _______ _______ _______ _____ _____    ______ ____
DOCKED: ROOT
DOCKED: ATOM      1  C16 UNL     1       2.292  -2.734   0.984 +0.00 +0.00    +0.102 C  
DOCKED: ENDROOT
DOCKED: BRANCH   1   4
DOCKED: ATOM      2  C15 UNL     1       2.545  -3.355   3.353 +0.00 +0.00    +0.234 C  
DOCKED: ATOM      3  O4  UNL     1       1.431  -3.884   3.344 +0.00 -0.00    -0.274 OA 
DOCKED: ATOM      4  N3  UNL     1       3.046  -2.700   2.241 +0.00 -0.00    -0.308 N  
DOCKED: ATOM      5  H28 UNL     1       4.048  -2.739   2.141 +0.00 +0.00    +0.149 HD 
DOCKED: BRANCH   2   6
DOCKED: ATOM      6  C4  UNL     1       3.469  -3.467   4.592 +0.00 +0.00    +0.160 C  
DOCKED: BRANCH   6   7
DOCKED: ATOM      7  N1  UNL     1       4.717  -2.782   4.248 +0.00 -0.00    -0.302 N  
DOCKED: ATOM      8  C5  UNL     1       5.754  -3.465   3.652 +0.00 +0.00    +0.234 C  
DOCKED: ATOM      9  O1  UNL     1       5.734  -4.689   3.480 +0.00 -0.00    -0.274 OA 
DOCKED: ATOM     10  H9  UNL     1       4.693  -1.766   4.233 +0.00 +0.00    +0.150 HD 
DOCKED: BRANCH   8  11
DOCKED: ATOM     11  C6  UNL     1       6.961  -2.610   3.220 +0.00 +0.00    +0.165 C  
DOCKED: BRANCH  11  12
DOCKED: ATOM     12  N2  UNL     1       6.669  -2.172   1.862 +0.00 -0.00    -0.270 N  
DOCKED: ATOM     13  C7  UNL     1       5.668  -1.324   1.528 +0.00 +0.00    +0.401 C  
DOCKED: ATOM     14  O2  UNL     1       4.926  -0.771   2.325 +0.00 -0.00    -0.226 OA 
DOCKED: ATOM     15  H11 UNL     1       7.220  -2.571   1.103 +0.00 +0.00    +0.153 HD 
DOCKED: BRANCH  13  16
DOCKED: ATOM     16  O3  UNL     1       5.632  -1.205   0.183 +0.00 -0.00    -0.445 OA 
DOCKED: BRANCH  16  17
DOCKED: ATOM     17  C8  UNL     1       5.733   0.090  -0.459 +0.00 +0.00    +0.107 C  
DOCKED: ATOM     18  C9  UNL     1       7.118   0.624  -0.056 +0.00 +0.00    +0.055 C  
DOCKED: ATOM     19  C10 UNL     1       4.663   1.055   0.062 +0.00 +0.00    +0.055 C  
DOCKED: ATOM     20  C11 UNL     1       5.685  -0.036  -1.985 +0.00 +0.00    +0.055 C  
DOCKED: ENDBRANCH  16  17
DOCKED: ENDBRANCH  13  16
DOCKED: ENDBRANCH  11  12
DOCKED: BRANCH  11  21
DOCKED: ATOM     21  C12 UNL     1       7.244  -1.402   4.141 +0.00 +0.00    +0.012 C  
DOCKED: ATOM     22  C13 UNL     1       7.581  -1.800   5.584 +0.00 +0.00    +0.009 C  
DOCKED: ATOM     23  C14 UNL     1       8.331  -0.480   3.585 +0.00 +0.00    +0.009 C  
DOCKED: ENDBRANCH  11  21
DOCKED: ENDBRANCH   8  11
DOCKED: ENDBRANCH   6   7
DOCKED: BRANCH   6  24
DOCKED: ATOM     24  C3  UNL     1       2.958  -2.958   5.945 +0.00 +0.00    +0.042 C  
DOCKED: BRANCH  24  25
DOCKED: ATOM     25  C2  UNL     1       2.652  -1.461   5.893 +0.00 +0.00    +0.071 C  
DOCKED: BRANCH  25  27
DOCKED: ATOM     26  C1  UNL     1       4.132   0.665   4.901 +0.00 +0.00    +0.084 C  
DOCKED: ATOM     27  S1  UNL     1       4.117  -0.462   6.312 +0.00 -0.00    -0.164 S  
DOCKED: ENDBRANCH  25  27
DOCKED: ENDBRANCH  24  25
DOCKED: ENDBRANCH   6  24
DOCKED: ENDBRANCH   2   6
DOCKED: ENDBRANCH   1   4
DOCKED: BRANCH   1  28
DOCKED: ATOM     28  C17 UNL     1       1.281  -1.573   0.879 +0.00 +0.00    +0.028 C  
DOCKED: BRANCH  28  29
DOCKED: ATOM     29  C18 UNL     1       1.727  -0.216   1.473 +0.00 -0.00    -0.015 C  
DOCKED: ATOM     30  C19 UNL     1       1.279   0.974   0.623 +0.00 +0.00    +0.007 C  
DOCKED: ATOM     31  C20 UNL     1       1.301  -0.017   2.924 +0.00 +0.00    +0.007 C  
DOCKED: ENDBRANCH  28  29
DOCKED: ENDBRANCH   1  28
DOCKED: BRANCH   1  32
DOCKED: ATOM     32  C21 UNL     1       3.234  -2.866  -0.252 +0.00 +0.00    +0.135 C  
DOCKED: BRANCH  32  33
DOCKED: ATOM     33  O5  UNL     1       4.334  -3.707   0.159 +0.00 -0.00    -0.390 OA 
DOCKED: ATOM     34  H40 UNL     1       5.109  -3.123   0.261 +0.00 +0.00    +0.210 HD 
DOCKED: ENDBRANCH  32  33
DOCKED: BRANCH  32  35
DOCKED: ATOM     35  C22 UNL     1       2.719  -3.502  -1.556 +0.00 +0.00    +0.045 C  
DOCKED: BRANCH  35  36
DOCKED: ATOM     36  C23 UNL     1       3.527  -3.532  -2.862 +0.00 +0.00    +0.074 C  
DOCKED: ATOM     37  C24 UNL     1       3.600  -2.193  -3.589 +0.00 +0.00    +0.017 C  
DOCKED: BRANCH  36  38
DOCKED: ATOM     38  C25 UNL     1       4.927  -4.126  -2.771 +0.00 +0.00    +0.217 C  
DOCKED: ATOM     39  O6  UNL     1       5.263  -5.182  -3.298 +0.00 -0.00    -0.276 OA 
DOCKED: ATOM     40  N4  UNL     1       5.765  -3.412  -1.953 +0.00 -0.00    -0.304 N  
DOCKED: ATOM     41  H47 UNL     1       5.428  -2.586  -1.464 +0.00 +0.00    +0.149 HD 
DOCKED: BRANCH  40  42
DOCKED: ATOM     42  C26 UNL     1       7.086  -3.890  -1.544 +0.00 +0.00    +0.161 C  
DOCKED: BRANCH  42  43
DOCKED: ATOM     43  C27 UNL     1       6.797  -4.868  -0.388 +0.00 +0.00    +0.234 C  
DOCKED: ATOM     44  O7  UNL     1       6.855  -4.514   0.791 +0.00 -0.00    -0.274 OA 
DOCKED: ATOM     45  N5  UNL     1       6.495  -6.151  -0.782 +0.00 -0.00    -0.310 N  
DOCKED: ATOM     46  H49 UNL     1       6.283  -6.338  -1.752 +0.00 +0.00    +0.149 HD 
DOCKED: BRANCH  45  47
DOCKED: ATOM     47  C28 UNL     1       6.122  -7.164   0.178 +0.00 +0.00    +0.139 C  
DOCKED: BRANCH  47  48
DOCKED: ATOM     48  C29 UNL     1       4.746  -6.918   0.744 +0.00 -0.00    -0.030 A  
DOCKED: ATOM     49  C30 UNL     1       3.670  -6.623  -0.105 +0.00 +0.00    +0.005 A  
DOCKED: ATOM     50  C31 UNL     1       2.398  -6.371   0.415 +0.00 +0.00    +0.000 A  
DOCKED: ATOM     51  C32 UNL     1       2.191  -6.424   1.789 +0.00 +0.00    +0.000 A  
DOCKED: ATOM     52  C33 UNL     1       3.246  -6.742   2.644 +0.00 +0.00    +0.000 A  
DOCKED: ATOM     53  C34 UNL     1       4.517  -6.991   2.125 +0.00 +0.00    +0.005 A  
DOCKED: ENDBRANCH  47  48
DOCKED: ENDBRANCH  45  47
DOCKED: ENDBRANCH  42  43
DOCKED: BRANCH  42  54
DOCKED: ATOM     54  C35 UNL     1       8.001  -2.732  -1.084 +0.00 +0.00    +0.012 C  
DOCKED: ATOM     55  C36 UNL     1       9.243  -3.236  -0.337 +0.00 +0.00    +0.009 C  
DOCKED: ATOM     56  C37 UNL     1       8.460  -1.880  -2.273 +0.00 +0.00    +0.009 C  
DOCKED: ENDBRANCH  42  54
DOCKED: ENDBRANCH  40  42
DOCKED: ENDBRANCH  36  38
DOCKED: ENDBRANCH  35  36
DOCKED: ENDBRANCH  32  35
DOCKED: ENDBRANCH   1  32
DOCKED: TORSDOF 23
DOCKED: TER
DOCKED: ENDMDL
________________________________________________________________________________


    FINAL DOCKED STATE:
    ________________________


Run:   14 / 20
Time taken for this run:   2.054s

DOCKED: MODEL        14
DOCKED: USER    Run = 14
DOCKED: USER
DOCKED: USER    Estimated Free Energy of Binding    =  +6.86 kcal/mol  [=(1)+(2)+(3)-(4)]
DOCKED: USER
DOCKED: USER    (1) Final Intermolecular Energy     =  +0.00 kcal/mol
DOCKED: USER        vdW + Hbond + desolv Energy     =  +0.00 kcal/mol
DOCKED: USER        Electrostatic Energy            =  +0.00 kcal/mol
DOCKED: USER        Moving Ligand-Fixed Receptor    =  +0.00 kcal/mol
DOCKED: USER        Moving Ligand-Moving Receptor   =  +0.00 kcal/mol
DOCKED: USER    (2) Final Total Internal Energy     = -15.24 kcal/mol
DOCKED: USER    (3) Torsional Free Energy           =  +6.86 kcal/mol
DOCKED: USER    (4) Unbound System's Energy         = -15.24 kcal/mol
DOCKED: USER
DOCKED: USER
DOCKED: REMARK  Name = ligands/ligand_1.pdb
DOCKED: REMARK  34 active torsions:
DOCKED: REMARK  status: ('A' for Active; 'I' for Inactive)
DOCKED: REMARK    1  A    between atoms: C1_1  and  S1_2
DOCKED: REMARK    2  A    between atoms: S1_2  and  C2_3
DOCKED: REMARK    3  A    between atoms: C2_3  and  C3_4
DOCKED: REMARK    4  A    between atoms: C3_4  and  C4_5
DOCKED: REMARK    5  A    between atoms: C4_5  and  N1_6
DOCKED: REMARK    6  A    between atoms: C4_5  and  C15_21
DOCKED: REMARK    7  A    between atoms: C5_7  and  C6_9
DOCKED: REMARK    8  A    between atoms: C6_9  and  N2_10
DOCKED: REMARK    9  A    between atoms: C6_9  and  C12_18
DOCKED: REMARK   10  A    between atoms: C7_11  and  O3_13
DOCKED: REMARK   11  A    between atoms: O3_13  and  C8_14
DOCKED: REMARK   12  A    between atoms: C8_14  and  C9_15
DOCKED: REMARK   13  A    between atoms: C8_14  and  C10_16
DOCKED: REMARK   14  A    between atoms: C8_14  and  C11_17
DOCKED: REMARK   15  A    between atoms: C12_18  and  C13_19
DOCKED: REMARK   16  A    between atoms: C12_18  and  C14_20
DOCKED: REMARK   17  A    between atoms: N3_23  and  C16_24
DOCKED: REMARK   18  A    between atoms: C16_24  and  C17_25
DOCKED: REMARK   19  A    between atoms: C16_24  and  C21_29
DOCKED: REMARK   20  A    between atoms: C17_25  and  C18_26
DOCKED: REMARK   21  A    between atoms: C18_26  and  C19_27
DOCKED: REMARK   22  A    between atoms: C18_26  and  C20_28
DOCKED: REMARK   23  A    between atoms: C21_29  and  O5_30
DOCKED: REMARK   24  A    between atoms: C21_29  and  C22_31
DOCKED: REMARK   25  A    between atoms: C22_31  and  C23_32
DOCKED: REMARK   26  A    between atoms: C23_32  and  C24_33
DOCKED: REMARK   27  A    between atoms: C23_32  and  C25_34
DOCKED: REMARK   28  A    between atoms: N4_36  and  C26_37
DOCKED: REMARK   29  A    between atoms: C26_37  and  C27_38
DOCKED: REMARK   30  A    between atoms: C26_37  and  C35_48
DOCKED: REMARK   31  A    between atoms: N5_40  and  C28_41
DOCKED: REMARK   32  A    between atoms: C28_41  and  C29_42
DOCKED: REMARK   33  A    between atoms: C35_48  and  C36_49
DOCKED: REMARK   34  A    between atoms: C35_48  and  C37_50
DOCKED: REMARK                            x       y       z     vdW  Elec       q    Type
DOCKED: REMARK                         _______ _______ _______ _____ _____    ______ ____
DOCKED: USER                              x       y       z     vdW  Elec       q    Type
DOCKED: USER                           _______ _______ _______ _____ _____    ______ ____
DOCKED: ROOT
DOCKED: ATOM      1  C16 UNL     1      12.366 -12.356  -6.321 +0.00 +0.00    +0.102 C  
DOCKED: ENDROOT
DOCKED: BRANCH   1   4
DOCKED: ATOM      2  C15 UNL     1      10.496 -12.188  -4.728 +0.00 +0.00    +0.234 C  
DOCKED: ATOM      3  O4  UNL     1      10.457 -13.417  -4.628 +0.00 -0.00    -0.274 OA 
DOCKED: ATOM      4  N3  UNL     1      11.375 -11.557  -5.591 +0.00 -0.00    -0.308 N  
DOCKED: ATOM      5  H28 UNL     1      11.696 -10.652  -5.286 +0.00 +0.00    +0.149 HD 
DOCKED: BRANCH   2   6
DOCKED: ATOM      6  C4  UNL     1       9.611 -11.288  -3.827 +0.00 +0.00    +0.160 C  
DOCKED: BRANCH   6   7
DOCKED: ATOM      7  N1  UNL     1       9.768  -9.919  -4.322 +0.00 -0.00    -0.302 N  
DOCKED: ATOM      8  C5  UNL     1       9.514  -8.841  -3.503 +0.00 +0.00    +0.234 C  
DOCKED: ATOM      9  O1  UNL     1       9.045  -8.964  -2.365 +0.00 -0.00    -0.274 OA 
DOCKED: ATOM     10  H9  UNL     1      10.295  -9.799  -5.182 +0.00 +0.00    +0.150 HD 
DOCKED: BRANCH   8  11
DOCKED: ATOM     11  C6  UNL     1       9.838  -7.455  -4.094 +0.00 +0.00    +0.165 C  
DOCKED: BRANCH  11  12
DOCKED: ATOM     12  N2  UNL     1      11.281  -7.439  -4.295 +0.00 -0.00    -0.270 N  
DOCKED: ATOM     13  C7  UNL     1      11.926  -8.097  -5.287 +0.00 +0.00    +0.401 C  
DOCKED: ATOM     14  O2  UNL     1      11.378  -8.733  -6.173 +0.00 -0.00    -0.226 OA 
DOCKED: ATOM     15  H11 UNL     1      11.852  -6.943  -3.612 +0.00 +0.00    +0.153 HD 
DOCKED: BRANCH  13  16
DOCKED: ATOM     16  O3  UNL     1      13.256  -7.933  -5.121 +0.00 -0.00    -0.445 OA 
DOCKED: BRANCH  16  17
DOCKED: ATOM     17  C8  UNL     1      14.023  -7.079  -6.005 +0.00 +0.00    +0.107 C  
DOCKED: ATOM     18  C9  UNL     1      13.360  -5.695  -5.890 +0.00 +0.00    +0.055 C  
DOCKED: ATOM     19  C10 UNL     1      13.924  -7.551  -7.460 +0.00 +0.00    +0.055 C  
DOCKED: ATOM     20  C11 UNL     1      15.479  -6.961  -5.546 +0.00 +0.00    +0.055 C  
DOCKED: ENDBRANCH  16  17
DOCKED: ENDBRANCH  13  16
DOCKED: ENDBRANCH  11  12
DOCKED: BRANCH  11  21
DOCKED: ATOM     21  C12 UNL     1       9.094  -7.140  -5.412 +0.00 +0.00    +0.012 C  
DOCKED: ATOM     22  C13 UNL     1       7.566  -7.192  -5.278 +0.00 +0.00    +0.009 C  
DOCKED: ATOM     23  C14 UNL     1       9.520  -5.803  -6.022 +0.00 +0.00    +0.009 C  
DOCKED: ENDBRANCH  11  21
DOCKED: ENDBRANCH   8  11
DOCKED: ENDBRANCH   6   7
DOCKED: BRANCH   6  24
DOCKED: ATOM     24  C3  UNL     1       8.121 -11.619  -3.688 +0.00 +0.00    +0.042 C  
DOCKED: BRANCH  24  25
DOCKED: ATOM     25  C2  UNL     1       7.295 -10.917  -4.766 +0.00 +0.00    +0.071 C  
DOCKED: BRANCH  25  27
DOCKED: ATOM     26  C1  UNL     1       8.142 -10.000  -7.243 +0.00 +0.00    +0.084 C  
DOCKED: ATOM     27  S1  UNL     1       7.690 -11.548  -6.429 +0.00 -0.00    -0.164 S  
DOCKED: ENDBRANCH  25  27
DOCKED: ENDBRANCH  24  25
DOCKED: ENDBRANCH   6  24
DOCKED: ENDBRANCH   2   6
DOCKED: ENDBRANCH   1   4
DOCKED: BRANCH   1  28
DOCKED: ATOM     28  C17 UNL     1      11.877 -12.745  -7.732 +0.00 +0.00    +0.028 C  
DOCKED: BRANCH  28  29
DOCKED: ATOM     29  C18 UNL     1      10.789 -11.839  -8.357 +0.00 -0.00    -0.015 C  
DOCKED: ATOM     30  C19 UNL     1      11.328 -10.465  -8.757 +0.00 +0.00    +0.007 C  
DOCKED: ATOM     31  C20 UNL     1      10.064 -12.483  -9.533 +0.00 +0.00    +0.007 C  
DOCKED: ENDBRANCH  28  29
DOCKED: ENDBRANCH   1  28
DOCKED: BRANCH   1  32
DOCKED: ATOM     32  C21 UNL     1      13.775 -11.687  -6.301 +0.00 +0.00    +0.135 C  
DOCKED: BRANCH  32  33
DOCKED: ATOM     33  O5  UNL     1      13.553 -10.261  -6.327 +0.00 -0.00    -0.390 OA 
DOCKED: ATOM     34  H40 UNL     1      13.012 -10.048  -5.544 +0.00 +0.00    +0.210 HD 
DOCKED: ENDBRANCH  32  33
DOCKED: BRANCH  32  35
DOCKED: ATOM     35  C22 UNL     1      14.726 -11.916  -5.113 +0.00 +0.00    +0.045 C  
DOCKED: BRANCH  35  36
DOCKED: ATOM     36  C23 UNL     1      14.603 -11.175  -3.772 +0.00 +0.00    +0.074 C  
DOCKED: ATOM     37  C24 UNL     1      15.278  -9.807  -3.744 +0.00 +0.00    +0.017 C  
DOCKED: BRANCH  36  38
DOCKED: ATOM     38  C25 UNL     1      13.196 -11.047  -3.203 +0.00 +0.00    +0.217 C  
DOCKED: ATOM     39  O6  UNL     1      12.432 -10.120  -3.456 +0.00 -0.00    -0.276 OA 
DOCKED: ATOM     40  N4  UNL     1      12.890 -12.027  -2.293 +0.00 -0.00    -0.304 N  
DOCKED: ATOM     41  H47 UNL     1      13.579 -12.733  -2.045 +0.00 +0.00    +0.149 HD 
DOCKED: BRANCH  40  42
DOCKED: ATOM     42  C26 UNL     1      11.686 -12.003  -1.462 +0.00 +0.00    +0.161 C  
DOCKED: BRANCH  42  43
DOCKED: ATOM     43  C27 UNL     1      11.897 -10.800  -0.521 +0.00 +0.00    +0.234 C  
DOCKED: ATOM     44  O7  UNL     1      12.497 -10.913   0.550 +0.00 -0.00    -0.274 OA 
DOCKED: ATOM     45  N5  UNL     1      11.348  -9.619  -0.964 +0.00 -0.00    -0.310 N  
DOCKED: ATOM     46  H49 UNL     1      11.032  -9.544  -1.920 +0.00 +0.00    +0.149 HD 
DOCKED: BRANCH  45  47
DOCKED: ATOM     47  C28 UNL     1      11.529  -8.385  -0.234 +0.00 +0.00    +0.139 C  
DOCKED: BRANCH  47  48
DOCKED: ATOM     48  C29 UNL     1      12.276  -7.359  -1.048 +0.00 -0.00    -0.030 A  
DOCKED: ATOM     49  C30 UNL     1      13.527  -7.664  -1.601 +0.00 +0.00    +0.005 A  
DOCKED: ATOM     50  C31 UNL     1      14.234  -6.710  -2.337 +0.00 +0.00    +0.000 A  
DOCKED: ATOM     51  C32 UNL     1      13.688  -5.446  -2.534 +0.00 +0.00    +0.000 A  
DOCKED: ATOM     52  C33 UNL     1      12.432  -5.137  -2.013 +0.00 +0.00    +0.000 A  
DOCKED: ATOM     53  C34 UNL     1      11.727  -6.089  -1.275 +0.00 +0.00    +0.005 A  
DOCKED: ENDBRANCH  47  48
DOCKED: ENDBRANCH  45  47
DOCKED: ENDBRANCH  42  43
DOCKED: BRANCH  42  54
DOCKED: ATOM     54  C35 UNL     1      11.509 -13.315  -0.665 +0.00 +0.00    +0.012 C  
DOCKED: ATOM     55  C36 UNL     1      10.065 -13.510  -0.184 +0.00 +0.00    +0.009 C  
DOCKED: ATOM     56  C37 UNL     1      11.911 -14.533  -1.504 +0.00 +0.00    +0.009 C  
DOCKED: ENDBRANCH  42  54
DOCKED: ENDBRANCH  40  42
DOCKED: ENDBRANCH  36  38
DOCKED: ENDBRANCH  35  36
DOCKED: ENDBRANCH  32  35
DOCKED: ENDBRANCH   1  32
DOCKED: TORSDOF 23
DOCKED: TER
DOCKED: ENDMDL
________________________________________________________________________________


    FINAL DOCKED STATE:
    ________________________


Run:   15 / 20
Time taken for this run:   2.054s

DOCKED: MODEL        15
DOCKED: USER    Run = 15
DOCKED: USER
DOCKED: USER    Estimated Free Energy of Binding    =  +6.86 kcal/mol  [=(1)+(2)+(3)-(4)]
DOCKED: USER
DOCKED: USER    (1) Final Intermolecular Energy     =  +0.00 kcal/mol
DOCKED: USER        vdW + Hbond + desolv Energy     =  +0.00 kcal/mol
DOCKED: USER        Electrostatic Energy            =  +0.00 kcal/mol
DOCKED: USER        Moving Ligand-Fixed Receptor    =  +0.00 kcal/mol
DOCKED: USER        Moving Ligand-Moving Receptor   =  +0.00 kcal/mol
DOCKED: USER    (2) Final Total Internal Energy     = -15.24 kcal/mol
DOCKED: USER    (3) Torsional Free Energy           =  +6.86 kcal/mol
DOCKED: USER    (4) Unbound System's Energy         = -15.24 kcal/mol
DOCKED: USER
DOCKED: USER
DOCKED: REMARK  Name = ligands/ligand_1.pdb
DOCKED: REMARK  34 active torsions:
DOCKED: REMARK  status: ('A' for Active; 'I' for Inactive)
DOCKED: REMARK    1  A    between atoms: C1_1  and  S1_2
DOCKED: REMARK    2  A    between atoms: S1_2  and  C2_3
DOCKED: REMARK    3  A    between atoms: C2_3  and  C3_4
DOCKED: REMARK    4  A    between atoms: C3_4  and  C4_5
DOCKED: REMARK    5  A    between atoms: C4_5  and  N1_6
DOCKED: REMARK    6  A    between atoms: C4_5  and  C15_21
DOCKED: REMARK    7  A    between atoms: C5_7  and  C6_9
DOCKED: REMARK    8  A    between atoms: C6_9  and  N2_10
DOCKED: REMARK    9  A    between atoms: C6_9  and  C12_18
DOCKED: REMARK   10  A    between atoms: C7_11  and  O3_13
DOCKED: REMARK   11  A    between atoms: O3_13  and  C8_14
DOCKED: REMARK   12  A    between atoms: C8_14  and  C9_15
DOCKED: REMARK   13  A    between atoms: C8_14  and  C10_16
DOCKED: REMARK   14  A    between atoms: C8_14  and  C11_17
DOCKED: REMARK   15  A    between atoms: C12_18  and  C13_19
DOCKED: REMARK   16  A    between atoms: C12_18  and  C14_20
DOCKED: REMARK   17  A    between atoms: N3_23  and  C16_24
DOCKED: REMARK   18  A    between atoms: C16_24  and  C17_25
DOCKED: REMARK   19  A    between atoms: C16_24  and  C21_29
DOCKED: REMARK   20  A    between atoms: C17_25  and  C18_26
DOCKED: REMARK   21  A    between atoms: C18_26  and  C19_27
DOCKED: REMARK   22  A    between atoms: C18_26  and  C20_28
DOCKED: REMARK   23  A    between atoms: C21_29  and  O5_30
DOCKED: REMARK   24  A    between atoms: C21_29  and  C22_31
DOCKED: REMARK   25  A    between atoms: C22_31  and  C23_32
DOCKED: REMARK   26  A    between atoms: C23_32  and  C24_33
DOCKED: REMARK   27  A    between atoms: C23_32  and  C25_34
DOCKED: REMARK   28  A    between atoms: N4_36  and  C26_37
DOCKED: REMARK   29  A    between atoms: C26_37  and  C27_38
DOCKED: REMARK   30  A    between atoms: C26_37  and  C35_48
DOCKED: REMARK   31  A    between atoms: N5_40  and  C28_41
DOCKED: REMARK   32  A    between atoms: C28_41  and  C29_42
DOCKED: REMARK   33  A    between atoms: C35_48  and  C36_49
DOCKED: REMARK   34  A    between atoms: C35_48  and  C37_50
DOCKED: REMARK                            x       y       z     vdW  Elec       q    Type
DOCKED: REMARK                         _______ _______ _______ _____ _____    ______ ____
DOCKED: USER                              x       y       z     vdW  Elec       q    Type
DOCKED: USER                           _______ _______ _______ _____ _____    ______ ____
DOCKED: ROOT
DOCKED: ATOM      1  C16 UNL     1      11.931   0.799  -3.274 +0.00 +0.00    +0.102 C  
DOCKED: ENDROOT
DOCKED: BRANCH   1   4
DOCKED: ATOM      2  C15 UNL     1      10.711   0.996  -5.404 +0.00 +0.00    +0.234 C  
DOCKED: ATOM      3  O4  UNL     1      11.659   1.607  -5.903 +0.00 -0.00    -0.274 OA 
DOCKED: ATOM      4  N3  UNL     1      10.720   0.598  -4.079 +0.00 -0.00    -0.308 N  
DOCKED: ATOM      5  H28 UNL     1      10.215  -0.253  -3.887 +0.00 +0.00    +0.149 HD 
DOCKED: BRANCH   2   6
DOCKED: ATOM      6  C4  UNL     1       9.493   0.578  -6.267 +0.00 +0.00    +0.160 C  
DOCKED: BRANCH   6   7
DOCKED: ATOM      7  N1  UNL     1       8.476   0.077  -5.339 +0.00 -0.00    -0.302 N  
DOCKED: ATOM      8  C5  UNL     1       7.496  -0.790  -5.770 +0.00 +0.00    +0.234 C  
DOCKED: ATOM      9  O1  UNL     1       7.356  -1.101  -6.958 +0.00 -0.00    -0.274 OA 
DOCKED: ATOM     10  H9  UNL     1       8.665   0.189  -4.347 +0.00 +0.00    +0.150 HD 
DOCKED: BRANCH   8  11
DOCKED: ATOM     11  C6  UNL     1       6.564  -1.349  -4.677 +0.00 +0.00    +0.165 C  
DOCKED: BRANCH  11  12
DOCKED: ATOM     12  N2  UNL     1       7.411  -2.158  -3.811 +0.00 -0.00    -0.270 N  
DOCKED: ATOM     13  C7  UNL     1       8.299  -1.658  -2.921 +0.00 +0.00    +0.401 C  
DOCKED: ATOM     14  O2  UNL     1       8.458  -0.471  -2.685 +0.00 -0.00    -0.226 OA 
DOCKED: ATOM     15  H11 UNL     1       7.373  -3.171  -3.919 +0.00 +0.00    +0.153 HD 
DOCKED: BRANCH  13  16
DOCKED: ATOM     16  O3  UNL     1       8.970  -2.685  -2.355 +0.00 -0.00    -0.445 OA 
DOCKED: BRANCH  16  17
DOCKED: ATOM     17  C8  UNL     1       8.720  -3.080  -0.983 +0.00 +0.00    +0.107 C  
DOCKED: ATOM     18  C9  UNL     1       7.227  -3.453  -0.945 +0.00 +0.00    +0.055 C  
DOCKED: ATOM     19  C10 UNL     1       8.960  -1.916  -0.017 +0.00 +0.00    +0.055 C  
DOCKED: ATOM     20  C11 UNL     1       9.540  -4.314  -0.598 +0.00 +0.00    +0.055 C  
DOCKED: ENDBRANCH  16  17
DOCKED: ENDBRANCH  13  16
DOCKED: ENDBRANCH  11  12
DOCKED: BRANCH  11  21
DOCKED: ATOM     21  C12 UNL     1       5.821  -0.264  -3.864 +0.00 +0.00    +0.012 C  
DOCKED: ATOM     22  C13 UNL     1       4.937   0.647  -4.727 +0.00 +0.00    +0.009 C  
DOCKED: ATOM     23  C14 UNL     1       5.002  -0.850  -2.713 +0.00 +0.00    +0.009 C  
DOCKED: ENDBRANCH  11  21
DOCKED: ENDBRANCH   8  11
DOCKED: ENDBRANCH   6   7
DOCKED: BRANCH   6  24
DOCKED: ATOM     24  C3  UNL     1       8.866   1.610  -7.211 +0.00 +0.00    +0.042 C  
DOCKED: BRANCH  24  25
DOCKED: ATOM     25  C2  UNL     1       7.774   2.414  -6.505 +0.00 +0.00    +0.071 C  
DOCKED: BRANCH  25  27
DOCKED: ATOM     26  C1  UNL     1       7.418   2.892  -3.796 +0.00 +0.00    +0.084 C  
DOCKED: ATOM     27  S1  UNL     1       8.459   3.442  -5.166 +0.00 -0.00    -0.164 S  
DOCKED: ENDBRANCH  25  27
DOCKED: ENDBRANCH  24  25
DOCKED: ENDBRANCH   6  24
DOCKED: ENDBRANCH   2   6
DOCKED: ENDBRANCH   1   4
DOCKED: BRANCH   1  28
DOCKED: ATOM     28  C17 UNL     1      11.907   2.140  -2.511 +0.00 +0.00    +0.028 C  
DOCKED: BRANCH  28  29
DOCKED: ATOM     29  C18 UNL     1      10.513   2.760  -2.252 +0.00 -0.00    -0.015 C  
DOCKED: ATOM     30  C19 UNL     1       9.707   1.981  -1.213 +0.00 +0.00    +0.007 C  
DOCKED: ATOM     31  C20 UNL     1      10.564   4.237  -1.880 +0.00 +0.00    +0.007 C  
DOCKED: ENDBRANCH  28  29
DOCKED: ENDBRANCH   1  28
DOCKED: BRANCH   1  32
DOCKED: ATOM     32  C21 UNL     1      12.238  -0.437  -2.374 +0.00 +0.00    +0.135 C  
DOCKED: BRANCH  32  33
DOCKED: ATOM     33  O5  UNL     1      10.963  -1.002  -2.002 +0.00 -0.00    -0.390 OA 
DOCKED: ATOM     34  H40 UNL     1      10.502  -1.223  -2.832 +0.00 +0.00    +0.210 HD 
DOCKED: ENDBRANCH  32  33
DOCKED: BRANCH  32  35
DOCKED: ATOM     35  C22 UNL     1      13.045  -1.623  -2.934 +0.00 +0.00    +0.045 C  
DOCKED: BRANCH  35  36
DOCKED: ATOM     36  C23 UNL     1      12.447  -2.696  -3.857 +0.00 +0.00    +0.074 C  
DOCKED: ATOM     37  C24 UNL     1      11.774  -3.852  -3.124 +0.00 +0.00    +0.017 C  
DOCKED: BRANCH  36  38
DOCKED: ATOM     38  C25 UNL     1      11.518  -2.194  -4.955 +0.00 +0.00    +0.217 C  
DOCKED: ATOM     39  O6  UNL     1      10.307  -2.051  -4.821 +0.00 -0.00    -0.276 OA 
DOCKED: ATOM     40  N4  UNL     1      12.154  -2.006  -6.156 +0.00 -0.00    -0.304 N  
DOCKED: ATOM     41  H47 UNL     1      13.146  -2.216  -6.253 +0.00 +0.00    +0.149 HD 
DOCKED: BRANCH  40  42
DOCKED: ATOM     42  C26 UNL     1      11.445  -1.729  -7.405 +0.00 +0.00    +0.161 C  
DOCKED: BRANCH  42  43
DOCKED: ATOM     43  C27 UNL     1      10.649  -3.019  -7.686 +0.00 +0.00    +0.234 C  
DOCKED: ATOM     44  O7  UNL     1      11.145  -3.965  -8.302 +0.00 -0.00    -0.274 OA 
DOCKED: ATOM     45  N5  UNL     1       9.357  -3.013  -7.216 +0.00 -0.00    -0.310 N  
DOCKED: ATOM     46  H49 UNL     1       9.065  -2.296  -6.567 +0.00 +0.00    +0.149 HD 
DOCKED: BRANCH  45  47
DOCKED: ATOM     47  C28 UNL     1       8.509  -4.178  -7.330 +0.00 +0.00    +0.139 C  
DOCKED: BRANCH  47  48
DOCKED: ATOM     48  C29 UNL     1       8.087  -4.696  -5.978 +0.00 -0.00    -0.030 A  
DOCKED: ATOM     49  C30 UNL     1       9.046  -5.015  -5.009 +0.00 +0.00    +0.005 A  
DOCKED: ATOM     50  C31 UNL     1       8.662  -5.517  -3.762 +0.00 +0.00    +0.000 A  
DOCKED: ATOM     51  C32 UNL     1       7.313  -5.691  -3.474 +0.00 +0.00    +0.000 A  
DOCKED: ATOM     52  C33 UNL     1       6.345  -5.352  -4.420 +0.00 +0.00    +0.000 A  
DOCKED: ATOM     53  C34 UNL     1       6.730  -4.854  -5.666 +0.00 +0.00    +0.005 A  
DOCKED: ENDBRANCH  47  48
DOCKED: ENDBRANCH  45  47
DOCKED: ENDBRANCH  42  43
DOCKED: BRANCH  42  54
DOCKED: ATOM     54  C35 UNL     1      12.417  -1.405  -8.561 +0.00 +0.00    +0.012 C  
DOCKED: ATOM     55  C36 UNL     1      11.706  -0.747  -9.750 +0.00 +0.00    +0.009 C  
DOCKED: ATOM     56  C37 UNL     1      13.546  -0.479  -8.096 +0.00 +0.00    +0.009 C  
DOCKED: ENDBRANCH  42  54
DOCKED: ENDBRANCH  40  42
DOCKED: ENDBRANCH  36  38
DOCKED: ENDBRANCH  35  36
DOCKED: ENDBRANCH  32  35
DOCKED: ENDBRANCH   1  32
DOCKED: TORSDOF 23
DOCKED: TER
DOCKED: ENDMDL
________________________________________________________________________________


    FINAL DOCKED STATE:
    ________________________


Run:   16 / 20
Time taken for this run:   2.054s

DOCKED: MODEL        16
DOCKED: USER    Run = 16
DOCKED: USER
DOCKED: USER    Estimated Free Energy of Binding    =  +6.86 kcal/mol  [=(1)+(2)+(3)-(4)]
DOCKED: USER
DOCKED: USER    (1) Final Intermolecular Energy     =  +0.00 kcal/mol
DOCKED: USER        vdW + Hbond + desolv Energy     =  +0.00 kcal/mol
DOCKED: USER        Electrostatic Energy            =  +0.00 kcal/mol
DOCKED: USER        Moving Ligand-Fixed Receptor    =  +0.00 kcal/mol
DOCKED: USER        Moving Ligand-Moving Receptor   =  +0.00 kcal/mol
DOCKED: USER    (2) Final Total Internal Energy     = -15.38 kcal/mol
DOCKED: USER    (3) Torsional Free Energy           =  +6.86 kcal/mol
DOCKED: USER    (4) Unbound System's Energy         = -15.38 kcal/mol
DOCKED: USER
DOCKED: USER
DOCKED: REMARK  Name = ligands/ligand_1.pdb
DOCKED: REMARK  34 active torsions:
DOCKED: REMARK  status: ('A' for Active; 'I' for Inactive)
DOCKED: REMARK    1  A    between atoms: C1_1  and  S1_2
DOCKED: REMARK    2  A    between atoms: S1_2  and  C2_3
DOCKED: REMARK    3  A    between atoms: C2_3  and  C3_4
DOCKED: REMARK    4  A    between atoms: C3_4  and  C4_5
DOCKED: REMARK    5  A    between atoms: C4_5  and  N1_6
DOCKED: REMARK    6  A    between atoms: C4_5  and  C15_21
DOCKED: REMARK    7  A    between atoms: C5_7  and  C6_9
DOCKED: REMARK    8  A    between atoms: C6_9  and  N2_10
DOCKED: REMARK    9  A    between atoms: C6_9  and  C12_18
DOCKED: REMARK   10  A    between atoms: C7_11  and  O3_13
DOCKED: REMARK   11  A    between atoms: O3_13  and  C8_14
DOCKED: REMARK   12  A    between atoms: C8_14  and  C9_15
DOCKED: REMARK   13  A    between atoms: C8_14  and  C10_16
DOCKED: REMARK   14  A    between atoms: C8_14  and  C11_17
DOCKED: REMARK   15  A    between atoms: C12_18  and  C13_19
DOCKED: REMARK   16  A    between atoms: C12_18  and  C14_20
DOCKED: REMARK   17  A    between atoms: N3_23  and  C16_24
DOCKED: REMARK   18  A    between atoms: C16_24  and  C17_25
DOCKED: REMARK   19  A    between atoms: C16_24  and  C21_29
DOCKED: REMARK   20  A    between atoms: C17_25  and  C18_26
DOCKED: REMARK   21  A    between atoms: C18_26  and  C19_27
DOCKED: REMARK   22  A    between atoms: C18_26  and  C20_28
DOCKED: REMARK   23  A    between atoms: C21_29  and  O5_30
DOCKED: REMARK   24  A    between atoms: C21_29  and  C22_31
DOCKED: REMARK   25  A    between atoms: C22_31  and  C23_32
DOCKED: REMARK   26  A    between atoms: C23_32  and  C24_33
DOCKED: REMARK   27  A    between atoms: C23_32  and  C25_34
DOCKED: REMARK   28  A    between atoms: N4_36  and  C26_37
DOCKED: REMARK   29  A    between atoms: C26_37  and  C27_38
DOCKED: REMARK   30  A    between atoms: C26_37  and  C35_48
DOCKED: REMARK   31  A    between atoms: N5_40  and  C28_41
DOCKED: REMARK   32  A    between atoms: C28_41  and  C29_42
DOCKED: REMARK   33  A    between atoms: C35_48  and  C36_49
DOCKED: REMARK   34  A    between atoms: C35_48  and  C37_50
DOCKED: REMARK                            x       y       z     vdW  Elec       q    Type
DOCKED: REMARK                         _______ _______ _______ _____ _____    ______ ____
DOCKED: USER                              x       y       z     vdW  Elec       q    Type
DOCKED: USER                           _______ _______ _______ _____ _____    ______ ____
DOCKED: ROOT
DOCKED: ATOM      1  C16 UNL     1       4.235  -5.440  -0.707 +0.00 +0.00    +0.102 C  
DOCKED: ENDROOT
DOCKED: BRANCH   1   4
DOCKED: ATOM      2  C15 UNL     1       3.231  -3.690   0.705 +0.00 +0.00    +0.234 C  
DOCKED: ATOM      3  O4  UNL     1       2.154  -4.291   0.702 +0.00 -0.00    -0.274 OA 
DOCKED: ATOM      4  N3  UNL     1       4.320  -4.148  -0.016 +0.00 -0.00    -0.308 N  
DOCKED: ATOM      5  H28 UNL     1       5.218  -3.937   0.390 +0.00 +0.00    +0.149 HD 
DOCKED: BRANCH   2   6
DOCKED: ATOM      6  C4  UNL     1       3.435  -2.429   1.583 +0.00 +0.00    +0.160 C  
DOCKED: BRANCH   6   7
DOCKED: ATOM      7  N1  UNL     1       4.875  -2.321   1.831 +0.00 -0.00    -0.302 N  
DOCKED: ATOM      8  C5  UNL     1       5.364  -1.439   2.769 +0.00 +0.00    +0.234 C  
DOCKED: ATOM      9  O1  UNL     1       4.642  -0.629   3.362 +0.00 -0.00    -0.274 OA 
DOCKED: ATOM     10  H9  UNL     1       5.459  -3.075   1.480 +0.00 +0.00    +0.150 HD 
DOCKED: BRANCH   8  11
DOCKED: ATOM     11  C6  UNL     1       6.881  -1.509   3.033 +0.00 +0.00    +0.165 C  
DOCKED: BRANCH  11  12
DOCKED: ATOM     12  N2  UNL     1       7.233  -2.920   2.940 +0.00 -0.00    -0.270 N  
DOCKED: ATOM     13  C7  UNL     1       7.346  -3.608   1.779 +0.00 +0.00    +0.401 C  
DOCKED: ATOM     14  O2  UNL     1       7.230  -3.121   0.665 +0.00 -0.00    -0.226 OA 
DOCKED: ATOM     15  H11 UNL     1       7.351  -3.440   3.808 +0.00 +0.00    +0.153 HD 
DOCKED: BRANCH  13  16
DOCKED: ATOM     16  O3  UNL     1       7.599  -4.903   2.067 +0.00 -0.00    -0.445 OA 
DOCKED: BRANCH  16  17
DOCKED: ATOM     17  C8  UNL     1       8.950  -5.368   2.308 +0.00 +0.00    +0.107 C  
DOCKED: ATOM     18  C9  UNL     1       9.713  -5.055   1.008 +0.00 +0.00    +0.055 C  
DOCKED: ATOM     19  C10 UNL     1       8.984  -6.881   2.546 +0.00 +0.00    +0.055 C  
DOCKED: ATOM     20  C11 UNL     1       9.610  -4.600   3.456 +0.00 +0.00    +0.055 C  
DOCKED: ENDBRANCH  16  17
DOCKED: ENDBRANCH  13  16
DOCKED: ENDBRANCH  11  12
DOCKED: BRANCH  11  21
DOCKED: ATOM     21  C12 UNL     1       7.731  -0.662   2.059 +0.00 +0.00    +0.012 C  
DOCKED: ATOM     22  C13 UNL     1       7.278   0.801   1.966 +0.00 +0.00    +0.009 C  
DOCKED: ATOM     23  C14 UNL     1       9.227  -0.727   2.377 +0.00 +0.00    +0.009 C  
DOCKED: ENDBRANCH  11  21
DOCKED: ENDBRANCH   8  11
DOCKED: ENDBRANCH   6   7
DOCKED: BRANCH   6  24
DOCKED: ATOM     24  C3  UNL     1       2.897  -1.084   1.083 +0.00 +0.00    +0.042 C  
DOCKED: BRANCH  24  25
DOCKED: ATOM     25  C2  UNL     1       3.236  -0.865  -0.391 +0.00 +0.00    +0.071 C  
DOCKED: BRANCH  25  27
DOCKED: ATOM     26  C1  UNL     1       5.641  -1.626  -1.545 +0.00 +0.00    +0.084 C  
DOCKED: ATOM     27  S1  UNL     1       4.939  -0.253  -0.604 +0.00 -0.00    -0.164 S  
DOCKED: ENDBRANCH  25  27
DOCKED: ENDBRANCH  24  25
DOCKED: ENDBRANCH   6  24
DOCKED: ENDBRANCH   2   6
DOCKED: ENDBRANCH   1   4
DOCKED: BRANCH   1  28
DOCKED: ATOM     28  C17 UNL     1       3.057  -5.492  -1.703 +0.00 +0.00    +0.028 C  
DOCKED: BRANCH  28  29
DOCKED: ATOM     29  C18 UNL     1       2.013  -6.611  -1.476 +0.00 -0.00    -0.015 C  
DOCKED: ATOM     30  C19 UNL     1       2.324  -7.464  -0.245 +0.00 +0.00    +0.007 C  
DOCKED: ATOM     31  C20 UNL     1       0.578  -6.100  -1.414 +0.00 +0.00    +0.007 C  
DOCKED: ENDBRANCH  28  29
DOCKED: ENDBRANCH   1  28
DOCKED: BRANCH   1  32
DOCKED: ATOM     32  C21 UNL     1       5.605  -5.856  -1.324 +0.00 +0.00    +0.135 C  
DOCKED: BRANCH  32  33
DOCKED: ATOM     33  O5  UNL     1       6.623  -5.411  -0.402 +0.00 -0.00    -0.390 OA 
DOCKED: ATOM     34  H40 UNL     1       6.158  -5.026   0.364 +0.00 +0.00    +0.210 HD 
DOCKED: ENDBRANCH  32  33
DOCKED: BRANCH  32  35
DOCKED: ATOM     35  C22 UNL     1       5.924  -7.340  -1.576 +0.00 +0.00    +0.045 C  
DOCKED: BRANCH  35  36
DOCKED: ATOM     36  C23 UNL     1       6.721  -8.215  -0.596 +0.00 +0.00    +0.074 C  
DOCKED: ATOM     37  C24 UNL     1       8.139  -7.725  -0.323 +0.00 +0.00    +0.017 C  
DOCKED: BRANCH  36  38
DOCKED: ATOM     38  C25 UNL     1       6.039  -8.530   0.730 +0.00 +0.00    +0.217 C  
DOCKED: ATOM     39  O6  UNL     1       5.478  -9.592   0.981 +0.00 -0.00    -0.276 OA 
DOCKED: ATOM     40  N4  UNL     1       6.023  -7.465   1.595 +0.00 -0.00    -0.304 N  
DOCKED: ATOM     41  H47 UNL     1       6.424  -6.571   1.320 +0.00 +0.00    +0.149 HD 
DOCKED: BRANCH  40  42
DOCKED: ATOM     42  C26 UNL     1       5.252  -7.453   2.839 +0.00 +0.00    +0.161 C  
DOCKED: BRANCH  42  43
DOCKED: ATOM     43  C27 UNL     1       4.651  -6.035   2.901 +0.00 +0.00    +0.234 C  
DOCKED: ATOM     44  O7  UNL     1       5.096  -5.113   2.215 +0.00 -0.00    -0.274 OA 
DOCKED: ATOM     45  N5  UNL     1       3.610  -5.890   3.787 +0.00 -0.00    -0.310 N  
DOCKED: ATOM     46  H49 UNL     1       3.172  -6.710   4.182 +0.00 +0.00    +0.149 HD 
DOCKED: BRANCH  45  47
DOCKED: ATOM     47  C28 UNL     1       2.889  -4.642   3.903 +0.00 +0.00    +0.139 C  
DOCKED: BRANCH  47  48
DOCKED: ATOM     48  C29 UNL     1       3.607  -3.664   4.799 +0.00 -0.00    -0.030 A  
DOCKED: ATOM     49  C30 UNL     1       2.953  -2.516   5.266 +0.00 +0.00    +0.005 A  
DOCKED: ATOM     50  C31 UNL     1       3.620  -1.595   6.078 +0.00 +0.00    +0.000 A  
DOCKED: ATOM     51  C32 UNL     1       4.944  -1.823   6.437 +0.00 +0.00    +0.000 A  
DOCKED: ATOM     52  C33 UNL     1       5.599  -2.974   6.001 +0.00 +0.00    +0.000 A  
DOCKED: ATOM     53  C34 UNL     1       4.934  -3.893   5.188 +0.00 +0.00    +0.005 A  
DOCKED: ENDBRANCH  47  48
DOCKED: ENDBRANCH  45  47
DOCKED: ENDBRANCH  42  43
DOCKED: BRANCH  42  54
DOCKED: ATOM     54  C35 UNL     1       6.140  -7.742   4.070 +0.00 +0.00    +0.012 C  
DOCKED: ATOM     55  C36 UNL     1       6.667  -6.456   4.719 +0.00 +0.00    +0.009 C  
DOCKED: ATOM     56  C37 UNL     1       5.377  -8.545   5.130 +0.00 +0.00    +0.009 C  
DOCKED: ENDBRANCH  42  54
DOCKED: ENDBRANCH  40  42
DOCKED: ENDBRANCH  36  38
DOCKED: ENDBRANCH  35  36
DOCKED: ENDBRANCH  32  35
DOCKED: ENDBRANCH   1  32
DOCKED: TORSDOF 23
DOCKED: TER
DOCKED: ENDMDL
________________________________________________________________________________


    FINAL DOCKED STATE:
    ________________________


Run:   17 / 20
Time taken for this run:   2.054s

DOCKED: MODEL        17
DOCKED: USER    Run = 17
DOCKED: USER
DOCKED: USER    Estimated Free Energy of Binding    =  +6.86 kcal/mol  [=(1)+(2)+(3)-(4)]
DOCKED: USER
DOCKED: USER    (1) Final Intermolecular Energy     =  +0.00 kcal/mol
DOCKED: USER        vdW + Hbond + desolv Energy     =  +0.00 kcal/mol
DOCKED: USER        Electrostatic Energy            =  +0.00 kcal/mol
DOCKED: USER        Moving Ligand-Fixed Receptor    =  +0.00 kcal/mol
DOCKED: USER        Moving Ligand-Moving Receptor   =  +0.00 kcal/mol
DOCKED: USER    (2) Final Total Internal Energy     = -15.24 kcal/mol
DOCKED: USER    (3) Torsional Free Energy           =  +6.86 kcal/mol
DOCKED: USER    (4) Unbound System's Energy         = -15.24 kcal/mol
DOCKED: USER
DOCKED: USER
DOCKED: REMARK  Name = ligands/ligand_1.pdb
DOCKED: REMARK  34 active torsions:
DOCKED: REMARK  status: ('A' for Active; 'I' for Inactive)
DOCKED: REMARK    1  A    between atoms: C1_1  and  S1_2
DOCKED: REMARK    2  A    between atoms: S1_2  and  C2_3
DOCKED: REMARK    3  A    between atoms: C2_3  and  C3_4
DOCKED: REMARK    4  A    between atoms: C3_4  and  C4_5
DOCKED: REMARK    5  A    between atoms: C4_5  and  N1_6
DOCKED: REMARK    6  A    between atoms: C4_5  and  C15_21
DOCKED: REMARK    7  A    between atoms: C5_7  and  C6_9
DOCKED: REMARK    8  A    between atoms: C6_9  and  N2_10
DOCKED: REMARK    9  A    between atoms: C6_9  and  C12_18
DOCKED: REMARK   10  A    between atoms: C7_11  and  O3_13
DOCKED: REMARK   11  A    between atoms: O3_13  and  C8_14
DOCKED: REMARK   12  A    between atoms: C8_14  and  C9_15
DOCKED: REMARK   13  A    between atoms: C8_14  and  C10_16
DOCKED: REMARK   14  A    between atoms: C8_14  and  C11_17
DOCKED: REMARK   15  A    between atoms: C12_18  and  C13_19
DOCKED: REMARK   16  A    between atoms: C12_18  and  C14_20
DOCKED: REMARK   17  A    between atoms: N3_23  and  C16_24
DOCKED: REMARK   18  A    between atoms: C16_24  and  C17_25
DOCKED: REMARK   19  A    between atoms: C16_24  and  C21_29
DOCKED: REMARK   20  A    between atoms: C17_25  and  C18_26
DOCKED: REMARK   21  A    between atoms: C18_26  and  C19_27
DOCKED: REMARK   22  A    between atoms: C18_26  and  C20_28
DOCKED: REMARK   23  A    between atoms: C21_29  and  O5_30
DOCKED: REMARK   24  A    between atoms: C21_29  and  C22_31
DOCKED: REMARK   25  A    between atoms: C22_31  and  C23_32
DOCKED: REMARK   26  A    between atoms: C23_32  and  C24_33
DOCKED: REMARK   27  A    between atoms: C23_32  and  C25_34
DOCKED: REMARK   28  A    between atoms: N4_36  and  C26_37
DOCKED: REMARK   29  A    between atoms: C26_37  and  C27_38
DOCKED: REMARK   30  A    between atoms: C26_37  and  C35_48
DOCKED: REMARK   31  A    between atoms: N5_40  and  C28_41
DOCKED: REMARK   32  A    between atoms: C28_41  and  C29_42
DOCKED: REMARK   33  A    between atoms: C35_48  and  C36_49
DOCKED: REMARK   34  A    between atoms: C35_48  and  C37_50
DOCKED: REMARK                            x       y       z     vdW  Elec       q    Type
DOCKED: REMARK                         _______ _______ _______ _____ _____    ______ ____
DOCKED: USER                              x       y       z     vdW  Elec       q    Type
DOCKED: USER                           _______ _______ _______ _____ _____    ______ ____
DOCKED: ROOT
DOCKED: ATOM      1  C16 UNL     1      10.199  -7.482   0.770 +0.00 +0.00    +0.102 C  
DOCKED: ENDROOT
DOCKED: BRANCH   1   4
DOCKED: ATOM      2  C15 UNL     1      12.149  -6.382  -0.256 +0.00 +0.00    +0.234 C  
DOCKED: ATOM      3  O4  UNL     1      12.891  -7.261   0.187 +0.00 -0.00    -0.274 OA 
DOCKED: ATOM      4  N3  UNL     1      10.794  -6.366   0.026 +0.00 -0.00    -0.308 N  
DOCKED: ATOM      5  H28 UNL     1      10.213  -5.977  -0.701 +0.00 +0.00    +0.149 HD 
DOCKED: BRANCH   2   6
DOCKED: ATOM      6  C4  UNL     1      12.691  -5.293  -1.217 +0.00 +0.00    +0.160 C  
DOCKED: BRANCH   6   7
DOCKED: ATOM      7  N1  UNL     1      11.558  -4.424  -1.547 +0.00 -0.00    -0.302 N  
DOCKED: ATOM      8  C5  UNL     1      10.771  -4.681  -2.647 +0.00 +0.00    +0.234 C  
DOCKED: ATOM      9  O1  UNL     1      11.035  -5.573  -3.462 +0.00 -0.00    -0.274 OA 
DOCKED: ATOM     10  H9  UNL     1      11.234  -3.796  -0.817 +0.00 +0.00    +0.150 HD 
DOCKED: BRANCH   8  11
DOCKED: ATOM     11  C6  UNL     1       9.535  -3.776  -2.816 +0.00 +0.00    +0.165 C  
DOCKED: BRANCH  11  12
DOCKED: ATOM     12  N2  UNL     1       8.460  -4.435  -2.086 +0.00 -0.00    -0.270 N  
DOCKED: ATOM     13  C7  UNL     1       8.434  -4.602  -0.743 +0.00 +0.00    +0.401 C  
DOCKED: ATOM     14  O2  UNL     1       9.273  -4.167   0.030 +0.00 -0.00    -0.226 OA 
DOCKED: ATOM     15  H11 UNL     1       7.700  -4.847  -2.626 +0.00 +0.00    +0.153 HD 
DOCKED: BRANCH  13  16
DOCKED: ATOM     16  O3  UNL     1       7.341  -5.325  -0.418 +0.00 -0.00    -0.445 OA 
DOCKED: BRANCH  16  17
DOCKED: ATOM     17  C8  UNL     1       6.546  -5.000   0.749 +0.00 +0.00    +0.107 C  
DOCKED: ATOM     18  C9  UNL     1       6.307  -3.482   0.654 +0.00 +0.00    +0.055 C  
DOCKED: ATOM     19  C10 UNL     1       7.309  -5.297   2.043 +0.00 +0.00    +0.055 C  
DOCKED: ATOM     20  C11 UNL     1       5.189  -5.709   0.717 +0.00 +0.00    +0.055 C  
DOCKED: ENDBRANCH  16  17
DOCKED: ENDBRANCH  13  16
DOCKED: ENDBRANCH  11  12
DOCKED: BRANCH  11  21
DOCKED: ATOM     21  C12 UNL     1       9.737  -2.329  -2.313 +0.00 +0.00    +0.012 C  
DOCKED: ATOM     22  C13 UNL     1      10.898  -1.599  -3.003 +0.00 +0.00    +0.009 C  
DOCKED: ATOM     23  C14 UNL     1       8.462  -1.490  -2.409 +0.00 +0.00    +0.009 C  
DOCKED: ENDBRANCH  11  21
DOCKED: ENDBRANCH   8  11
DOCKED: ENDBRANCH   6   7
DOCKED: BRANCH   6  24
DOCKED: ATOM     24  C3  UNL     1      13.883  -4.438  -0.770 +0.00 +0.00    +0.042 C  
DOCKED: BRANCH  24  25
DOCKED: ATOM     25  C2  UNL     1      13.641  -3.832   0.613 +0.00 +0.00    +0.071 C  
DOCKED: BRANCH  25  27
DOCKED: ATOM     26  C1  UNL     1      11.350  -2.621   1.601 +0.00 +0.00    +0.084 C  
DOCKED: ATOM     27  S1  UNL     1      12.738  -2.253   0.505 +0.00 -0.00    -0.164 S  
DOCKED: ENDBRANCH  25  27
DOCKED: ENDBRANCH  24  25
DOCKED: ENDBRANCH   6  24
DOCKED: ENDBRANCH   2   6
DOCKED: ENDBRANCH   1   4
DOCKED: BRANCH   1  28
DOCKED: ATOM     28  C17 UNL     1      10.259  -7.262   2.296 +0.00 +0.00    +0.028 C  
DOCKED: BRANCH  28  29
DOCKED: ATOM     29  C18 UNL     1      10.832  -5.907   2.774 +0.00 -0.00    -0.015 C  
DOCKED: ATOM     30  C19 UNL     1      10.031  -5.306   3.930 +0.00 +0.00    +0.007 C  
DOCKED: ATOM     31  C20 UNL     1      12.313  -5.965   3.134 +0.00 +0.00    +0.007 C  
DOCKED: ENDBRANCH  28  29
DOCKED: ENDBRANCH   1  28
DOCKED: BRANCH   1  32
DOCKED: ATOM     32  C21 UNL     1       8.778  -7.839   0.236 +0.00 +0.00    +0.135 C  
DOCKED: BRANCH  32  33
DOCKED: ATOM     33  O5  UNL     1       8.815  -7.644  -1.194 +0.00 -0.00    -0.390 OA 
DOCKED: ATOM     34  H40 UNL     1       8.322  -6.823  -1.376 +0.00 +0.00    +0.210 HD 
DOCKED: ENDBRANCH  32  33
DOCKED: BRANCH  32  35
DOCKED: ATOM     35  C22 UNL     1       8.213  -9.259   0.425 +0.00 +0.00    +0.045 C  
DOCKED: BRANCH  35  36
DOCKED: ATOM     36  C23 UNL     1       6.773  -9.654   0.063 +0.00 +0.00    +0.074 C  
DOCKED: ATOM     37  C24 UNL     1       5.719  -9.176   1.056 +0.00 +0.00    +0.017 C  
DOCKED: BRANCH  36  38
DOCKED: ATOM     38  C25 UNL     1       6.319  -9.310  -1.350 +0.00 +0.00    +0.217 C  
DOCKED: ATOM     39  O6  UNL     1       6.064 -10.144  -2.214 +0.00 -0.00    -0.276 OA 
DOCKED: ATOM     40  N4  UNL     1       6.313  -7.962  -1.603 +0.00 -0.00    -0.304 N  
DOCKED: ATOM     41  H47 UNL     1       6.611  -7.302  -0.887 +0.00 +0.00    +0.149 HD 
DOCKED: BRANCH  40  42
DOCKED: ATOM     42  C26 UNL     1       6.115  -7.396  -2.937 +0.00 +0.00    +0.161 C  
DOCKED: BRANCH  42  43
DOCKED: ATOM     43  C27 UNL     1       7.494  -7.525  -3.614 +0.00 +0.00    +0.234 C  
DOCKED: ATOM     44  O7  UNL     1       8.301  -6.594  -3.620 +0.00 -0.00    -0.274 OA 
DOCKED: ATOM     45  N5  UNL     1       7.728  -8.738  -4.217 +0.00 -0.00    -0.310 N  
DOCKED: ATOM     46  H49 UNL     1       7.115  -9.518  -4.025 +0.00 +0.00    +0.149 HD 
DOCKED: BRANCH  45  47
DOCKED: ATOM     47  C28 UNL     1       9.004  -9.042  -4.825 +0.00 +0.00    +0.139 C  
DOCKED: BRANCH  47  48
DOCKED: ATOM     48  C29 UNL     1      10.096  -9.179  -3.793 +0.00 -0.00    -0.030 A  
DOCKED: ATOM     49  C30 UNL     1       9.924 -10.019  -2.684 +0.00 +0.00    +0.005 A  
DOCKED: ATOM     50  C31 UNL     1      10.923 -10.133  -1.713 +0.00 +0.00    +0.000 A  
DOCKED: ATOM     51  C32 UNL     1      12.105  -9.415  -1.851 +0.00 +0.00    +0.000 A  
DOCKED: ATOM     52  C33 UNL     1      12.300  -8.595  -2.963 +0.00 +0.00    +0.000 A  
DOCKED: ATOM     53  C34 UNL     1      11.302  -8.479  -3.932 +0.00 +0.00    +0.005 A  
DOCKED: ENDBRANCH  47  48
DOCKED: ENDBRANCH  45  47
DOCKED: ENDBRANCH  42  43
DOCKED: BRANCH  42  54
DOCKED: ATOM     54  C35 UNL     1       5.653  -5.923  -2.876 +0.00 +0.00    +0.012 C  
DOCKED: ATOM     55  C36 UNL     1       5.798  -5.214  -4.229 +0.00 +0.00    +0.009 C  
DOCKED: ATOM     56  C37 UNL     1       4.193  -5.816  -2.424 +0.00 +0.00    +0.009 C  
DOCKED: ENDBRANCH  42  54
DOCKED: ENDBRANCH  40  42
DOCKED: ENDBRANCH  36  38
DOCKED: ENDBRANCH  35  36
DOCKED: ENDBRANCH  32  35
DOCKED: ENDBRANCH   1  32
DOCKED: TORSDOF 23
DOCKED: TER
DOCKED: ENDMDL
________________________________________________________________________________


    FINAL DOCKED STATE:
    ________________________


Run:   18 / 20
Time taken for this run:   2.054s

DOCKED: MODEL        18
DOCKED: USER    Run = 18
DOCKED: USER
DOCKED: USER    Estimated Free Energy of Binding    =  +6.86 kcal/mol  [=(1)+(2)+(3)-(4)]
DOCKED: USER
DOCKED: USER    (1) Final Intermolecular Energy     =  +0.00 kcal/mol
DOCKED: USER        vdW + Hbond + desolv Energy     =  +0.00 kcal/mol
DOCKED: USER        Electrostatic Energy            =  +0.00 kcal/mol
DOCKED: USER        Moving Ligand-Fixed Receptor    =  +0.00 kcal/mol
DOCKED: USER        Moving Ligand-Moving Receptor   =  +0.00 kcal/mol
DOCKED: USER    (2) Final Total Internal Energy     = -15.03 kcal/mol
DOCKED: USER    (3) Torsional Free Energy           =  +6.86 kcal/mol
DOCKED: USER    (4) Unbound System's Energy         = -15.03 kcal/mol
DOCKED: USER
DOCKED: USER
DOCKED: REMARK  Name = ligands/ligand_1.pdb
DOCKED: REMARK  34 active torsions:
DOCKED: REMARK  status: ('A' for Active; 'I' for Inactive)
DOCKED: REMARK    1  A    between atoms: C1_1  and  S1_2
DOCKED: REMARK    2  A    between atoms: S1_2  and  C2_3
DOCKED: REMARK    3  A    between atoms: C2_3  and  C3_4
DOCKED: REMARK    4  A    between atoms: C3_4  and  C4_5
DOCKED: REMARK    5  A    between atoms: C4_5  and  N1_6
DOCKED: REMARK    6  A    between atoms: C4_5  and  C15_21
DOCKED: REMARK    7  A    between atoms: C5_7  and  C6_9
DOCKED: REMARK    8  A    between atoms: C6_9  and  N2_10
DOCKED: REMARK    9  A    between atoms: C6_9  and  C12_18
DOCKED: REMARK   10  A    between atoms: C7_11  and  O3_13
DOCKED: REMARK   11  A    between atoms: O3_13  and  C8_14
DOCKED: REMARK   12  A    between atoms: C8_14  and  C9_15
DOCKED: REMARK   13  A    between atoms: C8_14  and  C10_16
DOCKED: REMARK   14  A    between atoms: C8_14  and  C11_17
DOCKED: REMARK   15  A    between atoms: C12_18  and  C13_19
DOCKED: REMARK   16  A    between atoms: C12_18  and  C14_20
DOCKED: REMARK   17  A    between atoms: N3_23  and  C16_24
DOCKED: REMARK   18  A    between atoms: C16_24  and  C17_25
DOCKED: REMARK   19  A    between atoms: C16_24  and  C21_29
DOCKED: REMARK   20  A    between atoms: C17_25  and  C18_26
DOCKED: REMARK   21  A    between atoms: C18_26  and  C19_27
DOCKED: REMARK   22  A    between atoms: C18_26  and  C20_28
DOCKED: REMARK   23  A    between atoms: C21_29  and  O5_30
DOCKED: REMARK   24  A    between atoms: C21_29  and  C22_31
DOCKED: REMARK   25  A    between atoms: C22_31  and  C23_32
DOCKED: REMARK   26  A    between atoms: C23_32  and  C24_33
DOCKED: REMARK   27  A    between atoms: C23_32  and  C25_34
DOCKED: REMARK   28  A    between atoms: N4_36  and  C26_37
DOCKED: REMARK   29  A    between atoms: C26_37  and  C27_38
DOCKED: REMARK   30  A    between atoms: C26_37  and  C35_48
DOCKED: REMARK   31  A    between atoms: N5_40  and  C28_41
DOCKED: REMARK   32  A    between atoms: C28_41  and  C29_42
DOCKED: REMARK   33  A    between atoms: C35_48  and  C36_49
DOCKED: REMARK   34  A    between atoms: C35_48  and  C37_50
DOCKED: REMARK                            x       y       z     vdW  Elec       q    Type
DOCKED: REMARK                         _______ _______ _______ _____ _____    ______ ____
DOCKED: USER                              x       y       z     vdW  Elec       q    Type
DOCKED: USER                           _______ _______ _______ _____ _____    ______ ____
DOCKED: ROOT
DOCKED: ATOM      1  C16 UNL     1      10.846   0.979   0.380 +0.00 +0.00    +0.102 C  
DOCKED: ENDROOT
DOCKED: BRANCH   1   4
DOCKED: ATOM      2  C15 UNL     1      11.110  -0.730  -1.373 +0.00 +0.00    +0.234 C  
DOCKED: ATOM      3  O4  UNL     1      10.583   0.020  -2.199 +0.00 -0.00    -0.274 OA 
DOCKED: ATOM      4  N3  UNL     1      11.237  -0.371  -0.042 +0.00 -0.00    -0.308 N  
DOCKED: ATOM      5  H28 UNL     1      12.046  -0.748   0.424 +0.00 +0.00    +0.149 HD 
DOCKED: BRANCH   2   6
DOCKED: ATOM      6  C4  UNL     1      11.725  -2.084  -1.809 +0.00 +0.00    +0.160 C  
DOCKED: BRANCH   6   7
DOCKED: ATOM      7  N1  UNL     1      12.835  -2.354  -0.892 +0.00 -0.00    -0.302 N  
DOCKED: ATOM      8  C5  UNL     1      14.002  -2.926  -1.347 +0.00 +0.00    +0.234 C  
DOCKED: ATOM      9  O1  UNL     1      14.135  -3.335  -2.506 +0.00 -0.00    -0.274 OA 
DOCKED: ATOM     10  H9  UNL     1      12.808  -1.887   0.011 +0.00 +0.00    +0.150 HD 
DOCKED: BRANCH   8  11
DOCKED: ATOM     11  C6  UNL     1      15.142  -3.040  -0.317 +0.00 +0.00    +0.165 C  
DOCKED: BRANCH  11  12
DOCKED: ATOM     12  N2  UNL     1      14.570  -3.729   0.831 +0.00 -0.00    -0.270 N  
DOCKED: ATOM     13  C7  UNL     1      13.747  -3.155   1.740 +0.00 +0.00    +0.401 C  
DOCKED: ATOM     14  O2  UNL     1      13.330  -2.009   1.677 +0.00 -0.00    -0.226 OA 
DOCKED: ATOM     15  H11 UNL     1      14.849  -4.695   0.995 +0.00 +0.00    +0.153 HD 
DOCKED: BRANCH  13  16
DOCKED: ATOM     16  O3  UNL     1      13.480  -4.055   2.711 +0.00 -0.00    -0.445 OA 
DOCKED: BRANCH  16  17
DOCKED: ATOM     17  C8  UNL     1      14.517  -4.519   3.610 +0.00 +0.00    +0.107 C  
DOCKED: ATOM     18  C9  UNL     1      13.866  -4.503   5.004 +0.00 +0.00    +0.055 C  
DOCKED: ATOM     19  C10 UNL     1      15.716  -3.566   3.616 +0.00 +0.00    +0.055 C  
DOCKED: ATOM     20  C11 UNL     1      14.937  -5.955   3.286 +0.00 +0.00    +0.055 C  
DOCKED: ENDBRANCH  16  17
DOCKED: ENDBRANCH  13  16
DOCKED: ENDBRANCH  11  12
DOCKED: BRANCH  11  21
DOCKED: ATOM     21  C12 UNL     1      16.394  -3.782  -0.839 +0.00 +0.00    +0.012 C  
DOCKED: ATOM     22  C13 UNL     1      17.246  -2.941  -1.800 +0.00 +0.00    +0.009 C  
DOCKED: ATOM     23  C14 UNL     1      17.267  -4.329   0.292 +0.00 +0.00    +0.009 C  
DOCKED: ENDBRANCH  11  21
DOCKED: ENDBRANCH   8  11
DOCKED: ENDBRANCH   6   7
DOCKED: BRANCH   6  24
DOCKED: ATOM     24  C3  UNL     1      10.816  -3.316  -1.894 +0.00 +0.00    +0.042 C  
DOCKED: BRANCH  24  25
DOCKED: ATOM     25  C2  UNL     1       9.914  -3.424  -0.665 +0.00 +0.00    +0.071 C  
DOCKED: BRANCH  25  27
DOCKED: ATOM     26  C1  UNL     1      10.372  -3.221   2.063 +0.00 +0.00    +0.084 C  
DOCKED: ATOM     27  S1  UNL     1      10.727  -4.336   0.687 +0.00 -0.00    -0.164 S  
DOCKED: ENDBRANCH  25  27
DOCKED: ENDBRANCH  24  25
DOCKED: ENDBRANCH   6  24
DOCKED: ENDBRANCH   2   6
DOCKED: ENDBRANCH   1   4
DOCKED: BRANCH   1  28
DOCKED: ATOM     28  C17 UNL     1       9.370   1.046   0.826 +0.00 +0.00    +0.028 C  
DOCKED: BRANCH  28  29
DOCKED: ATOM     29  C18 UNL     1       8.738  -0.279   1.315 +0.00 -0.00    -0.015 C  
DOCKED: ATOM     30  C19 UNL     1       8.055  -0.137   2.675 +0.00 +0.00    +0.007 C  
DOCKED: ATOM     31  C20 UNL     1       7.781  -0.905   0.307 +0.00 +0.00    +0.007 C  
DOCKED: ENDBRANCH  28  29
DOCKED: ENDBRANCH   1  28
DOCKED: BRANCH   1  32
DOCKED: ATOM     32  C21 UNL     1      11.848   1.573   1.417 +0.00 +0.00    +0.135 C  
DOCKED: BRANCH  32  33
DOCKED: ATOM     33  O5  UNL     1      12.572   0.455   1.975 +0.00 -0.00    -0.390 OA 
DOCKED: ATOM     34  H40 UNL     1      12.971  -0.023   1.225 +0.00 +0.00    +0.210 HD 
DOCKED: ENDBRANCH  32  33
DOCKED: BRANCH  32  35
DOCKED: ATOM     35  C22 UNL     1      12.939   2.561   0.964 +0.00 +0.00    +0.045 C  
DOCKED: BRANCH  35  36
DOCKED: ATOM     36  C23 UNL     1      14.046   2.202  -0.040 +0.00 +0.00    +0.074 C  
DOCKED: ATOM     37  C24 UNL     1      15.128   3.266  -0.191 +0.00 +0.00    +0.017 C  
DOCKED: BRANCH  36  38
DOCKED: ATOM     38  C25 UNL     1      14.707   0.842   0.148 +0.00 +0.00    +0.217 C  
DOCKED: ATOM     39  O6  UNL     1      14.113  -0.228   0.068 +0.00 -0.00    -0.276 OA 
DOCKED: ATOM     40  N4  UNL     1      16.025   0.929   0.516 +0.00 -0.00    -0.304 N  
DOCKED: ATOM     41  H47 UNL     1      16.463   1.837   0.655 +0.00 +0.00    +0.149 HD 
DOCKED: BRANCH  40  42
DOCKED: ATOM     42  C26 UNL     1      16.814  -0.224   0.952 +0.00 +0.00    +0.161 C  
DOCKED: BRANCH  42  43
DOCKED: ATOM     43  C27 UNL     1      16.628  -0.255   2.482 +0.00 +0.00    +0.234 C  
DOCKED: ATOM     44  O7  UNL     1      17.583  -0.148   3.253 +0.00 -0.00    -0.274 OA 
DOCKED: ATOM     45  N5  UNL     1      15.330  -0.432   2.901 +0.00 -0.00    -0.310 N  
DOCKED: ATOM     46  H49 UNL     1      14.574  -0.331   2.238 +0.00 +0.00    +0.149 HD 
DOCKED: BRANCH  45  47
DOCKED: ATOM     47  C28 UNL     1      14.981  -0.404   4.303 +0.00 +0.00    +0.139 C  
DOCKED: BRANCH  47  48
DOCKED: ATOM     48  C29 UNL     1      13.499  -0.211   4.506 +0.00 -0.00    -0.030 A  
DOCKED: ATOM     49  C30 UNL     1      12.624  -1.303   4.437 +0.00 +0.00    +0.005 A  
DOCKED: ATOM     50  C31 UNL     1      11.247  -1.126   4.602 +0.00 +0.00    +0.000 A  
DOCKED: ATOM     51  C32 UNL     1      10.739   0.144   4.849 +0.00 +0.00    +0.000 A  
DOCKED: ATOM     52  C33 UNL     1      11.601   1.236   4.947 +0.00 +0.00    +0.000 A  
DOCKED: ATOM     53  C34 UNL     1      12.976   1.060   4.780 +0.00 +0.00    +0.005 A  
DOCKED: ENDBRANCH  47  48
DOCKED: ENDBRANCH  45  47
DOCKED: ENDBRANCH  42  43
DOCKED: BRANCH  42  54
DOCKED: ATOM     54  C35 UNL     1      18.304  -0.080   0.570 +0.00 +0.00    +0.012 C  
DOCKED: ATOM     55  C36 UNL     1      19.089  -1.379   0.800 +0.00 +0.00    +0.009 C  
DOCKED: ATOM     56  C37 UNL     1      18.465   0.332  -0.897 +0.00 +0.00    +0.009 C  
DOCKED: ENDBRANCH  42  54
DOCKED: ENDBRANCH  40  42
DOCKED: ENDBRANCH  36  38
DOCKED: ENDBRANCH  35  36
DOCKED: ENDBRANCH  32  35
DOCKED: ENDBRANCH   1  32
DOCKED: TORSDOF 23
DOCKED: TER
DOCKED: ENDMDL
________________________________________________________________________________


    FINAL DOCKED STATE:
    ________________________


Run:   19 / 20
Time taken for this run:   2.054s

DOCKED: MODEL        19
DOCKED: USER    Run = 19
DOCKED: USER
DOCKED: USER    Estimated Free Energy of Binding    =  +6.86 kcal/mol  [=(1)+(2)+(3)-(4)]
DOCKED: USER
DOCKED: USER    (1) Final Intermolecular Energy     =  +0.00 kcal/mol
DOCKED: USER        vdW + Hbond + desolv Energy     =  +0.00 kcal/mol
DOCKED: USER        Electrostatic Energy            =  +0.00 kcal/mol
DOCKED: USER        Moving Ligand-Fixed Receptor    =  +0.00 kcal/mol
DOCKED: USER        Moving Ligand-Moving Receptor   =  +0.00 kcal/mol
DOCKED: USER    (2) Final Total Internal Energy     = -15.23 kcal/mol
DOCKED: USER    (3) Torsional Free Energy           =  +6.86 kcal/mol
DOCKED: USER    (4) Unbound System's Energy         = -15.23 kcal/mol
DOCKED: USER
DOCKED: USER
DOCKED: REMARK  Name = ligands/ligand_1.pdb
DOCKED: REMARK  34 active torsions:
DOCKED: REMARK  status: ('A' for Active; 'I' for Inactive)
DOCKED: REMARK    1  A    between atoms: C1_1  and  S1_2
DOCKED: REMARK    2  A    between atoms: S1_2  and  C2_3
DOCKED: REMARK    3  A    between atoms: C2_3  and  C3_4
DOCKED: REMARK    4  A    between atoms: C3_4  and  C4_5
DOCKED: REMARK    5  A    between atoms: C4_5  and  N1_6
DOCKED: REMARK    6  A    between atoms: C4_5  and  C15_21
DOCKED: REMARK    7  A    between atoms: C5_7  and  C6_9
DOCKED: REMARK    8  A    between atoms: C6_9  and  N2_10
DOCKED: REMARK    9  A    between atoms: C6_9  and  C12_18
DOCKED: REMARK   10  A    between atoms: C7_11  and  O3_13
DOCKED: REMARK   11  A    between atoms: O3_13  and  C8_14
DOCKED: REMARK   12  A    between atoms: C8_14  and  C9_15
DOCKED: REMARK   13  A    between atoms: C8_14  and  C10_16
DOCKED: REMARK   14  A    between atoms: C8_14  and  C11_17
DOCKED: REMARK   15  A    between atoms: C12_18  and  C13_19
DOCKED: REMARK   16  A    between atoms: C12_18  and  C14_20
DOCKED: REMARK   17  A    between atoms: N3_23  and  C16_24
DOCKED: REMARK   18  A    between atoms: C16_24  and  C17_25
DOCKED: REMARK   19  A    between atoms: C16_24  and  C21_29
DOCKED: REMARK   20  A    between atoms: C17_25  and  C18_26
DOCKED: REMARK   21  A    between atoms: C18_26  and  C19_27
DOCKED: REMARK   22  A    between atoms: C18_26  and  C20_28
DOCKED: REMARK   23  A    between atoms: C21_29  and  O5_30
DOCKED: REMARK   24  A    between atoms: C21_29  and  C22_31
DOCKED: REMARK   25  A    between atoms: C22_31  and  C23_32
DOCKED: REMARK   26  A    between atoms: C23_32  and  C24_33
DOCKED: REMARK   27  A    between atoms: C23_32  and  C25_34
DOCKED: REMARK   28  A    between atoms: N4_36  and  C26_37
DOCKED: REMARK   29  A    between atoms: C26_37  and  C27_38
DOCKED: REMARK   30  A    between atoms: C26_37  and  C35_48
DOCKED: REMARK   31  A    between atoms: N5_40  and  C28_41
DOCKED: REMARK   32  A    between atoms: C28_41  and  C29_42
DOCKED: REMARK   33  A    between atoms: C35_48  and  C36_49
DOCKED: REMARK   34  A    between atoms: C35_48  and  C37_50
DOCKED: REMARK                            x       y       z     vdW  Elec       q    Type
DOCKED: REMARK                         _______ _______ _______ _____ _____    ______ ____
DOCKED: USER                              x       y       z     vdW  Elec       q    Type
DOCKED: USER                           _______ _______ _______ _____ _____    ______ ____
DOCKED: ROOT
DOCKED: ATOM      1  C16 UNL     1      16.355  -1.517   6.509 +0.00 +0.00    +0.102 C  
DOCKED: ENDROOT
DOCKED: BRANCH   1   4
DOCKED: ATOM      2  C15 UNL     1      14.733  -3.288   7.052 +0.00 +0.00    +0.234 C  
DOCKED: ATOM      3  O4  UNL     1      14.822  -3.017   8.252 +0.00 -0.00    -0.274 OA 
DOCKED: ATOM      4  N3  UNL     1      15.500  -2.637   6.101 +0.00 -0.00    -0.308 N  
DOCKED: ATOM      5  H28 UNL     1      15.064  -2.537   5.199 +0.00 +0.00    +0.149 HD 
DOCKED: BRANCH   2   6
DOCKED: ATOM      6  C4  UNL     1      13.695  -4.322   6.545 +0.00 +0.00    +0.160 C  
DOCKED: BRANCH   6   7
DOCKED: ATOM      7  N1  UNL     1      13.979  -4.538   5.125 +0.00 -0.00    -0.302 N  
DOCKED: ATOM      8  C5  UNL     1      13.000  -5.001   4.274 +0.00 +0.00    +0.234 C  
DOCKED: ATOM      9  O1  UNL     1      11.885  -5.357   4.671 +0.00 -0.00    -0.274 OA 
DOCKED: ATOM     10  H9  UNL     1      14.822  -4.108   4.755 +0.00 +0.00    +0.150 HD 
DOCKED: BRANCH   8  11
DOCKED: ATOM     11  C6  UNL     1      13.380  -5.064   2.781 +0.00 +0.00    +0.165 C  
DOCKED: BRANCH  11  12
DOCKED: ATOM     12  N2  UNL     1      13.599  -3.683   2.371 +0.00 -0.00    -0.270 N  
DOCKED: ATOM     13  C7  UNL     1      14.687  -2.948   2.700 +0.00 +0.00    +0.401 C  
DOCKED: ATOM     14  O2  UNL     1      15.648  -3.365   3.325 +0.00 -0.00    -0.226 OA 
DOCKED: ATOM     15  H11 UNL     1      12.860  -3.220   1.845 +0.00 +0.00    +0.153 HD 
DOCKED: BRANCH  13  16
DOCKED: ATOM     16  O3  UNL     1      14.520  -1.694   2.227 +0.00 -0.00    -0.445 OA 
DOCKED: BRANCH  16  17
DOCKED: ATOM     17  C8  UNL     1      15.279  -1.213   1.091 +0.00 +0.00    +0.107 C  
DOCKED: ATOM     18  C9  UNL     1      14.950  -2.193  -0.048 +0.00 +0.00    +0.055 C  
DOCKED: ATOM     19  C10 UNL     1      16.786  -1.266   1.364 +0.00 +0.00    +0.055 C  
DOCKED: ATOM     20  C11 UNL     1      14.831   0.190   0.670 +0.00 +0.00    +0.055 C  
DOCKED: ENDBRANCH  16  17
DOCKED: ENDBRANCH  13  16
DOCKED: ENDBRANCH  11  12
DOCKED: BRANCH  11  21
DOCKED: ATOM     21  C12 UNL     1      14.623  -5.932   2.482 +0.00 +0.00    +0.012 C  
DOCKED: ATOM     22  C13 UNL     1      14.473  -7.391   2.935 +0.00 +0.00    +0.009 C  
DOCKED: ATOM     23  C14 UNL     1      15.034  -5.882   1.009 +0.00 +0.00    +0.009 C  
DOCKED: ENDBRANCH  11  21
DOCKED: ENDBRANCH   8  11
DOCKED: ENDBRANCH   6   7
DOCKED: BRANCH   6  24
DOCKED: ATOM     24  C3  UNL     1      13.588  -5.674   7.261 +0.00 +0.00    +0.042 C  
DOCKED: BRANCH  24  25
DOCKED: ATOM     25  C2  UNL     1      14.535  -6.703   6.643 +0.00 +0.00    +0.071 C  
DOCKED: BRANCH  25  27
DOCKED: ATOM     26  C1  UNL     1      16.852  -6.256   5.184 +0.00 +0.00    +0.084 C  
DOCKED: ATOM     27  S1  UNL     1      16.281  -6.247   6.898 +0.00 -0.00    -0.164 S  
DOCKED: ENDBRANCH  25  27
DOCKED: ENDBRANCH  24  25
DOCKED: ENDBRANCH   6  24
DOCKED: ENDBRANCH   2   6
DOCKED: ENDBRANCH   1   4
DOCKED: BRANCH   1  28
DOCKED: ATOM     28  C17 UNL     1      17.801  -1.965   6.805 +0.00 +0.00    +0.028 C  
DOCKED: BRANCH  28  29
DOCKED: ATOM     29  C18 UNL     1      18.276  -3.262   6.109 +0.00 -0.00    -0.015 C  
DOCKED: ATOM     30  C19 UNL     1      18.459  -3.087   4.601 +0.00 +0.00    +0.007 C  
DOCKED: ATOM     31  C20 UNL     1      19.536  -3.858   6.727 +0.00 +0.00    +0.007 C  
DOCKED: ENDBRANCH  28  29
DOCKED: ENDBRANCH   1  28
DOCKED: BRANCH   1  32
DOCKED: ATOM     32  C21 UNL     1      16.253  -0.321   5.514 +0.00 +0.00    +0.135 C  
DOCKED: BRANCH  32  33
DOCKED: ATOM     33  O5  UNL     1      16.050  -0.892   4.203 +0.00 -0.00    -0.390 OA 
DOCKED: ATOM     34  H40 UNL     1      15.239  -1.431   4.256 +0.00 +0.00    +0.210 HD 
DOCKED: ENDBRANCH  32  33
DOCKED: BRANCH  32  35
DOCKED: ATOM     35  C22 UNL     1      15.131   0.722   5.666 +0.00 +0.00    +0.045 C  
DOCKED: BRANCH  35  36
DOCKED: ATOM     36  C23 UNL     1      13.690   0.496   5.182 +0.00 +0.00    +0.074 C  
DOCKED: ATOM     37  C24 UNL     1      13.462   0.821   3.709 +0.00 +0.00    +0.017 C  
DOCKED: BRANCH  36  38
DOCKED: ATOM     38  C25 UNL     1      13.086  -0.868   5.490 +0.00 +0.00    +0.217 C  
DOCKED: ATOM     39  O6  UNL     1      13.169  -1.842   4.748 +0.00 -0.00    -0.276 OA 
DOCKED: ATOM     40  N4  UNL     1      12.345  -0.882   6.645 +0.00 -0.00    -0.304 N  
DOCKED: ATOM     41  H47 UNL     1      12.227  -0.032   7.192 +0.00 +0.00    +0.149 HD 
DOCKED: BRANCH  40  42
DOCKED: ATOM     42  C26 UNL     1      11.502  -2.010   7.043 +0.00 +0.00    +0.161 C  
DOCKED: BRANCH  42  43
DOCKED: ATOM     43  C27 UNL     1      10.388  -2.048   5.978 +0.00 +0.00    +0.234 C  
DOCKED: ATOM     44  O7  UNL     1       9.360  -1.378   6.092 +0.00 -0.00    -0.274 OA 
DOCKED: ATOM     45  N5  UNL     1      10.630  -2.895   4.922 +0.00 -0.00    -0.310 N  
DOCKED: ATOM     46  H49 UNL     1      11.557  -3.274   4.789 +0.00 +0.00    +0.149 HD 
DOCKED: BRANCH  45  47
DOCKED: ATOM     47  C28 UNL     1       9.719  -2.983   3.804 +0.00 +0.00    +0.139 C  
DOCKED: BRANCH  47  48
DOCKED: ATOM     48  C29 UNL     1      10.382  -2.581   2.510 +0.00 -0.00    -0.030 A  
DOCKED: ATOM     49  C30 UNL     1      10.997  -1.328   2.386 +0.00 +0.00    +0.005 A  
DOCKED: ATOM     50  C31 UNL     1      11.593  -0.942   1.183 +0.00 +0.00    +0.000 A  
DOCKED: ATOM     51  C32 UNL     1      11.588  -1.813   0.099 +0.00 +0.00    +0.000 A  
DOCKED: ATOM     52  C33 UNL     1      11.003  -3.074   0.216 +0.00 +0.00    +0.000 A  
DOCKED: ATOM     53  C34 UNL     1      10.405  -3.458   1.417 +0.00 +0.00    +0.005 A  
DOCKED: ENDBRANCH  47  48
DOCKED: ENDBRANCH  45  47
DOCKED: ENDBRANCH  42  43
DOCKED: BRANCH  42  54
DOCKED: ATOM     54  C35 UNL     1      10.918  -1.819   8.461 +0.00 +0.00    +0.012 C  
DOCKED: ATOM     55  C36 UNL     1      10.323  -3.118   9.022 +0.00 +0.00    +0.009 C  
DOCKED: ATOM     56  C37 UNL     1      11.984  -1.311   9.438 +0.00 +0.00    +0.009 C  
DOCKED: ENDBRANCH  42  54
DOCKED: ENDBRANCH  40  42
DOCKED: ENDBRANCH  36  38
DOCKED: ENDBRANCH  35  36
DOCKED: ENDBRANCH  32  35
DOCKED: ENDBRANCH   1  32
DOCKED: TORSDOF 23
DOCKED: TER
DOCKED: ENDMDL
________________________________________________________________________________


    FINAL DOCKED STATE:
    ________________________


Run:   20 / 20
Time taken for this run:   2.054s

DOCKED: MODEL        20
DOCKED: USER    Run = 20
DOCKED: USER
DOCKED: USER    Estimated Free Energy of Binding    =  +6.86 kcal/mol  [=(1)+(2)+(3)-(4)]
DOCKED: USER
DOCKED: USER    (1) Final Intermolecular Energy     =  +0.00 kcal/mol
DOCKED: USER        vdW + Hbond + desolv Energy     =  +0.00 kcal/mol
DOCKED: USER        Electrostatic Energy            =  +0.00 kcal/mol
DOCKED: USER        Moving Ligand-Fixed Receptor    =  +0.00 kcal/mol
DOCKED: USER        Moving Ligand-Moving Receptor   =  +0.00 kcal/mol
DOCKED: USER    (2) Final Total Internal Energy     = -15.25 kcal/mol
DOCKED: USER    (3) Torsional Free Energy           =  +6.86 kcal/mol
DOCKED: USER    (4) Unbound System's Energy         = -15.25 kcal/mol
DOCKED: USER
DOCKED: USER
DOCKED: REMARK  Name = ligands/ligand_1.pdb
DOCKED: REMARK  34 active torsions:
DOCKED: REMARK  status: ('A' for Active; 'I' for Inactive)
DOCKED: REMARK    1  A    between atoms: C1_1  and  S1_2
DOCKED: REMARK    2  A    between atoms: S1_2  and  C2_3
DOCKED: REMARK    3  A    between atoms: C2_3  and  C3_4
DOCKED: REMARK    4  A    between atoms: C3_4  and  C4_5
DOCKED: REMARK    5  A    between atoms: C4_5  and  N1_6
DOCKED: REMARK    6  A    between atoms: C4_5  and  C15_21
DOCKED: REMARK    7  A    between atoms: C5_7  and  C6_9
DOCKED: REMARK    8  A    between atoms: C6_9  and  N2_10
DOCKED: REMARK    9  A    between atoms: C6_9  and  C12_18
DOCKED: REMARK   10  A    between atoms: C7_11  and  O3_13
DOCKED: REMARK   11  A    between atoms: O3_13  and  C8_14
DOCKED: REMARK   12  A    between atoms: C8_14  and  C9_15
DOCKED: REMARK   13  A    between atoms: C8_14  and  C10_16
DOCKED: REMARK   14  A    between atoms: C8_14  and  C11_17
DOCKED: REMARK   15  A    between atoms: C12_18  and  C13_19
DOCKED: REMARK   16  A    between atoms: C12_18  and  C14_20
DOCKED: REMARK   17  A    between atoms: N3_23  and  C16_24
DOCKED: REMARK   18  A    between atoms: C16_24  and  C17_25
DOCKED: REMARK   19  A    between atoms: C16_24  and  C21_29
DOCKED: REMARK   20  A    between atoms: C17_25  and  C18_26
DOCKED: REMARK   21  A    between atoms: C18_26  and  C19_27
DOCKED: REMARK   22  A    between atoms: C18_26  and  C20_28
DOCKED: REMARK   23  A    between atoms: C21_29  and  O5_30
DOCKED: REMARK   24  A    between atoms: C21_29  and  C22_31
DOCKED: REMARK   25  A    between atoms: C22_31  and  C23_32
DOCKED: REMARK   26  A    between atoms: C23_32  and  C24_33
DOCKED: REMARK   27  A    between atoms: C23_32  and  C25_34
DOCKED: REMARK   28  A    between atoms: N4_36  and  C26_37
DOCKED: REMARK   29  A    between atoms: C26_37  and  C27_38
DOCKED: REMARK   30  A    between atoms: C26_37  and  C35_48
DOCKED: REMARK   31  A    between atoms: N5_40  and  C28_41
DOCKED: REMARK   32  A    between atoms: C28_41  and  C29_42
DOCKED: REMARK   33  A    between atoms: C35_48  and  C36_49
DOCKED: REMARK   34  A    between atoms: C35_48  and  C37_50
DOCKED: REMARK                            x       y       z     vdW  Elec       q    Type
DOCKED: REMARK                         _______ _______ _______ _____ _____    ______ ____
DOCKED: USER                              x       y       z     vdW  Elec       q    Type
DOCKED: USER                           _______ _______ _______ _____ _____    ______ ____
DOCKED: ROOT
DOCKED: ATOM      1  C16 UNL     1       2.074  -2.870  -3.414 +0.00 +0.00    +0.102 C  
DOCKED: ENDROOT
DOCKED: BRANCH   1   4
DOCKED: ATOM      2  C15 UNL     1       3.442  -1.119  -2.353 +0.00 +0.00    +0.234 C  
DOCKED: ATOM      3  O4  UNL     1       2.502  -0.816  -1.615 +0.00 -0.00    -0.274 OA 
DOCKED: ATOM      4  N3  UNL     1       3.315  -2.093  -3.329 +0.00 -0.00    -0.308 N  
DOCKED: ATOM      5  H28 UNL     1       4.158  -2.609  -3.526 +0.00 +0.00    +0.149 HD 
DOCKED: BRANCH   2   6
DOCKED: ATOM      6  C4  UNL     1       4.839  -0.471  -2.169 +0.00 +0.00    +0.160 C  
DOCKED: BRANCH   6   7
DOCKED: ATOM      7  N1  UNL     1       5.658  -0.914  -3.299 +0.00 -0.00    -0.302 N  
DOCKED: ATOM      8  C5  UNL     1       7.032  -0.922  -3.213 +0.00 +0.00    +0.234 C  
DOCKED: ATOM      9  O1  UNL     1       7.642  -0.463  -2.240 +0.00 -0.00    -0.274 OA 
DOCKED: ATOM     10  H9  UNL     1       5.185  -1.436  -4.032 +0.00 +0.00    +0.150 HD 
DOCKED: BRANCH   8  11
DOCKED: ATOM     11  C6  UNL     1       7.779  -1.530  -4.416 +0.00 +0.00    +0.165 C  
DOCKED: BRANCH  11  12
DOCKED: ATOM     12  N2  UNL     1       7.401  -2.937  -4.446 +0.00 -0.00    -0.270 N  
DOCKED: ATOM     13  C7  UNL     1       6.202  -3.401  -4.868 +0.00 +0.00    +0.401 C  
DOCKED: ATOM     14  O2  UNL     1       5.312  -2.709  -5.337 +0.00 -0.00    -0.226 OA 
DOCKED: ATOM     15  H11 UNL     1       8.063  -3.616  -4.073 +0.00 +0.00    +0.153 HD 
DOCKED: BRANCH  13  16
DOCKED: ATOM     16  O3  UNL     1       6.164  -4.737  -4.679 +0.00 -0.00    -0.445 OA 
DOCKED: BRANCH  16  17
DOCKED: ATOM     17  C8  UNL     1       6.247  -5.656  -5.796 +0.00 +0.00    +0.107 C  
DOCKED: ATOM     18  C9  UNL     1       7.565  -5.297  -6.505 +0.00 +0.00    +0.055 C  
DOCKED: ATOM     19  C10 UNL     1       5.089  -5.448  -6.777 +0.00 +0.00    +0.055 C  
DOCKED: ATOM     20  C11 UNL     1       6.331  -7.109  -5.321 +0.00 +0.00    +0.055 C  
DOCKED: ENDBRANCH  16  17
DOCKED: ENDBRANCH  13  16
DOCKED: ENDBRANCH  11  12
DOCKED: BRANCH  11  21
DOCKED: ATOM     21  C12 UNL     1       7.466  -0.846  -5.766 +0.00 +0.00    +0.012 C  
DOCKED: ATOM     22  C13 UNL     1       7.782   0.656  -5.778 +0.00 +0.00    +0.009 C  
DOCKED: ATOM     23  C14 UNL     1       8.154  -1.534  -6.947 +0.00 +0.00    +0.009 C  
DOCKED: ENDBRANCH  11  21
DOCKED: ENDBRANCH   8  11
DOCKED: ENDBRANCH   6   7
DOCKED: BRANCH   6  24
DOCKED: ATOM     24  C3  UNL     1       4.936   1.052  -2.028 +0.00 +0.00    +0.042 C  
DOCKED: BRANCH  24  25
DOCKED: ATOM     25  C2  UNL     1       5.082   1.726  -3.392 +0.00 +0.00    +0.071 C  
DOCKED: BRANCH  25  27
DOCKED: ATOM     26  C1  UNL     1       4.316   0.744  -5.871 +0.00 +0.00    +0.084 C  
DOCKED: ATOM     27  S1  UNL     1       3.585   1.513  -4.409 +0.00 -0.00    -0.164 S  
DOCKED: ENDBRANCH  25  27
DOCKED: ENDBRANCH  24  25
DOCKED: ENDBRANCH   6  24
DOCKED: ENDBRANCH   2   6
DOCKED: ENDBRANCH   1   4
DOCKED: BRANCH   1  28
DOCKED: ATOM     28  C17 UNL     1       1.067  -2.252  -4.407 +0.00 +0.00    +0.028 C  
DOCKED: BRANCH  28  29
DOCKED: ATOM     29  C18 UNL     1       1.664  -1.388  -5.544 +0.00 -0.00    -0.015 C  
DOCKED: ATOM     30  C19 UNL     1       2.464  -2.214  -6.551 +0.00 +0.00    +0.007 C  
DOCKED: ATOM     31  C20 UNL     1       0.628  -0.534  -6.266 +0.00 +0.00    +0.007 C  
DOCKED: ENDBRANCH  28  29
DOCKED: ENDBRANCH   1  28
DOCKED: BRANCH   1  32
DOCKED: ATOM     32  C21 UNL     1       2.355  -4.384  -3.656 +0.00 +0.00    +0.135 C  
DOCKED: BRANCH  32  33
DOCKED: ATOM     33  O5  UNL     1       3.557  -4.457  -4.452 +0.00 -0.00    -0.390 OA 
DOCKED: ATOM     34  H40 UNL     1       4.259  -4.015  -3.940 +0.00 +0.00    +0.210 HD 
DOCKED: ENDBRANCH  32  33
DOCKED: BRANCH  32  35
DOCKED: ATOM     35  C22 UNL     1       2.615  -5.325  -2.465 +0.00 +0.00    +0.045 C  
DOCKED: BRANCH  35  36
DOCKED: ATOM     36  C23 UNL     1       3.954  -5.393  -1.713 +0.00 +0.00    +0.074 C  
DOCKED: ATOM     37  C24 UNL     1       4.974  -6.344  -2.329 +0.00 +0.00    +0.017 C  
DOCKED: BRANCH  36  38
DOCKED: ATOM     38  C25 UNL     1       4.628  -4.058  -1.424 +0.00 +0.00    +0.217 C  
DOCKED: ATOM     39  O6  UNL     1       5.415  -3.504  -2.186 +0.00 -0.00    -0.276 OA 
DOCKED: ATOM     40  N4  UNL     1       4.348  -3.570  -0.173 +0.00 -0.00    -0.304 N  
DOCKED: ATOM     41  H47 UNL     1       3.757  -4.099   0.466 +0.00 +0.00    +0.149 HD 
DOCKED: BRANCH  40  42
DOCKED: ATOM     42  C26 UNL     1       5.034  -2.418   0.412 +0.00 +0.00    +0.161 C  
DOCKED: BRANCH  42  43
DOCKED: ATOM     43  C27 UNL     1       6.489  -2.893   0.593 +0.00 +0.00    +0.234 C  
DOCKED: ATOM     44  O7  UNL     1       6.854  -3.492   1.607 +0.00 -0.00    -0.274 OA 
DOCKED: ATOM     45  N5  UNL     1       7.331  -2.577  -0.447 +0.00 -0.00    -0.310 N  
DOCKED: ATOM     46  H49 UNL     1       6.944  -2.253  -1.322 +0.00 +0.00    +0.149 HD 
DOCKED: BRANCH  45  47
DOCKED: ATOM     47  C28 UNL     1       8.707  -3.022  -0.463 +0.00 +0.00    +0.139 C  
DOCKED: BRANCH  47  48
DOCKED: ATOM     48  C29 UNL     1       8.976  -3.962  -1.611 +0.00 -0.00    -0.030 A  
DOCKED: ATOM     49  C30 UNL     1       8.192  -5.111  -1.788 +0.00 +0.00    +0.005 A  
DOCKED: ATOM     50  C31 UNL     1       8.451  -5.997  -2.837 +0.00 +0.00    +0.000 A  
DOCKED: ATOM     51  C32 UNL     1       9.490  -5.734  -3.723 +0.00 +0.00    +0.000 A  
DOCKED: ATOM     52  C33 UNL     1      10.261  -4.581  -3.575 +0.00 +0.00    +0.000 A  
DOCKED: ATOM     53  C34 UNL     1      10.004  -3.697  -2.526 +0.00 +0.00    +0.005 A  
DOCKED: ENDBRANCH  47  48
DOCKED: ENDBRANCH  45  47
DOCKED: ENDBRANCH  42  43
DOCKED: BRANCH  42  54
DOCKED: ATOM     54  C35 UNL     1       4.408  -1.998   1.761 +0.00 +0.00    +0.012 C  
DOCKED: ATOM     55  C36 UNL     1       4.714  -0.536   2.112 +0.00 +0.00    +0.009 C  
DOCKED: ATOM     56  C37 UNL     1       2.887  -2.188   1.751 +0.00 +0.00    +0.009 C  
DOCKED: ENDBRANCH  42  54
DOCKED: ENDBRANCH  40  42
DOCKED: ENDBRANCH  36  38
DOCKED: ENDBRANCH  35  36
DOCKED: ENDBRANCH  32  35
DOCKED: ENDBRANCH   1  32
DOCKED: TORSDOF 23
DOCKED: TER
DOCKED: ENDMDL
________________________________________________________________________________


    CLUSTERING HISTOGRAM
    ____________________


________________________________________________________________________________
     |           |     |           |     |
Clus | Lowest    | Run | Mean      | Num | Histogram
-ter | Binding   |     | Binding   | in  |
Rank | Energy    |     | Energy    | Clus|    5    10   15   20   25   30   35
_____|___________|_____|___________|_____|____:____|____:____|____:____|____:___
   1 |     +6.86 |   1 |     +6.86 |   1 |#
   2 |     +6.86 |   2 |     +6.86 |   1 |#
   3 |     +6.86 |   3 |     +6.86 |   1 |#
   4 |     +6.86 |   4 |     +6.86 |   1 |#
   5 |     +6.86 |   5 |     +6.86 |   1 |#
   6 |     +6.86 |   6 |     +6.86 |   1 |#
   7 |     +6.86 |   7 |     +6.86 |   1 |#
   8 |     +6.86 |   8 |     +6.86 |   1 |#
   9 |     +6.86 |   9 |     +6.86 |   1 |#
  10 |     +6.86 |  10 |     +6.86 |   1 |#
  11 |     +6.86 |  11 |     +6.86 |   1 |#
  12 |     +6.86 |  12 |     +6.86 |   1 |#
  13 |     +6.86 |  13 |     +6.86 |   1 |#
  14 |     +6.86 |  14 |     +6.86 |   1 |#
  15 |     +6.86 |  15 |     +6.86 |   1 |#
  16 |     +6.86 |  16 |     +6.86 |   1 |#
  17 |     +6.86 |  17 |     +6.86 |   1 |#
  18 |     +6.86 |  18 |     +6.86 |   1 |#
  19 |     +6.86 |  19 |     +6.86 |   1 |#
  20 |     +6.86 |  20 |     +6.86 |   1 |#
_____|___________|_____|___________|_____|______________________________________


    RMSD TABLE
    __________


_______________________________________________________________________
     |      |      |           |         |                 |
Rank | Sub- | Run  | Binding   | Cluster | Reference       | Grep
     | Rank |      | Energy    | RMSD    | RMSD            | Pattern
_____|______|______|___________|_________|_________________|___________
   1      1      1       +6.86      0.00      9.41           RANKING
   2      1      2       +6.86      0.00     13.04           RANKING
   3      1      3       +6.86      0.00     13.20           RANKING
   4      1      4       +6.86      0.00      6.05           RANKING
   5      1      5       +6.86      0.00      8.73           RANKING
   6      1      6       +6.86      0.00      7.52           RANKING
   7      1      7       +6.86      0.00     11.75           RANKING
   8      1      8       +6.86      0.00     10.39           RANKING
   9      1      9       +6.86      0.00      9.24           RANKING
  10      1     10       +6.86      0.00      5.05           RANKING
  11      1     11       +6.86      0.00      9.42           RANKING
  12      1     12       +6.86      0.00      7.41           RANKING
  13      1     13       +6.86      0.00      5.52           RANKING
  14      1     14       +6.86      0.00     13.82           RANKING
  15      1     15       +6.86      0.00      8.00           RANKING
  16      1     16       +6.86      0.00      6.11           RANKING
  17      1     17       +6.86      0.00      9.84           RANKING
  18      1     18       +6.86      0.00     10.09           RANKING
  19      1     19       +6.86      0.00     12.30           RANKING
  20      1     20       +6.86      0.00      6.25           RANKING

Run time 41.400 sec
Idle time 0.276 sec
