AutoDock-GPU version: v1.6

**********************************************************
**    AutoDock-GPU AUTODOCKTOOLS-COMPATIBLE DLG FILE    **
**********************************************************


    DOCKING PARAMETERS
    ________________________


Ligand file:                               ligands/ligand_10.pdbqt
Grid fld file:                             protein.maps.fld

Random seed:                               1770971928, 24634
Number of runs:                            20
Number of energy evaluations:              11915671
Number of generations:                     42000
Size of population:                        150
Rate of crossover:                         80.000000%
Tournament selection probability limit:    60.000000%
Rate of mutation:                          2.000000%
Maximal allowed delta movement:            +/- 6.000000A
Maximal allowed delta angle:               +/- 90.000000

Rate of local search:                      100.000000%
Maximal number of local search iterations: 300
Rho lower bound:                           0.010000
Spread of local search delta movement:     2.000000A
Spread of local search delta angle:        74.999999
Limit of consecutive successes/failures:   4

Handle symmetry during clustering:         YES
RMSD tolerance:                            2.000000A

Program call in command line was:          ./autodock-gpu --ffile protein.maps.fld --lfile ligands/ligand_10.pdbqt --nrun 20 


    GRID PARAMETERS
    ________________________


Receptor name:                             #MACROMOLECULE
Number of grid points (x, y, z):           61, 61, 61
Grid center (x, y, z):                     10.261000, -3.492000, -0.127000A
Grid size (x, y, z):                       22.500000, 22.500000, 22.500000A
Grid spacing:                              0.375000A


    LIGAND PARAMETERS
    ________________________


Ligand name:                               ligands/ligand_10
Number of atoms:                           83
Number of rotatable bonds:                 36
Number of atom types:                      6


    DUMMY DATA (only for ADT-compatibility)
    ________________________


DPF> outlev 1
DPF> ga_run 20
DPF> fld protein.maps.fld
DPF> move ligands/ligand_10.pdbqt


    COUNTER STATES
    ________________________


Number of energy evaluations performed:    11912634
Number of generations used:                675


    INPUT LIGAND PDBQT FILE:
    ________________________


INPUT-LIGAND-PDBQT: REMARK  Name = ligands/ligand_10.pdb
INPUT-LIGAND-PDBQT: REMARK  43 active torsions:
INPUT-LIGAND-PDBQT: REMARK  status: ('A' for Active; 'I' for Inactive)
INPUT-LIGAND-PDBQT: REMARK    1  A    between atoms: C1_1  and  C2_2
INPUT-LIGAND-PDBQT: REMARK    2  A    between atoms: C2_2  and  C3_3
INPUT-LIGAND-PDBQT: REMARK    3  A    between atoms: C2_2  and  C4_4
INPUT-LIGAND-PDBQT: REMARK    4  A    between atoms: C4_4  and  C5_5
INPUT-LIGAND-PDBQT: REMARK    5  A    between atoms: C5_5  and  N1_6
INPUT-LIGAND-PDBQT: REMARK    6  A    between atoms: C5_5  and  C20_31
INPUT-LIGAND-PDBQT: REMARK    7  A    between atoms: C6_7  and  C7_9
INPUT-LIGAND-PDBQT: REMARK    8  A    between atoms: C7_9  and  C8_10
INPUT-LIGAND-PDBQT: REMARK    9  A    between atoms: C7_9  and  N3_14
INPUT-LIGAND-PDBQT: REMARK   10  A    between atoms: C8_10  and  C9_11
INPUT-LIGAND-PDBQT: REMARK   11  A    between atoms: C10_15  and  C11_17
INPUT-LIGAND-PDBQT: REMARK   12  A    between atoms: C11_17  and  N4_18
INPUT-LIGAND-PDBQT: REMARK   13  A    between atoms: C11_17  and  C17_28
INPUT-LIGAND-PDBQT: REMARK   14  A    between atoms: C12_19  and  C13_21
INPUT-LIGAND-PDBQT: REMARK   15  A    between atoms: C13_21  and  N5_22
INPUT-LIGAND-PDBQT: REMARK   16  A    between atoms: C13_21  and  C14_23
INPUT-LIGAND-PDBQT: REMARK   17  A    between atoms: C14_23  and  C15_24
INPUT-LIGAND-PDBQT: REMARK   18  A    between atoms: C15_24  and  C16_25
INPUT-LIGAND-PDBQT: REMARK   19  A    between atoms: C16_25  and  O6_27
INPUT-LIGAND-PDBQT: REMARK   20  A    between atoms: C17_28  and  C18_29
INPUT-LIGAND-PDBQT: REMARK   21  A    between atoms: C17_28  and  C19_30
INPUT-LIGAND-PDBQT: REMARK   22  A    between atoms: C20_31  and  O7_32
INPUT-LIGAND-PDBQT: REMARK   23  A    between atoms: C20_31  and  C21_33
INPUT-LIGAND-PDBQT: REMARK   24  A    between atoms: C21_33  and  C22_34
INPUT-LIGAND-PDBQT: REMARK   25  A    between atoms: N6_36  and  C23_37
INPUT-LIGAND-PDBQT: REMARK   26  A    between atoms: C23_37  and  C24_38
INPUT-LIGAND-PDBQT: REMARK   27  A    between atoms: C23_37  and  C42_66
INPUT-LIGAND-PDBQT: REMARK   28  A    between atoms: N7_40  and  C25_41
INPUT-LIGAND-PDBQT: REMARK   29  A    between atoms: C25_41  and  C26_42
INPUT-LIGAND-PDBQT: REMARK   30  A    between atoms: C25_41  and  C27_43
INPUT-LIGAND-PDBQT: REMARK   31  A    between atoms: N8_45  and  C28_46
INPUT-LIGAND-PDBQT: REMARK   32  A    between atoms: C28_46  and  C29_47
INPUT-LIGAND-PDBQT: REMARK   33  A    between atoms: C28_46  and  C32_52
INPUT-LIGAND-PDBQT: REMARK   34  A    between atoms: C29_47  and  C30_48
INPUT-LIGAND-PDBQT: REMARK   35  A    between atoms: C30_48  and  C31_49
INPUT-LIGAND-PDBQT: REMARK   36  A    between atoms: C31_49  and  O12_51
INPUT-LIGAND-PDBQT: REMARK   37  A    between atoms: N9_54  and  C33_55
INPUT-LIGAND-PDBQT: REMARK   38  A    between atoms: C33_55  and  C34_56
INPUT-LIGAND-PDBQT: REMARK   39  A    between atoms: C33_55  and  C41_63
INPUT-LIGAND-PDBQT: REMARK   40  A    between atoms: C34_56  and  C35_57
INPUT-LIGAND-PDBQT: REMARK   41  A    between atoms: C41_63  and  O15_65
INPUT-LIGAND-PDBQT: REMARK   42  A    between atoms: C42_66  and  C43_67
INPUT-LIGAND-PDBQT: REMARK   43  A    between atoms: C42_66  and  C44_68
INPUT-LIGAND-PDBQT: REMARK                            x       y       z     vdW  Elec       q    Type
INPUT-LIGAND-PDBQT: REMARK                         _______ _______ _______ _____ _____    ______ ____
INPUT-LIGAND-PDBQT: ROOT
INPUT-LIGAND-PDBQT: ATOM      1  C21 UNL     1       4.693   1.050   0.788  0.00  0.00    +0.129 C 
INPUT-LIGAND-PDBQT: ENDROOT
INPUT-LIGAND-PDBQT: BRANCH   1   2
INPUT-LIGAND-PDBQT: ATOM      2  C22 UNL     1       4.037   0.237   1.887  0.00  0.00    +0.216 C 
INPUT-LIGAND-PDBQT: ATOM      3  O8  UNL     1       4.059  -0.991   1.915  0.00  0.00    -0.276 OA
INPUT-LIGAND-PDBQT: ATOM      4  N6  UNL     1       3.466   1.008   2.875  0.00  0.00    -0.304 N 
INPUT-LIGAND-PDBQT: ATOM      5  H39 UNL     1       3.230   1.962   2.620  0.00  0.00    +0.149 HD
INPUT-LIGAND-PDBQT: BRANCH   4   6
INPUT-LIGAND-PDBQT: ATOM      6  C23 UNL     1       2.557   0.404   3.853  0.00  0.00    +0.161 C 
INPUT-LIGAND-PDBQT: BRANCH   6   7
INPUT-LIGAND-PDBQT: ATOM      7  C24 UNL     1       1.143   0.577   3.249  0.00  0.00    +0.234 C 
INPUT-LIGAND-PDBQT: ATOM      8  O9  UNL     1       0.843   1.541   2.543  0.00  0.00    -0.274 OA
INPUT-LIGAND-PDBQT: ATOM      9  N7  UNL     1       0.248  -0.406   3.586  0.00  0.00    -0.303 N 
INPUT-LIGAND-PDBQT: ATOM     10  H41 UNL     1       0.532  -1.182   4.178  0.00  0.00    +0.149 HD
INPUT-LIGAND-PDBQT: BRANCH   9  11
INPUT-LIGAND-PDBQT: ATOM     11  C25 UNL     1      -1.130  -0.423   3.114  0.00  0.00    +0.156 C 
INPUT-LIGAND-PDBQT: ATOM     12  C26 UNL     1      -1.212  -0.988   1.702  0.00  0.00    +0.038 C 
INPUT-LIGAND-PDBQT: BRANCH  11  13
INPUT-LIGAND-PDBQT: ATOM     13  C27 UNL     1      -1.945  -1.279   4.106  0.00  0.00    +0.234 C 
INPUT-LIGAND-PDBQT: ATOM     14  O10 UNL     1      -1.405  -1.938   4.998  0.00  0.00    -0.274 OA
INPUT-LIGAND-PDBQT: ATOM     15  N8  UNL     1      -3.315  -1.230   3.934  0.00  0.00    -0.302 N 
INPUT-LIGAND-PDBQT: ATOM     16  H46 UNL     1      -3.654  -0.929   3.026  0.00  0.00    +0.150 HD
INPUT-LIGAND-PDBQT: BRANCH  15  17
INPUT-LIGAND-PDBQT: ATOM     17  C28 UNL     1      -4.182  -2.174   4.631  0.00  0.00    +0.159 C 
INPUT-LIGAND-PDBQT: BRANCH  17  18
INPUT-LIGAND-PDBQT: ATOM     18  C32 UNL     1      -4.617  -3.268   3.631  0.00  0.00    +0.234 C 
INPUT-LIGAND-PDBQT: ATOM     19  O13 UNL     1      -4.627  -3.072   2.417  0.00  0.00    -0.274 OA
INPUT-LIGAND-PDBQT: ATOM     20  N9  UNL     1      -5.040  -4.438   4.214  0.00  0.00    -0.301 N 
INPUT-LIGAND-PDBQT: ATOM     21  H53 UNL     1      -5.154  -4.471   5.219  0.00  0.00    +0.150 HD
INPUT-LIGAND-PDBQT: BRANCH  20  22
INPUT-LIGAND-PDBQT: ATOM     22  C33 UNL     1      -5.756  -5.464   3.445  0.00  0.00    +0.186 C 
INPUT-LIGAND-PDBQT: BRANCH  22  23
INPUT-LIGAND-PDBQT: ATOM     23  C41 UNL     1      -7.202  -5.409   3.923  0.00  0.00    +0.326 C 
INPUT-LIGAND-PDBQT: ATOM     24  O14 UNL     1      -7.557  -5.233   5.079  0.00  0.00    -0.249 OA
INPUT-LIGAND-PDBQT: BRANCH  23  25
INPUT-LIGAND-PDBQT: ATOM     25  O15 UNL     1      -8.104  -5.619   2.945  0.00  0.00    -0.479 OA
INPUT-LIGAND-PDBQT: ATOM     26  H62 UNL     1      -8.967  -5.486   3.389  0.00  0.00    +0.295 HD
INPUT-LIGAND-PDBQT: ENDBRANCH  23  25
INPUT-LIGAND-PDBQT: ENDBRANCH  22  23
INPUT-LIGAND-PDBQT: BRANCH  22  27
INPUT-LIGAND-PDBQT: ATOM     27  C34 UNL     1      -5.215  -6.874   3.709  0.00  0.00    +0.069 C 
INPUT-LIGAND-PDBQT: BRANCH  27  28
INPUT-LIGAND-PDBQT: ATOM     28  C35 UNL     1      -3.793  -7.071   3.240  0.00  0.00    -0.045 A 
INPUT-LIGAND-PDBQT: ATOM     29  C36 UNL     1      -3.497  -7.150   1.872  0.00  0.00    +0.004 A 
INPUT-LIGAND-PDBQT: ATOM     30  C37 UNL     1      -2.180  -7.330   1.443  0.00  0.00    +0.000 A 
INPUT-LIGAND-PDBQT: ATOM     31  C38 UNL     1      -1.149  -7.436   2.374  0.00  0.00    +0.000 A 
INPUT-LIGAND-PDBQT: ATOM     32  C39 UNL     1      -1.431  -7.358   3.736  0.00  0.00    +0.000 A 
INPUT-LIGAND-PDBQT: ATOM     33  C40 UNL     1      -2.747  -7.178   4.168  0.00  0.00    +0.004 A 
INPUT-LIGAND-PDBQT: ENDBRANCH  27  28
INPUT-LIGAND-PDBQT: ENDBRANCH  22  27
INPUT-LIGAND-PDBQT: ENDBRANCH  20  22
INPUT-LIGAND-PDBQT: ENDBRANCH  17  18
INPUT-LIGAND-PDBQT: BRANCH  17  34
INPUT-LIGAND-PDBQT: ATOM     34  C29 UNL     1      -5.384  -1.483   5.301  0.00  0.00    +0.043 C 
INPUT-LIGAND-PDBQT: BRANCH  34  35
INPUT-LIGAND-PDBQT: ATOM     35  C30 UNL     1      -6.156  -0.481   4.440  0.00  0.00    +0.123 C 
INPUT-LIGAND-PDBQT: BRANCH  35  36
INPUT-LIGAND-PDBQT: ATOM     36  C31 UNL     1      -6.829  -1.137   3.270  0.00  0.00    +0.305 C 
INPUT-LIGAND-PDBQT: ATOM     37  O11 UNL     1      -7.690  -1.997   3.329  0.00  0.00    -0.251 OA
INPUT-LIGAND-PDBQT: BRANCH  36  38
INPUT-LIGAND-PDBQT: ATOM     38  O12 UNL     1      -6.327  -0.716   2.095  0.00  0.00    -0.481 OA
INPUT-LIGAND-PDBQT: ATOM     39  H52 UNL     1      -6.707  -1.331   1.433  0.00  0.00    +0.295 HD
INPUT-LIGAND-PDBQT: ENDBRANCH  36  38
INPUT-LIGAND-PDBQT: ENDBRANCH  35  36
INPUT-LIGAND-PDBQT: ENDBRANCH  34  35
INPUT-LIGAND-PDBQT: ENDBRANCH  17  34
INPUT-LIGAND-PDBQT: ENDBRANCH  15  17
INPUT-LIGAND-PDBQT: ENDBRANCH  11  13
INPUT-LIGAND-PDBQT: ENDBRANCH   9  11
INPUT-LIGAND-PDBQT: ENDBRANCH   6   7
INPUT-LIGAND-PDBQT: BRANCH   6  40
INPUT-LIGAND-PDBQT: ATOM     40  C42 UNL     1       2.698   1.102   5.225  0.00  0.00    +0.012 C 
INPUT-LIGAND-PDBQT: ATOM     41  C43 UNL     1       4.116   0.913   5.782  0.00  0.00    +0.009 C 
INPUT-LIGAND-PDBQT: ATOM     42  C44 UNL     1       1.681   0.608   6.253  0.00  0.00    +0.009 C 
INPUT-LIGAND-PDBQT: ENDBRANCH   6  40
INPUT-LIGAND-PDBQT: ENDBRANCH   4   6
INPUT-LIGAND-PDBQT: ENDBRANCH   1   2
INPUT-LIGAND-PDBQT: BRANCH   1  43
INPUT-LIGAND-PDBQT: ATOM     43  C20 UNL     1       4.844   0.207  -0.478  0.00  0.00    +0.143 C 
INPUT-LIGAND-PDBQT: BRANCH  43  44
INPUT-LIGAND-PDBQT: ATOM     44  O7  UNL     1       5.858  -0.778  -0.287  0.00  0.00    -0.389 OA
INPUT-LIGAND-PDBQT: ATOM     45  H36 UNL     1       5.522  -1.375   0.414  0.00  0.00    +0.210 HD
INPUT-LIGAND-PDBQT: ENDBRANCH  43  44
INPUT-LIGAND-PDBQT: BRANCH  43  46
INPUT-LIGAND-PDBQT: ATOM     46  C5  UNL     1       5.142   1.055  -1.749  0.00  0.00    +0.102 C 
INPUT-LIGAND-PDBQT: BRANCH  46  47
INPUT-LIGAND-PDBQT: ATOM     47  N1  UNL     1       4.008   1.939  -2.112  0.00  0.00    -0.308 N 
INPUT-LIGAND-PDBQT: ATOM     48  C6  UNL     1       2.718   1.522  -2.355  0.00  0.00    +0.234 C 
INPUT-LIGAND-PDBQT: ATOM     49  O1  UNL     1       2.324   0.385  -2.116  0.00  0.00    -0.274 OA
INPUT-LIGAND-PDBQT: ATOM     50  H11 UNL     1       4.254   2.890  -2.396  0.00  0.00    +0.149 HD
INPUT-LIGAND-PDBQT: BRANCH  48  51
INPUT-LIGAND-PDBQT: ATOM     51  C7  UNL     1       1.774   2.600  -2.960  0.00  0.00    +0.168 C 
INPUT-LIGAND-PDBQT: BRANCH  51  52
INPUT-LIGAND-PDBQT: ATOM     52  N3  UNL     1       0.434   2.012  -3.068  0.00  0.00    -0.302 N 
INPUT-LIGAND-PDBQT: ATOM     53  C10 UNL     1      -0.062   1.578  -4.279  0.00  0.00    +0.234 C 
INPUT-LIGAND-PDBQT: ATOM     54  O3  UNL     1       0.503   1.817  -5.350  0.00  0.00    -0.274 OA
INPUT-LIGAND-PDBQT: ATOM     55  H17 UNL     1       0.099   1.538  -2.236  0.00  0.00    +0.150 HD
INPUT-LIGAND-PDBQT: BRANCH  53  56
INPUT-LIGAND-PDBQT: ATOM     56  C11 UNL     1      -1.394   0.787  -4.207  0.00  0.00    +0.161 C 
INPUT-LIGAND-PDBQT: BRANCH  56  57
INPUT-LIGAND-PDBQT: ATOM     57  N4  UNL     1      -2.031   0.862  -5.528  0.00  0.00    -0.302 N 
INPUT-LIGAND-PDBQT: ATOM     58  C12 UNL     1      -2.886   1.895  -5.842  0.00  0.00    +0.230 C 
INPUT-LIGAND-PDBQT: ATOM     59  O4  UNL     1      -3.250   2.747  -5.027  0.00  0.00    -0.274 OA
INPUT-LIGAND-PDBQT: ATOM     60  H19 UNL     1      -1.507   0.442  -6.291  0.00  0.00    +0.150 HD
INPUT-LIGAND-PDBQT: BRANCH  58  61
INPUT-LIGAND-PDBQT: ATOM     61  C13 UNL     1      -3.426   1.876  -7.293  0.00  0.00    +0.138 C 
INPUT-LIGAND-PDBQT: BRANCH  61  62
INPUT-LIGAND-PDBQT: ATOM     62  N5  UNL     1      -4.831   2.349  -7.270  0.00  0.00    -0.320 NA
INPUT-LIGAND-PDBQT: ATOM     63  H21 UNL     1      -4.835   3.251  -6.784  0.00  0.00    +0.119 HD
INPUT-LIGAND-PDBQT: ATOM     64  H22 UNL     1      -5.362   1.735  -6.649  0.00  0.00    +0.119 HD
INPUT-LIGAND-PDBQT: ENDBRANCH  61  62
INPUT-LIGAND-PDBQT: BRANCH  61  65
INPUT-LIGAND-PDBQT: ATOM     65  C14 UNL     1      -2.619   2.795  -8.221  0.00  0.00    +0.039 C 
INPUT-LIGAND-PDBQT: BRANCH  65  66
INPUT-LIGAND-PDBQT: ATOM     66  C15 UNL     1      -1.223   2.280  -8.567  0.00  0.00    +0.122 C 
INPUT-LIGAND-PDBQT: BRANCH  66  67
INPUT-LIGAND-PDBQT: ATOM     67  C16 UNL     1      -1.234   0.903  -9.167  0.00  0.00    +0.305 C 
INPUT-LIGAND-PDBQT: ATOM     68  O5  UNL     1      -0.566  -0.045  -8.781  0.00  0.00    -0.251 OA
INPUT-LIGAND-PDBQT: BRANCH  67  69
INPUT-LIGAND-PDBQT: ATOM     69  O6  UNL     1      -2.066   0.778 -10.219  0.00  0.00    -0.481 OA
INPUT-LIGAND-PDBQT: ATOM     70  H27 UNL     1      -1.950  -0.144 -10.526  0.00  0.00    +0.295 HD
INPUT-LIGAND-PDBQT: ENDBRANCH  67  69
INPUT-LIGAND-PDBQT: ENDBRANCH  66  67
INPUT-LIGAND-PDBQT: ENDBRANCH  65  66
INPUT-LIGAND-PDBQT: ENDBRANCH  61  65
INPUT-LIGAND-PDBQT: ENDBRANCH  58  61
INPUT-LIGAND-PDBQT: ENDBRANCH  56  57
INPUT-LIGAND-PDBQT: BRANCH  56  71
INPUT-LIGAND-PDBQT: ATOM     71  C17 UNL     1      -1.251  -0.693  -3.786  0.00  0.00    +0.012 C 
INPUT-LIGAND-PDBQT: ATOM     72  C18 UNL     1      -1.133  -0.865  -2.269  0.00  0.00    +0.009 C 
INPUT-LIGAND-PDBQT: ATOM     73  C19 UNL     1      -0.109  -1.426  -4.491  0.00  0.00    +0.009 C 
INPUT-LIGAND-PDBQT: ENDBRANCH  56  71
INPUT-LIGAND-PDBQT: ENDBRANCH  53  56
INPUT-LIGAND-PDBQT: ENDBRANCH  51  52
INPUT-LIGAND-PDBQT: BRANCH  51  74
INPUT-LIGAND-PDBQT: ATOM     74  C8  UNL     1       1.708   3.861  -2.102  0.00  0.00    +0.127 C 
INPUT-LIGAND-PDBQT: BRANCH  74  75
INPUT-LIGAND-PDBQT: ATOM     75  C9  UNL     1       2.728   4.835  -2.626  0.00  0.00    +0.213 C 
INPUT-LIGAND-PDBQT: ATOM     76  N2  UNL     1       2.261   5.822  -3.441  0.00  0.00    -0.329 N 
INPUT-LIGAND-PDBQT: ATOM     77  O2  UNL     1       3.929   4.708  -2.406  0.00  0.00    -0.276 OA
INPUT-LIGAND-PDBQT: ATOM     78  H15 UNL     1       2.945   6.430  -3.877  0.00  0.00    +0.145 HD
INPUT-LIGAND-PDBQT: ATOM     79  H16 UNL     1       1.312   5.848  -3.792  0.00  0.00    +0.145 HD
INPUT-LIGAND-PDBQT: ENDBRANCH  74  75
INPUT-LIGAND-PDBQT: ENDBRANCH  51  74
INPUT-LIGAND-PDBQT: ENDBRANCH  48  51
INPUT-LIGAND-PDBQT: ENDBRANCH  46  47
INPUT-LIGAND-PDBQT: BRANCH  46  80
INPUT-LIGAND-PDBQT: ATOM     80  C4  UNL     1       6.412   1.949  -1.681  0.00  0.00    +0.028 C 
INPUT-LIGAND-PDBQT: BRANCH  80  82
INPUT-LIGAND-PDBQT: ATOM     81  C1  UNL     1       7.953   0.135  -2.671  0.00  0.00    +0.007 C 
INPUT-LIGAND-PDBQT: ATOM     82  C2  UNL     1       7.826   1.331  -1.733  0.00  0.00    -0.015 C 
INPUT-LIGAND-PDBQT: ATOM     83  C3  UNL     1       8.425   1.041  -0.358  0.00  0.00    +0.007 C 
INPUT-LIGAND-PDBQT: ENDBRANCH  80  82
INPUT-LIGAND-PDBQT: ENDBRANCH  46  80
INPUT-LIGAND-PDBQT: ENDBRANCH  43  46
INPUT-LIGAND-PDBQT: ENDBRANCH   1  43
INPUT-LIGAND-PDBQT: TORSDOF 36


    FINAL DOCKED STATE:
    ________________________


Run:   1 / 20
Time taken for this run:   7.478s

DOCKED: MODEL        1
DOCKED: USER    Run = 1
DOCKED: USER
DOCKED: USER    Estimated Free Energy of Binding    = +10.74 kcal/mol  [=(1)+(2)+(3)-(4)]
DOCKED: USER
DOCKED: USER    (1) Final Intermolecular Energy     =  +0.00 kcal/mol
DOCKED: USER        vdW + Hbond + desolv Energy     =  +0.00 kcal/mol
DOCKED: USER        Electrostatic Energy            =  +0.00 kcal/mol
DOCKED: USER        Moving Ligand-Fixed Receptor    =  +0.00 kcal/mol
DOCKED: USER        Moving Ligand-Moving Receptor   =  +0.00 kcal/mol
DOCKED: USER    (2) Final Total Internal Energy     = -33.28 kcal/mol
DOCKED: USER    (3) Torsional Free Energy           = +10.74 kcal/mol
DOCKED: USER    (4) Unbound System's Energy         = -33.28 kcal/mol
DOCKED: USER
DOCKED: USER
DOCKED: REMARK  Name = ligands/ligand_10.pdb
DOCKED: REMARK  43 active torsions:
DOCKED: REMARK  status: ('A' for Active; 'I' for Inactive)
DOCKED: REMARK    1  A    between atoms: C1_1  and  C2_2
DOCKED: REMARK    2  A    between atoms: C2_2  and  C3_3
DOCKED: REMARK    3  A    between atoms: C2_2  and  C4_4
DOCKED: REMARK    4  A    between atoms: C4_4  and  C5_5
DOCKED: REMARK    5  A    between atoms: C5_5  and  N1_6
DOCKED: REMARK    6  A    between atoms: C5_5  and  C20_31
DOCKED: REMARK    7  A    between atoms: C6_7  and  C7_9
DOCKED: REMARK    8  A    between atoms: C7_9  and  C8_10
DOCKED: REMARK    9  A    between atoms: C7_9  and  N3_14
DOCKED: REMARK   10  A    between atoms: C8_10  and  C9_11
DOCKED: REMARK   11  A    between atoms: C10_15  and  C11_17
DOCKED: REMARK   12  A    between atoms: C11_17  and  N4_18
DOCKED: REMARK   13  A    between atoms: C11_17  and  C17_28
DOCKED: REMARK   14  A    between atoms: C12_19  and  C13_21
DOCKED: REMARK   15  A    between atoms: C13_21  and  N5_22
DOCKED: REMARK   16  A    between atoms: C13_21  and  C14_23
DOCKED: REMARK   17  A    between atoms: C14_23  and  C15_24
DOCKED: REMARK   18  A    between atoms: C15_24  and  C16_25
DOCKED: REMARK   19  A    between atoms: C16_25  and  O6_27
DOCKED: REMARK   20  A    between atoms: C17_28  and  C18_29
DOCKED: REMARK   21  A    between atoms: C17_28  and  C19_30
DOCKED: REMARK   22  A    between atoms: C20_31  and  O7_32
DOCKED: REMARK   23  A    between atoms: C20_31  and  C21_33
DOCKED: REMARK   24  A    between atoms: C21_33  and  C22_34
DOCKED: REMARK   25  A    between atoms: N6_36  and  C23_37
DOCKED: REMARK   26  A    between atoms: C23_37  and  C24_38
DOCKED: REMARK   27  A    between atoms: C23_37  and  C42_66
DOCKED: REMARK   28  A    between atoms: N7_40  and  C25_41
DOCKED: REMARK   29  A    between atoms: C25_41  and  C26_42
DOCKED: REMARK   30  A    between atoms: C25_41  and  C27_43
DOCKED: REMARK   31  A    between atoms: N8_45  and  C28_46
DOCKED: REMARK   32  A    between atoms: C28_46  and  C29_47
DOCKED: REMARK   33  A    between atoms: C28_46  and  C32_52
DOCKED: REMARK   34  A    between atoms: C29_47  and  C30_48
DOCKED: REMARK   35  A    between atoms: C30_48  and  C31_49
DOCKED: REMARK   36  A    between atoms: C31_49  and  O12_51
DOCKED: REMARK   37  A    between atoms: N9_54  and  C33_55
DOCKED: REMARK   38  A    between atoms: C33_55  and  C34_56
DOCKED: REMARK   39  A    between atoms: C33_55  and  C41_63
DOCKED: REMARK   40  A    between atoms: C34_56  and  C35_57
DOCKED: REMARK   41  A    between atoms: C41_63  and  O15_65
DOCKED: REMARK   42  A    between atoms: C42_66  and  C43_67
DOCKED: REMARK   43  A    between atoms: C42_66  and  C44_68
DOCKED: REMARK                            x       y       z     vdW  Elec       q    Type
DOCKED: REMARK                         _______ _______ _______ _____ _____    ______ ____
DOCKED: USER                              x       y       z     vdW  Elec       q    Type
DOCKED: USER                           _______ _______ _______ _____ _____    ______ ____
DOCKED: ROOT
DOCKED: ATOM      1  C21 UNL     1       5.367  -1.838  -3.956 +0.00 +0.00    +0.129 C  
DOCKED: ENDROOT
DOCKED: BRANCH   1   2
DOCKED: ATOM      2  C22 UNL     1       6.233  -2.695  -3.053 +0.00 +0.00    +0.216 C  
DOCKED: ATOM      3  O8  UNL     1       5.802  -3.254  -2.047 +0.00 -0.00    -0.276 OA 
DOCKED: ATOM      4  N6  UNL     1       7.529  -2.829  -3.499 +0.00 -0.00    -0.304 N  
DOCKED: ATOM      5  H39 UNL     1       7.862  -2.110  -4.134 +0.00 +0.00    +0.149 HD 
DOCKED: BRANCH   4   6
DOCKED: ATOM      6  C23 UNL     1       8.562  -3.379  -2.617 +0.00 +0.00    +0.161 C  
DOCKED: BRANCH   6   7
DOCKED: ATOM      7  C24 UNL     1       9.895  -2.804  -3.151 +0.00 +0.00    +0.234 C  
DOCKED: ATOM      8  O9  UNL     1       9.940  -1.796  -3.859 +0.00 -0.00    -0.274 OA 
DOCKED: ATOM      9  N7  UNL     1      11.013  -3.518  -2.801 +0.00 -0.00    -0.303 N  
DOCKED: ATOM     10  H41 UNL     1      10.934  -4.349  -2.222 +0.00 +0.00    +0.149 HD 
DOCKED: BRANCH   9  11
DOCKED: ATOM     11  C25 UNL     1      12.360  -3.135  -3.203 +0.00 +0.00    +0.156 C  
DOCKED: ATOM     12  C26 UNL     1      13.380  -3.564  -2.156 +0.00 +0.00    +0.038 C  
DOCKED: BRANCH  11  13
DOCKED: ATOM     13  C27 UNL     1      12.641  -3.804  -4.564 +0.00 +0.00    +0.234 C  
DOCKED: ATOM     14  O10 UNL     1      13.709  -4.373  -4.804 +0.00 -0.00    -0.274 OA 
DOCKED: ATOM     15  N8  UNL     1      11.604  -3.740  -5.475 +0.00 -0.00    -0.302 N  
DOCKED: ATOM     16  H46 UNL     1      10.906  -3.018  -5.326 +0.00 +0.00    +0.150 HD 
DOCKED: BRANCH  15  17
DOCKED: ATOM     17  C28 UNL     1      11.822  -4.106  -6.870 +0.00 +0.00    +0.159 C  
DOCKED: BRANCH  17  18
DOCKED: ATOM     18  C32 UNL     1      12.532  -2.931  -7.578 +0.00 +0.00    +0.234 C  
DOCKED: ATOM     19  O13 UNL     1      13.597  -3.080  -8.175 +0.00 -0.00    -0.274 OA 
DOCKED: ATOM     20  N9  UNL     1      11.907  -1.716  -7.433 +0.00 -0.00    -0.301 N  
DOCKED: ATOM     21  H53 UNL     1      11.123  -1.641  -6.798 +0.00 +0.00    +0.150 HD 
DOCKED: BRANCH  20  22
DOCKED: ATOM     22  C33 UNL     1      12.582  -0.459  -7.783 +0.00 +0.00    +0.186 C  
DOCKED: BRANCH  22  23
DOCKED: ATOM     23  C41 UNL     1      12.132   0.558  -6.742 +0.00 +0.00    +0.326 C  
DOCKED: ATOM     24  O14 UNL     1      12.556   1.700  -6.642 +0.00 -0.00    -0.249 OA 
DOCKED: BRANCH  23  25
DOCKED: ATOM     25  O15 UNL     1      11.222   0.078  -5.873 +0.00 -0.00    -0.479 OA 
DOCKED: ATOM     26  H62 UNL     1      10.439  -0.107  -6.431 +0.00 +0.00    +0.295 HD 
DOCKED: ENDBRANCH  23  25
DOCKED: ENDBRANCH  22  23
DOCKED: BRANCH  22  27
DOCKED: ATOM     27  C34 UNL     1      12.174   0.056  -9.168 +0.00 +0.00    +0.069 C  
DOCKED: BRANCH  27  28
DOCKED: ATOM     28  C35 UNL     1      11.110  -0.784  -9.833 +0.00 -0.00    -0.045 A  
DOCKED: ATOM     29  C36 UNL     1      11.455  -1.941 -10.546 +0.00 +0.00    +0.004 A  
DOCKED: ATOM     30  C37 UNL     1      10.467  -2.715 -11.158 +0.00 +0.00    +0.000 A  
DOCKED: ATOM     31  C38 UNL     1       9.128  -2.341 -11.067 +0.00 +0.00    +0.000 A  
DOCKED: ATOM     32  C39 UNL     1       8.773  -1.194 -10.361 +0.00 +0.00    +0.000 A  
DOCKED: ATOM     33  C40 UNL     1       9.759  -0.417  -9.748 +0.00 +0.00    +0.004 A  
DOCKED: ENDBRANCH  27  28
DOCKED: ENDBRANCH  22  27
DOCKED: ENDBRANCH  20  22
DOCKED: ENDBRANCH  17  18
DOCKED: BRANCH  17  34
DOCKED: ATOM     34  C29 UNL     1      10.518  -4.514  -7.580 +0.00 +0.00    +0.043 C  
DOCKED: BRANCH  34  35
DOCKED: ATOM     35  C30 UNL     1       9.530  -3.386  -7.885 +0.00 +0.00    +0.123 C  
DOCKED: BRANCH  35  36
DOCKED: ATOM     36  C31 UNL     1       9.109  -2.649  -6.648 +0.00 +0.00    +0.305 C  
DOCKED: ATOM     37  O11 UNL     1       8.507  -3.124  -5.701 +0.00 -0.00    -0.251 OA 
DOCKED: BRANCH  36  38
DOCKED: ATOM     38  O12 UNL     1       9.414  -1.340  -6.709 +0.00 -0.00    -0.481 OA 
DOCKED: ATOM     39  H52 UNL     1       9.276  -1.014  -5.795 +0.00 +0.00    +0.295 HD 
DOCKED: ENDBRANCH  36  38
DOCKED: ENDBRANCH  35  36
DOCKED: ENDBRANCH  34  35
DOCKED: ENDBRANCH  17  34
DOCKED: ENDBRANCH  15  17
DOCKED: ENDBRANCH  11  13
DOCKED: ENDBRANCH   9  11
DOCKED: ENDBRANCH   6   7
DOCKED: BRANCH   6  40
DOCKED: ATOM     40  C42 UNL     1       8.535  -4.925  -2.652 +0.00 +0.00    +0.012 C  
DOCKED: ATOM     41  C43 UNL     1       7.903  -5.423  -3.959 +0.00 +0.00    +0.009 C  
DOCKED: ATOM     42  C44 UNL     1       7.790  -5.535  -1.466 +0.00 +0.00    +0.009 C  
DOCKED: ENDBRANCH   6  40
DOCKED: ENDBRANCH   4   6
DOCKED: ENDBRANCH   1   2
DOCKED: BRANCH   1  43
DOCKED: ATOM     43  C20 UNL     1       6.017  -1.694  -5.332 +0.00 +0.00    +0.143 C  
DOCKED: BRANCH  43  44
DOCKED: ATOM     44  O7  UNL     1       7.108  -0.778  -5.261 +0.00 -0.00    -0.389 OA 
DOCKED: ATOM     45  H36 UNL     1       7.727  -1.043  -5.973 +0.00 +0.00    +0.210 HD 
DOCKED: ENDBRANCH  43  44
DOCKED: BRANCH  43  46
DOCKED: ATOM     46  C5  UNL     1       5.015  -1.260  -6.442 +0.00 +0.00    +0.102 C  
DOCKED: BRANCH  46  47
DOCKED: ATOM     47  N1  UNL     1       5.277   0.116  -6.928 +0.00 -0.00    -0.308 N  
DOCKED: ATOM     48  C6  UNL     1       6.425   0.531  -7.566 +0.00 +0.00    +0.234 C  
DOCKED: ATOM     49  O1  UNL     1       7.287  -0.244  -7.968 +0.00 -0.00    -0.274 OA 
DOCKED: ATOM     50  H11 UNL     1       4.646   0.842  -6.582 +0.00 +0.00    +0.149 HD 
DOCKED: BRANCH  48  51
DOCKED: ATOM     51  C7  UNL     1       6.564   2.069  -7.750 +0.00 +0.00    +0.168 C  
DOCKED: BRANCH  51  52
DOCKED: ATOM     52  N3  UNL     1       6.786   2.661  -6.426 +0.00 -0.00    -0.302 N  
DOCKED: ATOM     53  C10 UNL     1       5.733   2.953  -5.586 +0.00 +0.00    +0.234 C  
DOCKED: ATOM     54  O3  UNL     1       4.557   2.905  -5.958 +0.00 -0.00    -0.274 OA 
DOCKED: ATOM     55  H17 UNL     1       7.673   2.430  -5.990 +0.00 +0.00    +0.150 HD 
DOCKED: BRANCH  53  56
DOCKED: ATOM     56  C11 UNL     1       6.126   3.369  -4.145 +0.00 +0.00    +0.161 C  
DOCKED: BRANCH  56  57
DOCKED: ATOM     57  N4  UNL     1       7.076   2.372  -3.635 +0.00 -0.00    -0.302 N  
DOCKED: ATOM     58  C12 UNL     1       7.038   1.969  -2.318 +0.00 +0.00    +0.230 C  
DOCKED: ATOM     59  O4  UNL     1       6.296   2.478  -1.474 +0.00 -0.00    -0.274 OA 
DOCKED: ATOM     60  H19 UNL     1       7.415   1.701  -4.318 +0.00 +0.00    +0.150 HD 
DOCKED: BRANCH  58  61
DOCKED: ATOM     61  C13 UNL     1       8.056   0.864  -1.945 +0.00 +0.00    +0.138 C  
DOCKED: BRANCH  61  62
DOCKED: ATOM     62  N5  UNL     1       7.933  -0.232  -2.936 +0.00 -0.00    -0.320 NA 
DOCKED: ATOM     63  H21 UNL     1       8.873  -0.412  -3.301 +0.00 +0.00    +0.119 HD 
DOCKED: ATOM     64  H22 UNL     1       7.422   0.128  -3.745 +0.00 +0.00    +0.119 HD 
DOCKED: ENDBRANCH  61  62
DOCKED: BRANCH  61  65
DOCKED: ATOM     65  C14 UNL     1       9.502   1.380  -1.968 +0.00 +0.00    +0.039 C  
DOCKED: BRANCH  65  66
DOCKED: ATOM     66  C15 UNL     1      10.250   1.114  -3.273 +0.00 +0.00    +0.122 C  
DOCKED: BRANCH  66  67
DOCKED: ATOM     67  C16 UNL     1       9.522   1.622  -4.484 +0.00 +0.00    +0.305 C  
DOCKED: ATOM     68  O5  UNL     1       9.473   2.788  -4.847 +0.00 -0.00    -0.251 OA 
DOCKED: BRANCH  67  69
DOCKED: ATOM     69  O6  UNL     1       8.886   0.657  -5.177 +0.00 -0.00    -0.481 OA 
DOCKED: ATOM     70  H27 UNL     1       9.156  -0.181  -4.751 +0.00 +0.00    +0.295 HD 
DOCKED: ENDBRANCH  67  69
DOCKED: ENDBRANCH  66  67
DOCKED: ENDBRANCH  65  66
DOCKED: ENDBRANCH  61  65
DOCKED: ENDBRANCH  58  61
DOCKED: ENDBRANCH  56  57
DOCKED: BRANCH  56  71
DOCKED: ATOM     71  C17 UNL     1       6.743   4.781  -4.020 +0.00 +0.00    +0.012 C  
DOCKED: ATOM     72  C18 UNL     1       6.055   5.631  -2.947 +0.00 +0.00    +0.009 C  
DOCKED: ATOM     73  C19 UNL     1       6.801   5.546  -5.343 +0.00 +0.00    +0.009 C  
DOCKED: ENDBRANCH  56  71
DOCKED: ENDBRANCH  53  56
DOCKED: ENDBRANCH  51  52
DOCKED: BRANCH  51  74
DOCKED: ATOM     74  C8  UNL     1       7.722   2.441  -8.673 +0.00 +0.00    +0.127 C  
DOCKED: BRANCH  74  75
DOCKED: ATOM     75  C9  UNL     1       8.933   2.703  -7.820 +0.00 +0.00    +0.213 C  
DOCKED: ATOM     76  N2  UNL     1       9.548   1.609  -7.289 +0.00 -0.00    -0.329 N  
DOCKED: ATOM     77  O2  UNL     1       9.306   3.839  -7.542 +0.00 -0.00    -0.276 OA 
DOCKED: ATOM     78  H15 UNL     1      10.308   1.771  -6.638 +0.00 +0.00    +0.145 HD 
DOCKED: ATOM     79  H16 UNL     1       9.162   0.675  -7.344 +0.00 +0.00    +0.145 HD 
DOCKED: ENDBRANCH  74  75
DOCKED: ENDBRANCH  51  74
DOCKED: ENDBRANCH  48  51
DOCKED: ENDBRANCH  46  47
DOCKED: BRANCH  46  80
DOCKED: ATOM     80  C4  UNL     1       4.954  -2.180  -7.694 +0.00 +0.00    +0.028 C  
DOCKED: BRANCH  80  82
DOCKED: ATOM     81  C1  UNL     1       4.202  -4.242  -6.342 +0.00 +0.00    +0.007 C  
DOCKED: ATOM     82  C2  UNL     1       4.965  -3.718  -7.554 +0.00 -0.00    -0.015 C  
DOCKED: ATOM     83  C3  UNL     1       6.356  -4.339  -7.662 +0.00 +0.00    +0.007 C  
DOCKED: ENDBRANCH  80  82
DOCKED: ENDBRANCH  46  80
DOCKED: ENDBRANCH  43  46
DOCKED: ENDBRANCH   1  43
DOCKED: TORSDOF 36
DOCKED: TER
DOCKED: ENDMDL
________________________________________________________________________________


    FINAL DOCKED STATE:
    ________________________


Run:   2 / 20
Time taken for this run:   7.478s

DOCKED: MODEL        2
DOCKED: USER    Run = 2
DOCKED: USER
DOCKED: USER    Estimated Free Energy of Binding    = +10.74 kcal/mol  [=(1)+(2)+(3)-(4)]
DOCKED: USER
DOCKED: USER    (1) Final Intermolecular Energy     =  +0.00 kcal/mol
DOCKED: USER        vdW + Hbond + desolv Energy     =  +0.00 kcal/mol
DOCKED: USER        Electrostatic Energy            =  +0.00 kcal/mol
DOCKED: USER        Moving Ligand-Fixed Receptor    =  +0.00 kcal/mol
DOCKED: USER        Moving Ligand-Moving Receptor   =  +0.00 kcal/mol
DOCKED: USER    (2) Final Total Internal Energy     = -30.86 kcal/mol
DOCKED: USER    (3) Torsional Free Energy           = +10.74 kcal/mol
DOCKED: USER    (4) Unbound System's Energy         = -30.86 kcal/mol
DOCKED: USER
DOCKED: USER
DOCKED: REMARK  Name = ligands/ligand_10.pdb
DOCKED: REMARK  43 active torsions:
DOCKED: REMARK  status: ('A' for Active; 'I' for Inactive)
DOCKED: REMARK    1  A    between atoms: C1_1  and  C2_2
DOCKED: REMARK    2  A    between atoms: C2_2  and  C3_3
DOCKED: REMARK    3  A    between atoms: C2_2  and  C4_4
DOCKED: REMARK    4  A    between atoms: C4_4  and  C5_5
DOCKED: REMARK    5  A    between atoms: C5_5  and  N1_6
DOCKED: REMARK    6  A    between atoms: C5_5  and  C20_31
DOCKED: REMARK    7  A    between atoms: C6_7  and  C7_9
DOCKED: REMARK    8  A    between atoms: C7_9  and  C8_10
DOCKED: REMARK    9  A    between atoms: C7_9  and  N3_14
DOCKED: REMARK   10  A    between atoms: C8_10  and  C9_11
DOCKED: REMARK   11  A    between atoms: C10_15  and  C11_17
DOCKED: REMARK   12  A    between atoms: C11_17  and  N4_18
DOCKED: REMARK   13  A    between atoms: C11_17  and  C17_28
DOCKED: REMARK   14  A    between atoms: C12_19  and  C13_21
DOCKED: REMARK   15  A    between atoms: C13_21  and  N5_22
DOCKED: REMARK   16  A    between atoms: C13_21  and  C14_23
DOCKED: REMARK   17  A    between atoms: C14_23  and  C15_24
DOCKED: REMARK   18  A    between atoms: C15_24  and  C16_25
DOCKED: REMARK   19  A    between atoms: C16_25  and  O6_27
DOCKED: REMARK   20  A    between atoms: C17_28  and  C18_29
DOCKED: REMARK   21  A    between atoms: C17_28  and  C19_30
DOCKED: REMARK   22  A    between atoms: C20_31  and  O7_32
DOCKED: REMARK   23  A    between atoms: C20_31  and  C21_33
DOCKED: REMARK   24  A    between atoms: C21_33  and  C22_34
DOCKED: REMARK   25  A    between atoms: N6_36  and  C23_37
DOCKED: REMARK   26  A    between atoms: C23_37  and  C24_38
DOCKED: REMARK   27  A    between atoms: C23_37  and  C42_66
DOCKED: REMARK   28  A    between atoms: N7_40  and  C25_41
DOCKED: REMARK   29  A    between atoms: C25_41  and  C26_42
DOCKED: REMARK   30  A    between atoms: C25_41  and  C27_43
DOCKED: REMARK   31  A    between atoms: N8_45  and  C28_46
DOCKED: REMARK   32  A    between atoms: C28_46  and  C29_47
DOCKED: REMARK   33  A    between atoms: C28_46  and  C32_52
DOCKED: REMARK   34  A    between atoms: C29_47  and  C30_48
DOCKED: REMARK   35  A    between atoms: C30_48  and  C31_49
DOCKED: REMARK   36  A    between atoms: C31_49  and  O12_51
DOCKED: REMARK   37  A    between atoms: N9_54  and  C33_55
DOCKED: REMARK   38  A    between atoms: C33_55  and  C34_56
DOCKED: REMARK   39  A    between atoms: C33_55  and  C41_63
DOCKED: REMARK   40  A    between atoms: C34_56  and  C35_57
DOCKED: REMARK   41  A    between atoms: C41_63  and  O15_65
DOCKED: REMARK   42  A    between atoms: C42_66  and  C43_67
DOCKED: REMARK   43  A    between atoms: C42_66  and  C44_68
DOCKED: REMARK                            x       y       z     vdW  Elec       q    Type
DOCKED: REMARK                         _______ _______ _______ _____ _____    ______ ____
DOCKED: USER                              x       y       z     vdW  Elec       q    Type
DOCKED: USER                           _______ _______ _______ _____ _____    ______ ____
DOCKED: ROOT
DOCKED: ATOM      1  C21 UNL     1       5.396  -1.869  -8.868 +0.00 +0.00    +0.129 C  
DOCKED: ENDROOT
DOCKED: BRANCH   1   2
DOCKED: ATOM      2  C22 UNL     1       4.687  -1.414  -7.608 +0.00 +0.00    +0.216 C  
DOCKED: ATOM      3  O8  UNL     1       3.681  -0.708  -7.624 +0.00 -0.00    -0.276 OA 
DOCKED: ATOM      4  N6  UNL     1       5.244  -1.913  -6.452 +0.00 -0.00    -0.304 N  
DOCKED: ATOM      5  H39 UNL     1       6.213  -2.213  -6.514 +0.00 +0.00    +0.149 HD 
DOCKED: BRANCH   4   6
DOCKED: ATOM      6  C23 UNL     1       4.868  -1.359  -5.149 +0.00 +0.00    +0.161 C  
DOCKED: BRANCH   6   7
DOCKED: ATOM      7  C24 UNL     1       6.205  -1.149  -4.399 +0.00 +0.00    +0.234 C  
DOCKED: ATOM      8  O9  UNL     1       7.279  -1.029  -4.991 +0.00 -0.00    -0.274 OA 
DOCKED: ATOM      9  N7  UNL     1       6.103  -1.138  -3.031 +0.00 -0.00    -0.303 N  
DOCKED: ATOM     10  H41 UNL     1       5.199  -1.248  -2.580 +0.00 +0.00    +0.149 HD 
DOCKED: BRANCH   9  11
DOCKED: ATOM     11  C25 UNL     1       7.248  -0.949  -2.150 +0.00 +0.00    +0.156 C  
DOCKED: ATOM     12  C26 UNL     1       6.795  -0.550  -0.752 +0.00 +0.00    +0.038 C  
DOCKED: BRANCH  11  13
DOCKED: ATOM     13  C27 UNL     1       8.033  -2.277  -2.125 +0.00 +0.00    +0.234 C  
DOCKED: ATOM     14  O10 UNL     1       8.325  -2.844  -1.069 +0.00 -0.00    -0.274 OA 
DOCKED: ATOM     15  N8  UNL     1       8.357  -2.790  -3.366 +0.00 -0.00    -0.302 N  
DOCKED: ATOM     16  H46 UNL     1       8.357  -2.141  -4.146 +0.00 +0.00    +0.150 HD 
DOCKED: BRANCH  15  17
DOCKED: ATOM     17  C28 UNL     1       9.303  -3.894  -3.486 +0.00 +0.00    +0.159 C  
DOCKED: BRANCH  17  18
DOCKED: ATOM     18  C32 UNL     1      10.495  -3.425  -4.348 +0.00 +0.00    +0.234 C  
DOCKED: ATOM     19  O13 UNL     1      11.639  -3.833  -4.153 +0.00 -0.00    -0.274 OA 
DOCKED: ATOM     20  N9  UNL     1      10.177  -2.483  -5.297 +0.00 -0.00    -0.301 N  
DOCKED: ATOM     21  H53 UNL     1       9.249  -2.079  -5.294 +0.00 +0.00    +0.150 HD 
DOCKED: BRANCH  20  22
DOCKED: ATOM     22  C33 UNL     1      11.216  -1.718  -5.998 +0.00 +0.00    +0.186 C  
DOCKED: BRANCH  22  23
DOCKED: ATOM     23  C41 UNL     1      10.529  -0.460  -6.516 +0.00 +0.00    +0.326 C  
DOCKED: ATOM     24  O14 UNL     1      11.095   0.580  -6.818 +0.00 -0.00    -0.249 OA 
DOCKED: BRANCH  23  25
DOCKED: ATOM     25  O15 UNL     1       9.188  -0.565  -6.583 +0.00 -0.00    -0.479 OA 
DOCKED: ATOM     26  H62 UNL     1       8.916  -0.704  -5.652 +0.00 +0.00    +0.295 HD 
DOCKED: ENDBRANCH  23  25
DOCKED: ENDBRANCH  22  23
DOCKED: BRANCH  22  27
DOCKED: ATOM     27  C34 UNL     1      11.793  -2.480  -7.196 +0.00 +0.00    +0.069 C  
DOCKED: BRANCH  27  28
DOCKED: ATOM     28  C35 UNL     1      10.737  -3.067  -8.102 +0.00 -0.00    -0.045 A  
DOCKED: ATOM     29  C36 UNL     1      10.084  -4.259  -7.759 +0.00 +0.00    +0.004 A  
DOCKED: ATOM     30  C37 UNL     1       9.106  -4.796  -8.599 +0.00 +0.00    +0.000 A  
DOCKED: ATOM     31  C38 UNL     1       8.774  -4.151  -9.788 +0.00 +0.00    +0.000 A  
DOCKED: ATOM     32  C39 UNL     1       9.416  -2.966 -10.140 +0.00 +0.00    +0.000 A  
DOCKED: ATOM     33  C40 UNL     1      10.394  -2.426  -9.301 +0.00 +0.00    +0.004 A  
DOCKED: ENDBRANCH  27  28
DOCKED: ENDBRANCH  22  27
DOCKED: ENDBRANCH  20  22
DOCKED: ENDBRANCH  17  18
DOCKED: BRANCH  17  34
DOCKED: ATOM     34  C29 UNL     1       8.647  -5.172  -4.041 +0.00 +0.00    +0.043 C  
DOCKED: BRANCH  34  35
DOCKED: ATOM     35  C30 UNL     1       7.171  -5.063  -4.429 +0.00 +0.00    +0.123 C  
DOCKED: BRANCH  35  36
DOCKED: ATOM     36  C31 UNL     1       6.971  -4.267  -5.686 +0.00 +0.00    +0.305 C  
DOCKED: ATOM     37  O11 UNL     1       6.077  -4.425  -6.498 +0.00 -0.00    -0.251 OA 
DOCKED: BRANCH  36  38
DOCKED: ATOM     38  O12 UNL     1       7.951  -3.364  -5.875 +0.00 -0.00    -0.481 OA 
DOCKED: ATOM     39  H52 UNL     1       7.500  -2.497  -5.801 +0.00 +0.00    +0.295 HD 
DOCKED: ENDBRANCH  36  38
DOCKED: ENDBRANCH  35  36
DOCKED: ENDBRANCH  34  35
DOCKED: ENDBRANCH  17  34
DOCKED: ENDBRANCH  15  17
DOCKED: ENDBRANCH  11  13
DOCKED: ENDBRANCH   9  11
DOCKED: ENDBRANCH   6   7
DOCKED: BRANCH   6  40
DOCKED: ATOM     40  C42 UNL     1       3.923  -2.329  -4.402 +0.00 +0.00    +0.012 C  
DOCKED: ATOM     41  C43 UNL     1       3.371  -3.390  -5.364 +0.00 +0.00    +0.009 C  
DOCKED: ATOM     42  C44 UNL     1       2.760  -1.616  -3.714 +0.00 +0.00    +0.009 C  
DOCKED: ENDBRANCH   6  40
DOCKED: ENDBRANCH   4   6
DOCKED: ENDBRANCH   1   2
DOCKED: BRANCH   1  43
DOCKED: ATOM     43  C20 UNL     1       6.856  -1.417  -8.848 +0.00 +0.00    +0.143 C  
DOCKED: BRANCH  43  44
DOCKED: ATOM     44  O7  UNL     1       7.554  -2.078  -7.794 +0.00 -0.00    -0.389 OA 
DOCKED: ATOM     45  H36 UNL     1       7.604  -1.430  -7.060 +0.00 +0.00    +0.210 HD 
DOCKED: ENDBRANCH  43  44
DOCKED: BRANCH  43  46
DOCKED: ATOM     46  C5  UNL     1       7.020   0.126  -8.726 +0.00 +0.00    +0.102 C  
DOCKED: BRANCH  46  47
DOCKED: ATOM     47  N1  UNL     1       6.646   0.625  -7.381 +0.00 -0.00    -0.308 N  
DOCKED: ATOM     48  C6  UNL     1       5.820   1.698  -7.130 +0.00 +0.00    +0.234 C  
DOCKED: ATOM     49  O1  UNL     1       5.153   2.249  -7.999 +0.00 -0.00    -0.274 OA 
DOCKED: ATOM     50  H11 UNL     1       7.203   0.270  -6.600 +0.00 +0.00    +0.149 HD 
DOCKED: BRANCH  48  51
DOCKED: ATOM     51  C7  UNL     1       5.783   2.177  -5.650 +0.00 +0.00    +0.168 C  
DOCKED: BRANCH  51  52
DOCKED: ATOM     52  N3  UNL     1       6.935   3.060  -5.436 +0.00 -0.00    -0.302 N  
DOCKED: ATOM     53  C10 UNL     1       8.218   2.559  -5.364 +0.00 +0.00    +0.234 C  
DOCKED: ATOM     54  O3  UNL     1       8.453   1.349  -5.295 +0.00 -0.00    -0.274 OA 
DOCKED: ATOM     55  H17 UNL     1       6.829   4.006  -5.787 +0.00 +0.00    +0.150 HD 
DOCKED: BRANCH  53  56
DOCKED: ATOM     56  C11 UNL     1       9.347   3.622  -5.352 +0.00 +0.00    +0.161 C  
DOCKED: BRANCH  56  57
DOCKED: ATOM     57  N4  UNL     1      10.585   2.954  -4.932 +0.00 -0.00    -0.302 N  
DOCKED: ATOM     58  C12 UNL     1      11.215   3.307  -3.759 +0.00 +0.00    +0.230 C  
DOCKED: ATOM     59  O4  UNL     1      10.854   4.251  -3.052 +0.00 -0.00    -0.274 OA 
DOCKED: ATOM     60  H19 UNL     1      10.695   1.995  -5.250 +0.00 +0.00    +0.150 HD 
DOCKED: BRANCH  58  61
DOCKED: ATOM     61  C13 UNL     1      12.471   2.469  -3.416 +0.00 +0.00    +0.138 C  
DOCKED: BRANCH  61  62
DOCKED: ATOM     62  N5  UNL     1      12.422   2.130  -1.974 +0.00 -0.00    -0.320 NA 
DOCKED: ATOM     63  H21 UNL     1      12.250   1.122  -1.909 +0.00 +0.00    +0.119 HD 
DOCKED: ATOM     64  H22 UNL     1      11.577   2.548  -1.579 +0.00 +0.00    +0.119 HD 
DOCKED: ENDBRANCH  61  62
DOCKED: BRANCH  61  65
DOCKED: ATOM     65  C14 UNL     1      12.531   1.162  -4.221 +0.00 +0.00    +0.039 C  
DOCKED: BRANCH  65  66
DOCKED: ATOM     66  C15 UNL     1      11.861  -0.031  -3.542 +0.00 +0.00    +0.122 C  
DOCKED: BRANCH  66  67
DOCKED: ATOM     67  C16 UNL     1      10.434   0.235  -3.154 +0.00 +0.00    +0.305 C  
DOCKED: ATOM     68  O5  UNL     1      10.067   1.024  -2.296 +0.00 -0.00    -0.251 OA 
DOCKED: BRANCH  67  69
DOCKED: ATOM     69  O6  UNL     1       9.540  -0.498  -3.845 +0.00 -0.00    -0.481 OA 
DOCKED: ATOM     70  H27 UNL     1       9.116   0.133  -4.461 +0.00 +0.00    +0.295 HD 
DOCKED: ENDBRANCH  67  69
DOCKED: ENDBRANCH  66  67
DOCKED: ENDBRANCH  65  66
DOCKED: ENDBRANCH  61  65
DOCKED: ENDBRANCH  58  61
DOCKED: ENDBRANCH  56  57
DOCKED: BRANCH  56  71
DOCKED: ATOM     71  C17 UNL     1       9.579   4.341  -6.700 +0.00 +0.00    +0.012 C  
DOCKED: ATOM     72  C18 UNL     1      11.039   4.757  -6.902 +0.00 +0.00    +0.009 C  
DOCKED: ATOM     73  C19 UNL     1       8.653   5.536  -6.928 +0.00 +0.00    +0.009 C  
DOCKED: ENDBRANCH  56  71
DOCKED: ENDBRANCH  53  56
DOCKED: ENDBRANCH  51  52
DOCKED: BRANCH  51  74
DOCKED: ATOM     74  C8  UNL     1       4.497   2.928  -5.316 +0.00 +0.00    +0.127 C  
DOCKED: BRANCH  74  75
DOCKED: ATOM     75  C9  UNL     1       3.402   1.915  -5.122 +0.00 +0.00    +0.213 C  
DOCKED: ATOM     76  N2  UNL     1       3.047   1.189  -6.219 +0.00 -0.00    -0.329 N  
DOCKED: ATOM     77  O2  UNL     1       2.797   1.799  -4.060 +0.00 -0.00    -0.276 OA 
DOCKED: ATOM     78  H15 UNL     1       2.250   0.569  -6.130 +0.00 +0.00    +0.145 HD 
DOCKED: ATOM     79  H16 UNL     1       3.393   1.386  -7.149 +0.00 +0.00    +0.145 HD 
DOCKED: ENDBRANCH  74  75
DOCKED: ENDBRANCH  51  74
DOCKED: ENDBRANCH  48  51
DOCKED: ENDBRANCH  46  47
DOCKED: BRANCH  46  80
DOCKED: ATOM     80  C4  UNL     1       8.439   0.680  -9.038 +0.00 +0.00    +0.028 C  
DOCKED: BRANCH  80  82
DOCKED: ATOM     81  C1  UNL     1       7.650   3.038  -9.718 +0.00 +0.00    +0.007 C  
DOCKED: ATOM     82  C2  UNL     1       8.722   2.198  -9.031 +0.00 -0.00    -0.015 C  
DOCKED: ATOM     83  C3  UNL     1      10.125   2.568  -9.506 +0.00 +0.00    +0.007 C  
DOCKED: ENDBRANCH  80  82
DOCKED: ENDBRANCH  46  80
DOCKED: ENDBRANCH  43  46
DOCKED: ENDBRANCH   1  43
DOCKED: TORSDOF 36
DOCKED: TER
DOCKED: ENDMDL
________________________________________________________________________________


    FINAL DOCKED STATE:
    ________________________


Run:   3 / 20
Time taken for this run:   7.478s

DOCKED: MODEL        3
DOCKED: USER    Run = 3
DOCKED: USER
DOCKED: USER    Estimated Free Energy of Binding    = +10.74 kcal/mol  [=(1)+(2)+(3)-(4)]
DOCKED: USER
DOCKED: USER    (1) Final Intermolecular Energy     =  +0.00 kcal/mol
DOCKED: USER        vdW + Hbond + desolv Energy     =  +0.00 kcal/mol
DOCKED: USER        Electrostatic Energy            =  +0.00 kcal/mol
DOCKED: USER        Moving Ligand-Fixed Receptor    =  +0.00 kcal/mol
DOCKED: USER        Moving Ligand-Moving Receptor   =  +0.00 kcal/mol
DOCKED: USER    (2) Final Total Internal Energy     = -31.07 kcal/mol
DOCKED: USER    (3) Torsional Free Energy           = +10.74 kcal/mol
DOCKED: USER    (4) Unbound System's Energy         = -31.07 kcal/mol
DOCKED: USER
DOCKED: USER
DOCKED: REMARK  Name = ligands/ligand_10.pdb
DOCKED: REMARK  43 active torsions:
DOCKED: REMARK  status: ('A' for Active; 'I' for Inactive)
DOCKED: REMARK    1  A    between atoms: C1_1  and  C2_2
DOCKED: REMARK    2  A    between atoms: C2_2  and  C3_3
DOCKED: REMARK    3  A    between atoms: C2_2  and  C4_4
DOCKED: REMARK    4  A    between atoms: C4_4  and  C5_5
DOCKED: REMARK    5  A    between atoms: C5_5  and  N1_6
DOCKED: REMARK    6  A    between atoms: C5_5  and  C20_31
DOCKED: REMARK    7  A    between atoms: C6_7  and  C7_9
DOCKED: REMARK    8  A    between atoms: C7_9  and  C8_10
DOCKED: REMARK    9  A    between atoms: C7_9  and  N3_14
DOCKED: REMARK   10  A    between atoms: C8_10  and  C9_11
DOCKED: REMARK   11  A    between atoms: C10_15  and  C11_17
DOCKED: REMARK   12  A    between atoms: C11_17  and  N4_18
DOCKED: REMARK   13  A    between atoms: C11_17  and  C17_28
DOCKED: REMARK   14  A    between atoms: C12_19  and  C13_21
DOCKED: REMARK   15  A    between atoms: C13_21  and  N5_22
DOCKED: REMARK   16  A    between atoms: C13_21  and  C14_23
DOCKED: REMARK   17  A    between atoms: C14_23  and  C15_24
DOCKED: REMARK   18  A    between atoms: C15_24  and  C16_25
DOCKED: REMARK   19  A    between atoms: C16_25  and  O6_27
DOCKED: REMARK   20  A    between atoms: C17_28  and  C18_29
DOCKED: REMARK   21  A    between atoms: C17_28  and  C19_30
DOCKED: REMARK   22  A    between atoms: C20_31  and  O7_32
DOCKED: REMARK   23  A    between atoms: C20_31  and  C21_33
DOCKED: REMARK   24  A    between atoms: C21_33  and  C22_34
DOCKED: REMARK   25  A    between atoms: N6_36  and  C23_37
DOCKED: REMARK   26  A    between atoms: C23_37  and  C24_38
DOCKED: REMARK   27  A    between atoms: C23_37  and  C42_66
DOCKED: REMARK   28  A    between atoms: N7_40  and  C25_41
DOCKED: REMARK   29  A    between atoms: C25_41  and  C26_42
DOCKED: REMARK   30  A    between atoms: C25_41  and  C27_43
DOCKED: REMARK   31  A    between atoms: N8_45  and  C28_46
DOCKED: REMARK   32  A    between atoms: C28_46  and  C29_47
DOCKED: REMARK   33  A    between atoms: C28_46  and  C32_52
DOCKED: REMARK   34  A    between atoms: C29_47  and  C30_48
DOCKED: REMARK   35  A    between atoms: C30_48  and  C31_49
DOCKED: REMARK   36  A    between atoms: C31_49  and  O12_51
DOCKED: REMARK   37  A    between atoms: N9_54  and  C33_55
DOCKED: REMARK   38  A    between atoms: C33_55  and  C34_56
DOCKED: REMARK   39  A    between atoms: C33_55  and  C41_63
DOCKED: REMARK   40  A    between atoms: C34_56  and  C35_57
DOCKED: REMARK   41  A    between atoms: C41_63  and  O15_65
DOCKED: REMARK   42  A    between atoms: C42_66  and  C43_67
DOCKED: REMARK   43  A    between atoms: C42_66  and  C44_68
DOCKED: REMARK                            x       y       z     vdW  Elec       q    Type
DOCKED: REMARK                         _______ _______ _______ _____ _____    ______ ____
DOCKED: USER                              x       y       z     vdW  Elec       q    Type
DOCKED: USER                           _______ _______ _______ _____ _____    ______ ____
DOCKED: ROOT
DOCKED: ATOM      1  C21 UNL     1       6.002  -4.814  -5.366 +0.00 +0.00    +0.129 C  
DOCKED: ENDROOT
DOCKED: BRANCH   1   2
DOCKED: ATOM      2  C22 UNL     1       7.281  -5.275  -4.694 +0.00 +0.00    +0.216 C  
DOCKED: ATOM      3  O8  UNL     1       7.843  -4.629  -3.813 +0.00 -0.00    -0.276 OA 
DOCKED: ATOM      4  N6  UNL     1       7.716  -6.507  -5.127 +0.00 -0.00    -0.304 N  
DOCKED: ATOM      5  H39 UNL     1       7.382  -6.807  -6.038 +0.00 +0.00    +0.149 HD 
DOCKED: BRANCH   4   6
DOCKED: ATOM      6  C23 UNL     1       9.066  -6.973  -4.798 +0.00 +0.00    +0.161 C  
DOCKED: BRANCH   6   7
DOCKED: ATOM      7  C24 UNL     1       9.525  -7.784  -6.033 +0.00 +0.00    +0.234 C  
DOCKED: ATOM      8  O9  UNL     1       9.258  -7.436  -7.184 +0.00 -0.00    -0.274 OA 
DOCKED: ATOM      9  N7  UNL     1      10.220  -8.930  -5.744 +0.00 -0.00    -0.303 N  
DOCKED: ATOM     10  H41 UNL     1      10.414  -9.188  -4.780 +0.00 +0.00    +0.149 HD 
DOCKED: BRANCH   9  11
DOCKED: ATOM     11  C25 UNL     1      10.740  -9.825  -6.769 +0.00 +0.00    +0.156 C  
DOCKED: ATOM     12  C26 UNL     1       9.607 -10.404  -7.607 +0.00 +0.00    +0.038 C  
DOCKED: BRANCH  11  13
DOCKED: ATOM     13  C27 UNL     1      11.718  -9.009  -7.640 +0.00 +0.00    +0.234 C  
DOCKED: ATOM     14  O10 UNL     1      12.932  -8.995  -7.422 +0.00 -0.00    -0.274 OA 
DOCKED: ATOM     15  N8  UNL     1      11.135  -8.321  -8.687 +0.00 -0.00    -0.302 N  
DOCKED: ATOM     16  H46 UNL     1      10.140  -8.137  -8.619 +0.00 +0.00    +0.150 HD 
DOCKED: BRANCH  15  17
DOCKED: ATOM     17  C28 UNL     1      11.896  -7.321  -9.429 +0.00 +0.00    +0.159 C  
DOCKED: BRANCH  17  18
DOCKED: ATOM     18  C32 UNL     1      12.565  -6.366  -8.416 +0.00 +0.00    +0.234 C  
DOCKED: ATOM     19  O13 UNL     1      13.788  -6.287  -8.308 +0.00 -0.00    -0.274 OA 
DOCKED: ATOM     20  N9  UNL     1      11.687  -5.670  -7.622 +0.00 -0.00    -0.301 N  
DOCKED: ATOM     21  H53 UNL     1      10.703  -5.904  -7.659 +0.00 +0.00    +0.150 HD 
DOCKED: BRANCH  20  22
DOCKED: ATOM     22  C33 UNL     1      12.139  -4.951  -6.424 +0.00 +0.00    +0.186 C  
DOCKED: BRANCH  22  23
DOCKED: ATOM     23  C41 UNL     1      10.959  -4.094  -5.983 +0.00 +0.00    +0.326 C  
DOCKED: ATOM     24  O14 UNL     1      11.023  -3.147  -5.213 +0.00 -0.00    -0.249 OA 
DOCKED: BRANCH  23  25
DOCKED: ATOM     25  O15 UNL     1       9.778  -4.496  -6.490 +0.00 -0.00    -0.479 OA 
DOCKED: ATOM     26  H62 UNL     1       9.503  -3.751  -7.064 +0.00 +0.00    +0.295 HD 
DOCKED: ENDBRANCH  23  25
DOCKED: ENDBRANCH  22  23
DOCKED: BRANCH  22  27
DOCKED: ATOM     27  C34 UNL     1      13.326  -4.025  -6.713 +0.00 +0.00    +0.069 C  
DOCKED: BRANCH  27  28
DOCKED: ATOM     28  C35 UNL     1      12.943  -2.774  -7.469 +0.00 -0.00    -0.045 A  
DOCKED: ATOM     29  C36 UNL     1      12.640  -2.831  -8.836 +0.00 +0.00    +0.004 A  
DOCKED: ATOM     30  C37 UNL     1      12.285  -1.672  -9.530 +0.00 +0.00    +0.000 A  
DOCKED: ATOM     31  C38 UNL     1      12.232  -0.448  -8.867 +0.00 +0.00    +0.000 A  
DOCKED: ATOM     32  C39 UNL     1      12.530  -0.379  -7.508 +0.00 +0.00    +0.000 A  
DOCKED: ATOM     33  C40 UNL     1      12.886  -1.537  -6.812 +0.00 +0.00    +0.004 A  
DOCKED: ENDBRANCH  27  28
DOCKED: ENDBRANCH  22  27
DOCKED: ENDBRANCH  20  22
DOCKED: ENDBRANCH  17  18
DOCKED: BRANCH  17  34
DOCKED: ATOM     34  C29 UNL     1      11.031  -6.569 -10.458 +0.00 +0.00    +0.043 C  
DOCKED: BRANCH  34  35
DOCKED: ATOM     35  C30 UNL     1       9.568  -6.336 -10.072 +0.00 +0.00    +0.123 C  
DOCKED: BRANCH  35  36
DOCKED: ATOM     36  C31 UNL     1       9.403  -5.156  -9.159 +0.00 +0.00    +0.305 C  
DOCKED: ATOM     37  O11 UNL     1      10.161  -4.206  -9.073 +0.00 -0.00    -0.251 OA 
DOCKED: BRANCH  36  38
DOCKED: ATOM     38  O12 UNL     1       8.325  -5.278  -8.363 +0.00 -0.00    -0.481 OA 
DOCKED: ATOM     39  H52 UNL     1       8.694  -5.292  -7.455 +0.00 +0.00    +0.295 HD 
DOCKED: ENDBRANCH  36  38
DOCKED: ENDBRANCH  35  36
DOCKED: ENDBRANCH  34  35
DOCKED: ENDBRANCH  17  34
DOCKED: ENDBRANCH  15  17
DOCKED: ENDBRANCH  11  13
DOCKED: ENDBRANCH   9  11
DOCKED: ENDBRANCH   6   7
DOCKED: BRANCH   6  40
DOCKED: ATOM     40  C42 UNL     1       9.044  -7.828  -3.510 +0.00 +0.00    +0.012 C  
DOCKED: ATOM     41  C43 UNL     1       7.679  -8.511  -3.341 +0.00 +0.00    +0.009 C  
DOCKED: ATOM     42  C44 UNL     1       9.364  -7.021  -2.253 +0.00 +0.00    +0.009 C  
DOCKED: ENDBRANCH   6  40
DOCKED: ENDBRANCH   4   6
DOCKED: ENDBRANCH   1   2
DOCKED: BRANCH   1  43
DOCKED: ATOM     43  C20 UNL     1       6.248  -3.527  -6.152 +0.00 +0.00    +0.143 C  
DOCKED: BRANCH  43  44
DOCKED: ATOM     44  O7  UNL     1       7.624  -3.439  -6.520 +0.00 -0.00    -0.389 OA 
DOCKED: ATOM     45  H36 UNL     1       8.126  -3.438  -5.679 +0.00 +0.00    +0.210 HD 
DOCKED: ENDBRANCH  43  44
DOCKED: BRANCH  43  46
DOCKED: ATOM     46  C5  UNL     1       5.808  -2.245  -5.385 +0.00 +0.00    +0.102 C  
DOCKED: BRANCH  46  47
DOCKED: ATOM     47  N1  UNL     1       6.699  -1.093  -5.661 +0.00 -0.00    -0.308 N  
DOCKED: ATOM     48  C6  UNL     1       6.603  -0.252  -6.748 +0.00 +0.00    +0.234 C  
DOCKED: ATOM     49  O1  UNL     1       5.647  -0.257  -7.517 +0.00 -0.00    -0.274 OA 
DOCKED: ATOM     50  H11 UNL     1       7.561  -1.050  -5.112 +0.00 +0.00    +0.149 HD 
DOCKED: BRANCH  48  51
DOCKED: ATOM     51  C7  UNL     1       7.800   0.721  -6.944 +0.00 +0.00    +0.168 C  
DOCKED: BRANCH  51  52
DOCKED: ATOM     52  N3  UNL     1       8.356   1.019  -5.620 +0.00 -0.00    -0.302 N  
DOCKED: ATOM     53  C10 UNL     1       7.767   1.948  -4.788 +0.00 +0.00    +0.234 C  
DOCKED: ATOM     54  O3  UNL     1       6.865   2.699  -5.169 +0.00 -0.00    -0.274 OA 
DOCKED: ATOM     55  H17 UNL     1       8.857   0.257  -5.176 +0.00 +0.00    +0.150 HD 
DOCKED: BRANCH  53  56
DOCKED: ATOM     56  C11 UNL     1       8.332   2.003  -3.345 +0.00 +0.00    +0.161 C  
DOCKED: BRANCH  56  57
DOCKED: ATOM     57  N4  UNL     1       8.811   0.658  -3.001 +0.00 -0.00    -0.302 N  
DOCKED: ATOM     58  C12 UNL     1       7.958  -0.423  -3.025 +0.00 +0.00    +0.230 C  
DOCKED: ATOM     59  O4  UNL     1       6.744  -0.326  -3.227 +0.00 -0.00    -0.274 OA 
DOCKED: ATOM     60  H19 UNL     1       9.793   0.480  -3.193 +0.00 +0.00    +0.150 HD 
DOCKED: BRANCH  58  61
DOCKED: ATOM     61  C13 UNL     1       8.621  -1.785  -2.705 +0.00 +0.00    +0.138 C  
DOCKED: BRANCH  61  62
DOCKED: ATOM     62  N5  UNL     1       8.990  -2.432  -3.987 +0.00 -0.00    -0.320 NA 
DOCKED: ATOM     63  H21 UNL     1       9.523  -1.744  -4.527 +0.00 +0.00    +0.119 HD 
DOCKED: ATOM     64  H22 UNL     1       8.136  -2.562  -4.533 +0.00 +0.00    +0.119 HD 
DOCKED: ENDBRANCH  61  62
DOCKED: BRANCH  61  65
DOCKED: ATOM     65  C14 UNL     1       9.892  -1.623  -1.859 +0.00 +0.00    +0.039 C  
DOCKED: BRANCH  65  66
DOCKED: ATOM     66  C15 UNL     1      11.196  -1.714  -2.650 +0.00 +0.00    +0.122 C  
DOCKED: BRANCH  66  67
DOCKED: ATOM     67  C16 UNL     1      11.447  -0.513  -3.516 +0.00 +0.00    +0.305 C  
DOCKED: ATOM     68  O5  UNL     1      12.101   0.469  -3.197 +0.00 -0.00    -0.251 OA 
DOCKED: BRANCH  67  69
DOCKED: ATOM     69  O6  UNL     1      10.865  -0.590  -4.729 +0.00 -0.00    -0.481 OA 
DOCKED: ATOM     70  H27 UNL     1      10.765  -1.548  -4.901 +0.00 +0.00    +0.295 HD 
DOCKED: ENDBRANCH  67  69
DOCKED: ENDBRANCH  66  67
DOCKED: ENDBRANCH  65  66
DOCKED: ENDBRANCH  61  65
DOCKED: ENDBRANCH  58  61
DOCKED: ENDBRANCH  56  57
DOCKED: BRANCH  56  71
DOCKED: ATOM     71  C17 UNL     1       9.470   3.026  -3.129 +0.00 +0.00    +0.012 C  
DOCKED: ATOM     72  C18 UNL     1      10.403   3.134  -4.338 +0.00 +0.00    +0.009 C  
DOCKED: ATOM     73  C19 UNL     1      10.281   2.785  -1.856 +0.00 +0.00    +0.009 C  
DOCKED: ENDBRANCH  56  71
DOCKED: ENDBRANCH  53  56
DOCKED: ENDBRANCH  51  52
DOCKED: BRANCH  51  74
DOCKED: ATOM     74  C8  UNL     1       8.892   0.127  -7.831 +0.00 +0.00    +0.127 C  
DOCKED: BRANCH  74  75
DOCKED: ATOM     75  C9  UNL     1       9.070  -1.317  -7.447 +0.00 +0.00    +0.213 C  
DOCKED: ATOM     76  N2  UNL     1       8.917  -2.233  -8.443 +0.00 -0.00    -0.329 N  
DOCKED: ATOM     77  O2  UNL     1       9.261  -1.667  -6.286 +0.00 -0.00    -0.276 OA 
DOCKED: ATOM     78  H15 UNL     1       8.942  -3.213  -8.185 +0.00 +0.00    +0.145 HD 
DOCKED: ATOM     79  H16 UNL     1       8.579  -1.995  -9.367 +0.00 +0.00    +0.145 HD 
DOCKED: ENDBRANCH  74  75
DOCKED: ENDBRANCH  51  74
DOCKED: ENDBRANCH  48  51
DOCKED: ENDBRANCH  46  47
DOCKED: BRANCH  46  80
DOCKED: ATOM     80  C4  UNL     1       4.352  -1.768  -5.649 +0.00 +0.00    +0.028 C  
DOCKED: BRANCH  80  82
DOCKED: ATOM     81  C1  UNL     1       3.935   0.626  -4.788 +0.00 +0.00    +0.007 C  
DOCKED: ATOM     82  C2  UNL     1       3.616  -0.859  -4.641 +0.00 -0.00    -0.015 C  
DOCKED: ATOM     83  C3  UNL     1       3.730  -1.324  -3.191 +0.00 +0.00    +0.007 C  
DOCKED: ENDBRANCH  80  82
DOCKED: ENDBRANCH  46  80
DOCKED: ENDBRANCH  43  46
DOCKED: ENDBRANCH   1  43
DOCKED: TORSDOF 36
DOCKED: TER
DOCKED: ENDMDL
________________________________________________________________________________


    FINAL DOCKED STATE:
    ________________________


Run:   4 / 20
Time taken for this run:   7.478s

DOCKED: MODEL        4
DOCKED: USER    Run = 4
DOCKED: USER
DOCKED: USER    Estimated Free Energy of Binding    = +10.74 kcal/mol  [=(1)+(2)+(3)-(4)]
DOCKED: USER
DOCKED: USER    (1) Final Intermolecular Energy     =  +0.00 kcal/mol
DOCKED: USER        vdW + Hbond + desolv Energy     =  +0.00 kcal/mol
DOCKED: USER        Electrostatic Energy            =  +0.00 kcal/mol
DOCKED: USER        Moving Ligand-Fixed Receptor    =  +0.00 kcal/mol
DOCKED: USER        Moving Ligand-Moving Receptor   =  +0.00 kcal/mol
DOCKED: USER    (2) Final Total Internal Energy     = -31.95 kcal/mol
DOCKED: USER    (3) Torsional Free Energy           = +10.74 kcal/mol
DOCKED: USER    (4) Unbound System's Energy         = -31.95 kcal/mol
DOCKED: USER
DOCKED: USER
DOCKED: REMARK  Name = ligands/ligand_10.pdb
DOCKED: REMARK  43 active torsions:
DOCKED: REMARK  status: ('A' for Active; 'I' for Inactive)
DOCKED: REMARK    1  A    between atoms: C1_1  and  C2_2
DOCKED: REMARK    2  A    between atoms: C2_2  and  C3_3
DOCKED: REMARK    3  A    between atoms: C2_2  and  C4_4
DOCKED: REMARK    4  A    between atoms: C4_4  and  C5_5
DOCKED: REMARK    5  A    between atoms: C5_5  and  N1_6
DOCKED: REMARK    6  A    between atoms: C5_5  and  C20_31
DOCKED: REMARK    7  A    between atoms: C6_7  and  C7_9
DOCKED: REMARK    8  A    between atoms: C7_9  and  C8_10
DOCKED: REMARK    9  A    between atoms: C7_9  and  N3_14
DOCKED: REMARK   10  A    between atoms: C8_10  and  C9_11
DOCKED: REMARK   11  A    between atoms: C10_15  and  C11_17
DOCKED: REMARK   12  A    between atoms: C11_17  and  N4_18
DOCKED: REMARK   13  A    between atoms: C11_17  and  C17_28
DOCKED: REMARK   14  A    between atoms: C12_19  and  C13_21
DOCKED: REMARK   15  A    between atoms: C13_21  and  N5_22
DOCKED: REMARK   16  A    between atoms: C13_21  and  C14_23
DOCKED: REMARK   17  A    between atoms: C14_23  and  C15_24
DOCKED: REMARK   18  A    between atoms: C15_24  and  C16_25
DOCKED: REMARK   19  A    between atoms: C16_25  and  O6_27
DOCKED: REMARK   20  A    between atoms: C17_28  and  C18_29
DOCKED: REMARK   21  A    between atoms: C17_28  and  C19_30
DOCKED: REMARK   22  A    between atoms: C20_31  and  O7_32
DOCKED: REMARK   23  A    between atoms: C20_31  and  C21_33
DOCKED: REMARK   24  A    between atoms: C21_33  and  C22_34
DOCKED: REMARK   25  A    between atoms: N6_36  and  C23_37
DOCKED: REMARK   26  A    between atoms: C23_37  and  C24_38
DOCKED: REMARK   27  A    between atoms: C23_37  and  C42_66
DOCKED: REMARK   28  A    between atoms: N7_40  and  C25_41
DOCKED: REMARK   29  A    between atoms: C25_41  and  C26_42
DOCKED: REMARK   30  A    between atoms: C25_41  and  C27_43
DOCKED: REMARK   31  A    between atoms: N8_45  and  C28_46
DOCKED: REMARK   32  A    between atoms: C28_46  and  C29_47
DOCKED: REMARK   33  A    between atoms: C28_46  and  C32_52
DOCKED: REMARK   34  A    between atoms: C29_47  and  C30_48
DOCKED: REMARK   35  A    between atoms: C30_48  and  C31_49
DOCKED: REMARK   36  A    between atoms: C31_49  and  O12_51
DOCKED: REMARK   37  A    between atoms: N9_54  and  C33_55
DOCKED: REMARK   38  A    between atoms: C33_55  and  C34_56
DOCKED: REMARK   39  A    between atoms: C33_55  and  C41_63
DOCKED: REMARK   40  A    between atoms: C34_56  and  C35_57
DOCKED: REMARK   41  A    between atoms: C41_63  and  O15_65
DOCKED: REMARK   42  A    between atoms: C42_66  and  C43_67
DOCKED: REMARK   43  A    between atoms: C42_66  and  C44_68
DOCKED: REMARK                            x       y       z     vdW  Elec       q    Type
DOCKED: REMARK                         _______ _______ _______ _____ _____    ______ ____
DOCKED: USER                              x       y       z     vdW  Elec       q    Type
DOCKED: USER                           _______ _______ _______ _____ _____    ______ ____
DOCKED: ROOT
DOCKED: ATOM      1  C21 UNL     1       5.215 -10.973  -3.154 +0.00 +0.00    +0.129 C  
DOCKED: ENDROOT
DOCKED: BRANCH   1   2
DOCKED: ATOM      2  C22 UNL     1       6.263 -11.055  -2.061 +0.00 +0.00    +0.216 C  
DOCKED: ATOM      3  O8  UNL     1       6.138 -11.764  -1.065 +0.00 -0.00    -0.276 OA 
DOCKED: ATOM      4  N6  UNL     1       7.389 -10.305  -2.321 +0.00 -0.00    -0.304 N  
DOCKED: ATOM      5  H39 UNL     1       7.277  -9.541  -2.981 +0.00 +0.00    +0.149 HD 
DOCKED: BRANCH   4   6
DOCKED: ATOM      6  C23 UNL     1       8.367 -10.046  -1.261 +0.00 +0.00    +0.161 C  
DOCKED: BRANCH   6   7
DOCKED: ATOM      7  C24 UNL     1       8.310  -8.518  -1.025 +0.00 +0.00    +0.234 C  
DOCKED: ATOM      8  O9  UNL     1       7.977  -7.728  -1.910 +0.00 -0.00    -0.274 OA 
DOCKED: ATOM      9  N7  UNL     1       8.689  -8.114   0.230 +0.00 -0.00    -0.303 N  
DOCKED: ATOM     10  H41 UNL     1       8.965  -8.797   0.930 +0.00 +0.00    +0.149 HD 
DOCKED: BRANCH   9  11
DOCKED: ATOM     11  C25 UNL     1       8.699  -6.718   0.647 +0.00 +0.00    +0.156 C  
DOCKED: ATOM     12  C26 UNL     1       9.681  -5.910  -0.191 +0.00 +0.00    +0.038 C  
DOCKED: BRANCH  11  13
DOCKED: ATOM     13  C27 UNL     1       7.260  -6.182   0.493 +0.00 +0.00    +0.234 C  
DOCKED: ATOM     14  O10 UNL     1       6.446  -6.220   1.419 +0.00 -0.00    -0.274 OA 
DOCKED: ATOM     15  N8  UNL     1       6.966  -5.640  -0.743 +0.00 -0.00    -0.302 N  
DOCKED: ATOM     16  H46 UNL     1       7.559  -5.915  -1.519 +0.00 +0.00    +0.150 HD 
DOCKED: BRANCH  15  17
DOCKED: ATOM     17  C28 UNL     1       5.587  -5.329  -1.105 +0.00 +0.00    +0.159 C  
DOCKED: BRANCH  17  18
DOCKED: ATOM     18  C32 UNL     1       4.931  -6.606  -1.674 +0.00 +0.00    +0.234 C  
DOCKED: ATOM     19  O13 UNL     1       5.026  -7.694  -1.107 +0.00 -0.00    -0.274 OA 
DOCKED: ATOM     20  N9  UNL     1       4.294  -6.432  -2.878 +0.00 -0.00    -0.301 N  
DOCKED: ATOM     21  H53 UNL     1       4.391  -5.548  -3.361 +0.00 +0.00    +0.150 HD 
DOCKED: BRANCH  20  22
DOCKED: ATOM     22  C33 UNL     1       3.875  -7.576  -3.698 +0.00 +0.00    +0.186 C  
DOCKED: BRANCH  22  23
DOCKED: ATOM     23  C41 UNL     1       5.126  -8.042  -4.433 +0.00 +0.00    +0.326 C  
DOCKED: ATOM     24  O14 UNL     1       5.206  -8.238  -5.636 +0.00 -0.00    -0.249 OA 
DOCKED: BRANCH  23  25
DOCKED: ATOM     25  O15 UNL     1       6.176  -8.273  -3.622 +0.00 -0.00    -0.479 OA 
DOCKED: ATOM     26  H62 UNL     1       6.605  -7.397  -3.537 +0.00 +0.00    +0.295 HD 
DOCKED: ENDBRANCH  23  25
DOCKED: ENDBRANCH  22  23
DOCKED: BRANCH  22  27
DOCKED: ATOM     27  C34 UNL     1       2.819  -7.191  -4.741 +0.00 +0.00    +0.069 C  
DOCKED: BRANCH  27  28
DOCKED: ATOM     28  C35 UNL     1       2.319  -8.363  -5.552 +0.00 -0.00    -0.045 A  
DOCKED: ATOM     29  C36 UNL     1       1.945  -9.559  -4.923 +0.00 +0.00    +0.004 A  
DOCKED: ATOM     30  C37 UNL     1       1.480 -10.639  -5.677 +0.00 +0.00    +0.000 A  
DOCKED: ATOM     31  C38 UNL     1       1.388 -10.536  -7.064 +0.00 +0.00    +0.000 A  
DOCKED: ATOM     32  C39 UNL     1       1.755  -9.352  -7.699 +0.00 +0.00    +0.000 A  
DOCKED: ATOM     33  C40 UNL     1       2.220  -8.270  -6.948 +0.00 +0.00    +0.004 A  
DOCKED: ENDBRANCH  27  28
DOCKED: ENDBRANCH  22  27
DOCKED: ENDBRANCH  20  22
DOCKED: ENDBRANCH  17  18
DOCKED: BRANCH  17  34
DOCKED: ATOM     34  C29 UNL     1       5.489  -4.139  -2.077 +0.00 +0.00    +0.043 C  
DOCKED: BRANCH  34  35
DOCKED: ATOM     35  C30 UNL     1       6.676  -3.936  -3.022 +0.00 +0.00    +0.123 C  
DOCKED: BRANCH  35  36
DOCKED: ATOM     36  C31 UNL     1       7.067  -5.204  -3.723 +0.00 +0.00    +0.305 C  
DOCKED: ATOM     37  O11 UNL     1       8.104  -5.821  -3.560 +0.00 -0.00    -0.251 OA 
DOCKED: BRANCH  36  38
DOCKED: ATOM     38  O12 UNL     1       6.154  -5.580  -4.637 +0.00 -0.00    -0.481 OA 
DOCKED: ATOM     39  H52 UNL     1       6.401  -6.501  -4.864 +0.00 +0.00    +0.295 HD 
DOCKED: ENDBRANCH  36  38
DOCKED: ENDBRANCH  35  36
DOCKED: ENDBRANCH  34  35
DOCKED: ENDBRANCH  17  34
DOCKED: ENDBRANCH  15  17
DOCKED: ENDBRANCH  11  13
DOCKED: ENDBRANCH   9  11
DOCKED: ENDBRANCH   6   7
DOCKED: BRANCH   6  40
DOCKED: ATOM     40  C42 UNL     1       9.773 -10.521  -1.695 +0.00 +0.00    +0.012 C  
DOCKED: ATOM     41  C43 UNL     1      10.557  -9.367  -2.334 +0.00 +0.00    +0.009 C  
DOCKED: ATOM     42  C44 UNL     1       9.730 -11.701  -2.665 +0.00 +0.00    +0.009 C  
DOCKED: ENDBRANCH   6  40
DOCKED: ENDBRANCH   4   6
DOCKED: ENDBRANCH   1   2
DOCKED: BRANCH   1  43
DOCKED: ATOM     43  C20 UNL     1       5.838 -11.296  -4.512 +0.00 +0.00    +0.143 C  
DOCKED: BRANCH  43  44
DOCKED: ATOM     44  O7  UNL     1       6.911 -10.396  -4.780 +0.00 -0.00    -0.389 OA 
DOCKED: ATOM     45  H36 UNL     1       6.518  -9.654  -5.287 +0.00 +0.00    +0.210 HD 
DOCKED: ENDBRANCH  43  44
DOCKED: BRANCH  43  46
DOCKED: ATOM     46  C5  UNL     1       4.808 -11.278  -5.680 +0.00 +0.00    +0.102 C  
DOCKED: BRANCH  46  47
DOCKED: ATOM     47  N1  UNL     1       5.313 -10.536  -6.860 +0.00 -0.00    -0.308 N  
DOCKED: ATOM     48  C6  UNL     1       5.024 -10.835  -8.173 +0.00 +0.00    +0.234 C  
DOCKED: ATOM     49  O1  UNL     1       4.163 -11.645  -8.503 +0.00 -0.00    -0.274 OA 
DOCKED: ATOM     50  H11 UNL     1       6.085  -9.889  -6.687 +0.00 +0.00    +0.149 HD 
DOCKED: BRANCH  48  51
DOCKED: ATOM     51  C7  UNL     1       5.870 -10.071  -9.231 +0.00 +0.00    +0.168 C  
DOCKED: BRANCH  51  52
DOCKED: ATOM     52  N3  UNL     1       6.000  -8.680  -8.780 +0.00 -0.00    -0.302 N  
DOCKED: ATOM     53  C10 UNL     1       4.948  -7.794  -8.880 +0.00 +0.00    +0.234 C  
DOCKED: ATOM     54  O3  UNL     1       3.917  -8.057  -9.505 +0.00 -0.00    -0.274 OA 
DOCKED: ATOM     55  H17 UNL     1       6.661  -8.528  -8.027 +0.00 +0.00    +0.150 HD 
DOCKED: BRANCH  53  56
DOCKED: ATOM     56  C11 UNL     1       5.158  -6.431  -8.171 +0.00 +0.00    +0.161 C  
DOCKED: BRANCH  56  57
DOCKED: ATOM     57  N4  UNL     1       6.165  -6.624  -7.120 +0.00 -0.00    -0.302 N  
DOCKED: ATOM     58  C12 UNL     1       7.499  -6.756  -7.435 +0.00 +0.00    +0.230 C  
DOCKED: ATOM     59  O4  UNL     1       7.920  -6.825  -8.593 +0.00 -0.00    -0.274 OA 
DOCKED: ATOM     60  H19 UNL     1       5.937  -6.217  -6.216 +0.00 +0.00    +0.150 HD 
DOCKED: BRANCH  58  61
DOCKED: ATOM     61  C13 UNL     1       8.447  -6.884  -6.217 +0.00 +0.00    +0.138 C  
DOCKED: BRANCH  61  62
DOCKED: ATOM     62  N5  UNL     1       7.881  -7.898  -5.295 +0.00 -0.00    -0.320 NA 
DOCKED: ATOM     63  H21 UNL     1       7.364  -8.570  -5.871 +0.00 +0.00    +0.119 HD 
DOCKED: ATOM     64  H22 UNL     1       7.155  -7.447  -4.735 +0.00 +0.00    +0.119 HD 
DOCKED: ENDBRANCH  61  62
DOCKED: BRANCH  61  65
DOCKED: ATOM     65  C14 UNL     1       9.856  -7.333  -6.628 +0.00 +0.00    +0.039 C  
DOCKED: BRANCH  65  66
DOCKED: ATOM     66  C15 UNL     1      10.578  -8.188  -5.588 +0.00 +0.00    +0.122 C  
DOCKED: BRANCH  66  67
DOCKED: ATOM     67  C16 UNL     1      10.376  -9.662  -5.793 +0.00 +0.00    +0.305 C  
DOCKED: ATOM     68  O5  UNL     1      11.141 -10.408  -6.387 +0.00 -0.00    -0.251 OA 
DOCKED: BRANCH  67  69
DOCKED: ATOM     69  O6  UNL     1       9.232 -10.131  -5.258 +0.00 -0.00    -0.481 OA 
DOCKED: ATOM     70  H27 UNL     1       8.591  -9.396  -5.347 +0.00 +0.00    +0.295 HD 
DOCKED: ENDBRANCH  67  69
DOCKED: ENDBRANCH  66  67
DOCKED: ENDBRANCH  65  66
DOCKED: ENDBRANCH  61  65
DOCKED: ENDBRANCH  58  61
DOCKED: ENDBRANCH  56  57
DOCKED: BRANCH  56  71
DOCKED: ATOM     71  C17 UNL     1       5.596  -5.275  -9.099 +0.00 +0.00    +0.012 C  
DOCKED: ATOM     72  C18 UNL     1       4.778  -3.999  -8.876 +0.00 +0.00    +0.009 C  
DOCKED: ATOM     73  C19 UNL     1       5.603  -5.645 -10.583 +0.00 +0.00    +0.009 C  
DOCKED: ENDBRANCH  56  71
DOCKED: ENDBRANCH  53  56
DOCKED: ENDBRANCH  51  52
DOCKED: BRANCH  51  74
DOCKED: ATOM     74  C8  UNL     1       7.258 -10.678  -9.413 +0.00 +0.00    +0.127 C  
DOCKED: BRANCH  74  75
DOCKED: ATOM     75  C9  UNL     1       7.994 -10.559  -8.106 +0.00 +0.00    +0.213 C  
DOCKED: ATOM     76  N2  UNL     1       8.987 -11.465  -7.884 +0.00 -0.00    -0.329 N  
DOCKED: ATOM     77  O2  UNL     1       7.670  -9.748  -7.243 +0.00 -0.00    -0.276 OA 
DOCKED: ATOM     78  H15 UNL     1       9.429 -11.459  -6.972 +0.00 +0.00    +0.145 HD 
DOCKED: ATOM     79  H16 UNL     1       9.157 -12.259  -8.488 +0.00 +0.00    +0.145 HD 
DOCKED: ENDBRANCH  74  75
DOCKED: ENDBRANCH  51  74
DOCKED: ENDBRANCH  48  51
DOCKED: ENDBRANCH  46  47
DOCKED: BRANCH  46  80
DOCKED: ATOM     80  C4  UNL     1       4.337 -12.670  -6.185 +0.00 +0.00    +0.028 C  
DOCKED: BRANCH  80  82
DOCKED: ATOM     81  C1  UNL     1       5.413 -14.579  -4.826 +0.00 +0.00    +0.007 C  
DOCKED: ATOM     82  C2  UNL     1       5.290 -13.885  -6.179 +0.00 -0.00    -0.015 C  
DOCKED: ATOM     83  C3  UNL     1       6.657 -13.602  -6.799 +0.00 +0.00    +0.007 C  
DOCKED: ENDBRANCH  80  82
DOCKED: ENDBRANCH  46  80
DOCKED: ENDBRANCH  43  46
DOCKED: ENDBRANCH   1  43
DOCKED: TORSDOF 36
DOCKED: TER
DOCKED: ENDMDL
________________________________________________________________________________


    FINAL DOCKED STATE:
    ________________________


Run:   5 / 20
Time taken for this run:   7.478s

DOCKED: MODEL        5
DOCKED: USER    Run = 5
DOCKED: USER
DOCKED: USER    Estimated Free Energy of Binding    = +10.74 kcal/mol  [=(1)+(2)+(3)-(4)]
DOCKED: USER
DOCKED: USER    (1) Final Intermolecular Energy     =  +0.00 kcal/mol
DOCKED: USER        vdW + Hbond + desolv Energy     =  +0.00 kcal/mol
DOCKED: USER        Electrostatic Energy            =  +0.00 kcal/mol
DOCKED: USER        Moving Ligand-Fixed Receptor    =  +0.00 kcal/mol
DOCKED: USER        Moving Ligand-Moving Receptor   =  +0.00 kcal/mol
DOCKED: USER    (2) Final Total Internal Energy     = -32.14 kcal/mol
DOCKED: USER    (3) Torsional Free Energy           = +10.74 kcal/mol
DOCKED: USER    (4) Unbound System's Energy         = -32.14 kcal/mol
DOCKED: USER
DOCKED: USER
DOCKED: REMARK  Name = ligands/ligand_10.pdb
DOCKED: REMARK  43 active torsions:
DOCKED: REMARK  status: ('A' for Active; 'I' for Inactive)
DOCKED: REMARK    1  A    between atoms: C1_1  and  C2_2
DOCKED: REMARK    2  A    between atoms: C2_2  and  C3_3
DOCKED: REMARK    3  A    between atoms: C2_2  and  C4_4
DOCKED: REMARK    4  A    between atoms: C4_4  and  C5_5
DOCKED: REMARK    5  A    between atoms: C5_5  and  N1_6
DOCKED: REMARK    6  A    between atoms: C5_5  and  C20_31
DOCKED: REMARK    7  A    between atoms: C6_7  and  C7_9
DOCKED: REMARK    8  A    between atoms: C7_9  and  C8_10
DOCKED: REMARK    9  A    between atoms: C7_9  and  N3_14
DOCKED: REMARK   10  A    between atoms: C8_10  and  C9_11
DOCKED: REMARK   11  A    between atoms: C10_15  and  C11_17
DOCKED: REMARK   12  A    between atoms: C11_17  and  N4_18
DOCKED: REMARK   13  A    between atoms: C11_17  and  C17_28
DOCKED: REMARK   14  A    between atoms: C12_19  and  C13_21
DOCKED: REMARK   15  A    between atoms: C13_21  and  N5_22
DOCKED: REMARK   16  A    between atoms: C13_21  and  C14_23
DOCKED: REMARK   17  A    between atoms: C14_23  and  C15_24
DOCKED: REMARK   18  A    between atoms: C15_24  and  C16_25
DOCKED: REMARK   19  A    between atoms: C16_25  and  O6_27
DOCKED: REMARK   20  A    between atoms: C17_28  and  C18_29
DOCKED: REMARK   21  A    between atoms: C17_28  and  C19_30
DOCKED: REMARK   22  A    between atoms: C20_31  and  O7_32
DOCKED: REMARK   23  A    between atoms: C20_31  and  C21_33
DOCKED: REMARK   24  A    between atoms: C21_33  and  C22_34
DOCKED: REMARK   25  A    between atoms: N6_36  and  C23_37
DOCKED: REMARK   26  A    between atoms: C23_37  and  C24_38
DOCKED: REMARK   27  A    between atoms: C23_37  and  C42_66
DOCKED: REMARK   28  A    between atoms: N7_40  and  C25_41
DOCKED: REMARK   29  A    between atoms: C25_41  and  C26_42
DOCKED: REMARK   30  A    between atoms: C25_41  and  C27_43
DOCKED: REMARK   31  A    between atoms: N8_45  and  C28_46
DOCKED: REMARK   32  A    between atoms: C28_46  and  C29_47
DOCKED: REMARK   33  A    between atoms: C28_46  and  C32_52
DOCKED: REMARK   34  A    between atoms: C29_47  and  C30_48
DOCKED: REMARK   35  A    between atoms: C30_48  and  C31_49
DOCKED: REMARK   36  A    between atoms: C31_49  and  O12_51
DOCKED: REMARK   37  A    between atoms: N9_54  and  C33_55
DOCKED: REMARK   38  A    between atoms: C33_55  and  C34_56
DOCKED: REMARK   39  A    between atoms: C33_55  and  C41_63
DOCKED: REMARK   40  A    between atoms: C34_56  and  C35_57
DOCKED: REMARK   41  A    between atoms: C41_63  and  O15_65
DOCKED: REMARK   42  A    between atoms: C42_66  and  C43_67
DOCKED: REMARK   43  A    between atoms: C42_66  and  C44_68
DOCKED: REMARK                            x       y       z     vdW  Elec       q    Type
DOCKED: REMARK                         _______ _______ _______ _____ _____    ______ ____
DOCKED: USER                              x       y       z     vdW  Elec       q    Type
DOCKED: USER                           _______ _______ _______ _____ _____    ______ ____
DOCKED: ROOT
DOCKED: ATOM      1  C21 UNL     1      13.219  -3.532  -0.916 +0.00 +0.00    +0.129 C  
DOCKED: ENDROOT
DOCKED: BRANCH   1   2
DOCKED: ATOM      2  C22 UNL     1      12.268  -2.564  -1.591 +0.00 +0.00    +0.216 C  
DOCKED: ATOM      3  O8  UNL     1      12.250  -1.361  -1.342 +0.00 -0.00    -0.276 OA 
DOCKED: ATOM      4  N6  UNL     1      11.470  -3.153  -2.546 +0.00 -0.00    -0.304 N  
DOCKED: ATOM      5  H39 UNL     1      11.337  -4.156  -2.464 +0.00 +0.00    +0.149 HD 
DOCKED: BRANCH   4   6
DOCKED: ATOM      6  C23 UNL     1      10.314  -2.435  -3.091 +0.00 +0.00    +0.161 C  
DOCKED: BRANCH   6   7
DOCKED: ATOM      7  C24 UNL     1       9.257  -3.529  -3.372 +0.00 +0.00    +0.234 C  
DOCKED: ATOM      8  O9  UNL     1       9.568  -4.696  -3.619 +0.00 -0.00    -0.274 OA 
DOCKED: ATOM      9  N7  UNL     1       7.957  -3.093  -3.355 +0.00 -0.00    -0.303 N  
DOCKED: ATOM     10  H41 UNL     1       7.741  -2.120  -3.155 +0.00 +0.00    +0.149 HD 
DOCKED: BRANCH   9  11
DOCKED: ATOM     11  C25 UNL     1       6.820  -3.972  -3.593 +0.00 +0.00    +0.156 C  
DOCKED: ATOM     12  C26 UNL     1       7.100  -4.919  -4.752 +0.00 +0.00    +0.038 C  
DOCKED: BRANCH  11  13
DOCKED: ATOM     13  C27 UNL     1       6.560  -4.750  -2.286 +0.00 +0.00    +0.234 C  
DOCKED: ATOM     14  O10 UNL     1       5.530  -4.595  -1.626 +0.00 -0.00    -0.274 OA 
DOCKED: ATOM     15  N8  UNL     1       7.551  -5.645  -1.931 +0.00 -0.00    -0.302 N  
DOCKED: ATOM     16  H46 UNL     1       8.469  -5.499  -2.336 +0.00 +0.00    +0.150 HD 
DOCKED: BRANCH  15  17
DOCKED: ATOM     17  C28 UNL     1       7.554  -6.257  -0.606 +0.00 +0.00    +0.159 C  
DOCKED: BRANCH  17  18
DOCKED: ATOM     18  C32 UNL     1       7.488  -5.133   0.451 +0.00 +0.00    +0.234 C  
DOCKED: ATOM     19  O13 UNL     1       7.510  -3.944   0.138 +0.00 -0.00    -0.274 OA 
DOCKED: ATOM     20  N9  UNL     1       7.464  -5.575   1.752 +0.00 -0.00    -0.301 N  
DOCKED: ATOM     21  H53 UNL     1       7.608  -6.559   1.938 +0.00 +0.00    +0.150 HD 
DOCKED: BRANCH  20  22
DOCKED: ATOM     22  C33 UNL     1       7.696  -4.660   2.878 +0.00 +0.00    +0.186 C  
DOCKED: BRANCH  22  23
DOCKED: ATOM     23  C41 UNL     1       9.152  -4.225   2.768 +0.00 +0.00    +0.326 C  
DOCKED: ATOM     24  O14 UNL     1       9.726  -3.477   3.545 +0.00 -0.00    -0.249 OA 
DOCKED: BRANCH  23  25
DOCKED: ATOM     25  O15 UNL     1       9.781  -4.710   1.680 +0.00 -0.00    -0.479 OA 
DOCKED: ATOM     26  H62 UNL     1       9.499  -4.111   0.958 +0.00 +0.00    +0.295 HD 
DOCKED: ENDBRANCH  23  25
DOCKED: ENDBRANCH  22  23
DOCKED: BRANCH  22  27
DOCKED: ATOM     27  C34 UNL     1       7.499  -5.345   4.235 +0.00 +0.00    +0.069 C  
DOCKED: BRANCH  27  28
DOCKED: ATOM     28  C35 UNL     1       8.684  -6.176   4.668 +0.00 -0.00    -0.045 A  
DOCKED: ATOM     29  C36 UNL     1       9.075  -7.301   3.928 +0.00 +0.00    +0.004 A  
DOCKED: ATOM     30  C37 UNL     1      10.173  -8.065   4.330 +0.00 +0.00    +0.000 A  
DOCKED: ATOM     31  C38 UNL     1      10.887  -7.716   5.475 +0.00 +0.00    +0.000 A  
DOCKED: ATOM     32  C39 UNL     1      10.508  -6.600   6.217 +0.00 +0.00    +0.000 A  
DOCKED: ATOM     33  C40 UNL     1       9.411  -5.833   5.817 +0.00 +0.00    +0.004 A  
DOCKED: ENDBRANCH  27  28
DOCKED: ENDBRANCH  22  27
DOCKED: ENDBRANCH  20  22
DOCKED: ENDBRANCH  17  18
DOCKED: BRANCH  17  34
DOCKED: ATOM     34  C29 UNL     1       8.760  -7.190  -0.393 +0.00 +0.00    +0.043 C  
DOCKED: BRANCH  34  35
DOCKED: ATOM     35  C30 UNL     1       9.868  -7.116  -1.446 +0.00 +0.00    +0.123 C  
DOCKED: BRANCH  35  36
DOCKED: ATOM     36  C31 UNL     1      10.756  -5.922  -1.254 +0.00 +0.00    +0.305 C  
DOCKED: ATOM     37  O11 UNL     1      11.973  -5.916  -1.318 +0.00 -0.00    -0.251 OA 
DOCKED: BRANCH  36  38
DOCKED: ATOM     38  O12 UNL     1      10.058  -4.820  -0.925 +0.00 -0.00    -0.481 OA 
DOCKED: ATOM     39  H52 UNL     1      10.637  -4.344  -0.292 +0.00 +0.00    +0.295 HD 
DOCKED: ENDBRANCH  36  38
DOCKED: ENDBRANCH  35  36
DOCKED: ENDBRANCH  34  35
DOCKED: ENDBRANCH  17  34
DOCKED: ENDBRANCH  15  17
DOCKED: ENDBRANCH  11  13
DOCKED: ENDBRANCH   9  11
DOCKED: ENDBRANCH   6   7
DOCKED: BRANCH   6  40
DOCKED: ATOM     40  C42 UNL     1      10.711  -1.661  -4.368 +0.00 +0.00    +0.012 C  
DOCKED: ATOM     41  C43 UNL     1      10.355  -0.174  -4.229 +0.00 +0.00    +0.009 C  
DOCKED: ATOM     42  C44 UNL     1      10.059  -2.220  -5.632 +0.00 +0.00    +0.009 C  
DOCKED: ENDBRANCH   6  40
DOCKED: ENDBRANCH   4   6
DOCKED: ENDBRANCH   1   2
DOCKED: BRANCH   1  43
DOCKED: ATOM     43  C20 UNL     1      12.826  -3.728   0.549 +0.00 +0.00    +0.143 C  
DOCKED: BRANCH  43  44
DOCKED: ATOM     44  O7  UNL     1      11.487  -3.281   0.756 +0.00 -0.00    -0.389 OA 
DOCKED: ATOM     45  H36 UNL     1      11.484  -2.329   0.521 +0.00 +0.00    +0.210 HD 
DOCKED: ENDBRANCH  43  44
DOCKED: BRANCH  43  46
DOCKED: ATOM     46  C5  UNL     1      13.795  -3.025   1.544 +0.00 +0.00    +0.102 C  
DOCKED: BRANCH  46  47
DOCKED: ATOM     47  N1  UNL     1      13.309  -1.683   1.945 +0.00 -0.00    -0.308 N  
DOCKED: ATOM     48  C6  UNL     1      14.015  -0.772   2.700 +0.00 +0.00    +0.234 C  
DOCKED: ATOM     49  O1  UNL     1      15.204  -0.903   2.970 +0.00 -0.00    -0.274 OA 
DOCKED: ATOM     50  H11 UNL     1      12.308  -1.512   1.821 +0.00 +0.00    +0.149 HD 
DOCKED: BRANCH  48  51
DOCKED: ATOM     51  C7  UNL     1      13.198   0.455   3.197 +0.00 +0.00    +0.168 C  
DOCKED: BRANCH  51  52
DOCKED: ATOM     52  N3  UNL     1      12.233   0.804   2.149 +0.00 -0.00    -0.302 N  
DOCKED: ATOM     53  C10 UNL     1      12.643   1.083   0.862 +0.00 +0.00    +0.234 C  
DOCKED: ATOM     54  O3  UNL     1      13.831   1.230   0.563 +0.00 -0.00    -0.274 OA 
DOCKED: ATOM     55  H17 UNL     1      11.306   0.408   2.261 +0.00 +0.00    +0.150 HD 
DOCKED: BRANCH  53  56
DOCKED: ATOM     56  C11 UNL     1      11.506   1.223  -0.183 +0.00 +0.00    +0.161 C  
DOCKED: BRANCH  56  57
DOCKED: ATOM     57  N4  UNL     1      10.607   0.073  -0.023 +0.00 -0.00    -0.302 N  
DOCKED: ATOM     58  C12 UNL     1       9.411   0.011  -0.704 +0.00 +0.00    +0.230 C  
DOCKED: ATOM     59  O4  UNL     1       8.974   0.936  -1.394 +0.00 -0.00    -0.274 OA 
DOCKED: ATOM     60  H19 UNL     1      11.059  -0.808   0.206 +0.00 +0.00    +0.150 HD 
DOCKED: BRANCH  58  61
DOCKED: ATOM     61  C13 UNL     1       8.604  -1.292  -0.486 +0.00 +0.00    +0.138 C  
DOCKED: BRANCH  61  62
DOCKED: ATOM     62  N5  UNL     1       9.562  -2.418  -0.382 +0.00 -0.00    -0.320 NA 
DOCKED: ATOM     63  H21 UNL     1       9.391  -2.874   0.519 +0.00 +0.00    +0.119 HD 
DOCKED: ATOM     64  H22 UNL     1      10.501  -2.027  -0.284 +0.00 +0.00    +0.119 HD 
DOCKED: ENDBRANCH  61  62
DOCKED: BRANCH  61  65
DOCKED: ATOM     65  C14 UNL     1       7.768  -1.245   0.801 +0.00 +0.00    +0.039 C  
DOCKED: BRANCH  65  66
DOCKED: ATOM     66  C15 UNL     1       8.251  -0.228   1.834 +0.00 +0.00    +0.122 C  
DOCKED: BRANCH  66  67
DOCKED: ATOM     67  C16 UNL     1       9.492  -0.666   2.558 +0.00 +0.00    +0.305 C  
DOCKED: ATOM     68  O5  UNL     1       9.795  -0.353   3.700 +0.00 -0.00    -0.251 OA 
DOCKED: BRANCH  67  69
DOCKED: ATOM     69  O6  UNL     1      10.294  -1.461   1.824 +0.00 -0.00    -0.481 OA 
DOCKED: ATOM     70  H27 UNL     1       9.827  -2.319   1.777 +0.00 +0.00    +0.295 HD 
DOCKED: ENDBRANCH  67  69
DOCKED: ENDBRANCH  66  67
DOCKED: ENDBRANCH  65  66
DOCKED: ENDBRANCH  61  65
DOCKED: ENDBRANCH  58  61
DOCKED: ENDBRANCH  56  57
DOCKED: BRANCH  56  71
DOCKED: ATOM     71  C17 UNL     1      10.691   2.533  -0.088 +0.00 +0.00    +0.012 C  
DOCKED: ATOM     72  C18 UNL     1      11.505   3.764  -0.497 +0.00 +0.00    +0.009 C  
DOCKED: ATOM     73  C19 UNL     1      10.045   2.757   1.280 +0.00 +0.00    +0.009 C  
DOCKED: ENDBRANCH  56  71
DOCKED: ENDBRANCH  53  56
DOCKED: ENDBRANCH  51  52
DOCKED: BRANCH  51  74
DOCKED: ATOM     74  C8  UNL     1      12.452   0.167   4.498 +0.00 +0.00    +0.127 C  
DOCKED: BRANCH  74  75
DOCKED: ATOM     75  C9  UNL     1      12.598  -1.299   4.804 +0.00 +0.00    +0.213 C  
DOCKED: ATOM     76  N2  UNL     1      11.616  -2.117   4.333 +0.00 -0.00    -0.329 N  
DOCKED: ATOM     77  O2  UNL     1      13.503  -1.734   5.510 +0.00 -0.00    -0.276 OA 
DOCKED: ATOM     78  H15 UNL     1      11.648  -3.092   4.608 +0.00 +0.00    +0.145 HD 
DOCKED: ATOM     79  H16 UNL     1      10.763  -1.772   3.909 +0.00 +0.00    +0.145 HD 
DOCKED: ENDBRANCH  74  75
DOCKED: ENDBRANCH  51  74
DOCKED: ENDBRANCH  48  51
DOCKED: ENDBRANCH  46  47
DOCKED: BRANCH  46  80
DOCKED: ATOM     80  C4  UNL     1      14.103  -3.807   2.852 +0.00 +0.00    +0.028 C  
DOCKED: BRANCH  80  82
DOCKED: ATOM     81  C1  UNL     1      13.230  -4.950   4.992 +0.00 +0.00    +0.007 C  
DOCKED: ATOM     82  C2  UNL     1      13.048  -4.736   3.493 +0.00 -0.00    -0.015 C  
DOCKED: ATOM     83  C3  UNL     1      12.854  -6.056   2.750 +0.00 +0.00    +0.007 C  
DOCKED: ENDBRANCH  80  82
DOCKED: ENDBRANCH  46  80
DOCKED: ENDBRANCH  43  46
DOCKED: ENDBRANCH   1  43
DOCKED: TORSDOF 36
DOCKED: TER
DOCKED: ENDMDL
________________________________________________________________________________


    FINAL DOCKED STATE:
    ________________________


Run:   6 / 20
Time taken for this run:   7.478s

DOCKED: MODEL        6
DOCKED: USER    Run = 6
DOCKED: USER
DOCKED: USER    Estimated Free Energy of Binding    = +10.74 kcal/mol  [=(1)+(2)+(3)-(4)]
DOCKED: USER
DOCKED: USER    (1) Final Intermolecular Energy     =  +0.00 kcal/mol
DOCKED: USER        vdW + Hbond + desolv Energy     =  +0.00 kcal/mol
DOCKED: USER        Electrostatic Energy            =  +0.00 kcal/mol
DOCKED: USER        Moving Ligand-Fixed Receptor    =  +0.00 kcal/mol
DOCKED: USER        Moving Ligand-Moving Receptor   =  +0.00 kcal/mol
DOCKED: USER    (2) Final Total Internal Energy     = -32.32 kcal/mol
DOCKED: USER    (3) Torsional Free Energy           = +10.74 kcal/mol
DOCKED: USER    (4) Unbound System's Energy         = -32.32 kcal/mol
DOCKED: USER
DOCKED: USER
DOCKED: REMARK  Name = ligands/ligand_10.pdb
DOCKED: REMARK  43 active torsions:
DOCKED: REMARK  status: ('A' for Active; 'I' for Inactive)
DOCKED: REMARK    1  A    between atoms: C1_1  and  C2_2
DOCKED: REMARK    2  A    between atoms: C2_2  and  C3_3
DOCKED: REMARK    3  A    between atoms: C2_2  and  C4_4
DOCKED: REMARK    4  A    between atoms: C4_4  and  C5_5
DOCKED: REMARK    5  A    between atoms: C5_5  and  N1_6
DOCKED: REMARK    6  A    between atoms: C5_5  and  C20_31
DOCKED: REMARK    7  A    between atoms: C6_7  and  C7_9
DOCKED: REMARK    8  A    between atoms: C7_9  and  C8_10
DOCKED: REMARK    9  A    between atoms: C7_9  and  N3_14
DOCKED: REMARK   10  A    between atoms: C8_10  and  C9_11
DOCKED: REMARK   11  A    between atoms: C10_15  and  C11_17
DOCKED: REMARK   12  A    between atoms: C11_17  and  N4_18
DOCKED: REMARK   13  A    between atoms: C11_17  and  C17_28
DOCKED: REMARK   14  A    between atoms: C12_19  and  C13_21
DOCKED: REMARK   15  A    between atoms: C13_21  and  N5_22
DOCKED: REMARK   16  A    between atoms: C13_21  and  C14_23
DOCKED: REMARK   17  A    between atoms: C14_23  and  C15_24
DOCKED: REMARK   18  A    between atoms: C15_24  and  C16_25
DOCKED: REMARK   19  A    between atoms: C16_25  and  O6_27
DOCKED: REMARK   20  A    between atoms: C17_28  and  C18_29
DOCKED: REMARK   21  A    between atoms: C17_28  and  C19_30
DOCKED: REMARK   22  A    between atoms: C20_31  and  O7_32
DOCKED: REMARK   23  A    between atoms: C20_31  and  C21_33
DOCKED: REMARK   24  A    between atoms: C21_33  and  C22_34
DOCKED: REMARK   25  A    between atoms: N6_36  and  C23_37
DOCKED: REMARK   26  A    between atoms: C23_37  and  C24_38
DOCKED: REMARK   27  A    between atoms: C23_37  and  C42_66
DOCKED: REMARK   28  A    between atoms: N7_40  and  C25_41
DOCKED: REMARK   29  A    between atoms: C25_41  and  C26_42
DOCKED: REMARK   30  A    between atoms: C25_41  and  C27_43
DOCKED: REMARK   31  A    between atoms: N8_45  and  C28_46
DOCKED: REMARK   32  A    between atoms: C28_46  and  C29_47
DOCKED: REMARK   33  A    between atoms: C28_46  and  C32_52
DOCKED: REMARK   34  A    between atoms: C29_47  and  C30_48
DOCKED: REMARK   35  A    between atoms: C30_48  and  C31_49
DOCKED: REMARK   36  A    between atoms: C31_49  and  O12_51
DOCKED: REMARK   37  A    between atoms: N9_54  and  C33_55
DOCKED: REMARK   38  A    between atoms: C33_55  and  C34_56
DOCKED: REMARK   39  A    between atoms: C33_55  and  C41_63
DOCKED: REMARK   40  A    between atoms: C34_56  and  C35_57
DOCKED: REMARK   41  A    between atoms: C41_63  and  O15_65
DOCKED: REMARK   42  A    between atoms: C42_66  and  C43_67
DOCKED: REMARK   43  A    between atoms: C42_66  and  C44_68
DOCKED: REMARK                            x       y       z     vdW  Elec       q    Type
DOCKED: REMARK                         _______ _______ _______ _____ _____    ______ ____
DOCKED: USER                              x       y       z     vdW  Elec       q    Type
DOCKED: USER                           _______ _______ _______ _____ _____    ______ ____
DOCKED: ROOT
DOCKED: ATOM      1  C21 UNL     1       6.889  -1.109   2.349 +0.00 +0.00    +0.129 C  
DOCKED: ENDROOT
DOCKED: BRANCH   1   2
DOCKED: ATOM      2  C22 UNL     1       7.221  -2.583   2.473 +0.00 +0.00    +0.216 C  
DOCKED: ATOM      3  O8  UNL     1       8.356  -3.028   2.319 +0.00 -0.00    -0.276 OA 
DOCKED: ATOM      4  N6  UNL     1       6.143  -3.362   2.828 +0.00 -0.00    -0.304 N  
DOCKED: ATOM      5  H39 UNL     1       5.225  -2.974   2.633 +0.00 +0.00    +0.149 HD 
DOCKED: BRANCH   4   6
DOCKED: ATOM      6  C23 UNL     1       6.215  -4.821   2.718 +0.00 +0.00    +0.161 C  
DOCKED: BRANCH   6   7
DOCKED: ATOM      7  C24 UNL     1       5.582  -5.154   1.346 +0.00 +0.00    +0.234 C  
DOCKED: ATOM      8  O9  UNL     1       4.835  -4.369   0.760 +0.00 -0.00    -0.274 OA 
DOCKED: ATOM      9  N7  UNL     1       5.893  -6.395   0.854 +0.00 -0.00    -0.303 N  
DOCKED: ATOM     10  H41 UNL     1       6.508  -7.017   1.372 +0.00 +0.00    +0.149 HD 
DOCKED: BRANCH   9  11
DOCKED: ATOM     11  C25 UNL     1       5.399  -6.891  -0.424 +0.00 +0.00    +0.156 C  
DOCKED: ATOM     12  C26 UNL     1       3.929  -6.535  -0.611 +0.00 +0.00    +0.038 C  
DOCKED: BRANCH  11  13
DOCKED: ATOM     13  C27 UNL     1       6.271  -6.260  -1.530 +0.00 +0.00    +0.234 C  
DOCKED: ATOM     14  O10 UNL     1       7.469  -6.023  -1.362 +0.00 -0.00    -0.274 OA 
DOCKED: ATOM     15  N8  UNL     1       5.615  -6.008  -2.720 +0.00 -0.00    -0.302 N  
DOCKED: ATOM     16  H46 UNL     1       4.603  -5.942  -2.683 +0.00 +0.00    +0.150 HD 
DOCKED: BRANCH  15  17
DOCKED: ATOM     17  C28 UNL     1       6.246  -5.193  -3.753 +0.00 +0.00    +0.159 C  
DOCKED: BRANCH  17  18
DOCKED: ATOM     18  C32 UNL     1       7.652  -5.766  -4.036 +0.00 +0.00    +0.234 C  
DOCKED: ATOM     19  O13 UNL     1       7.825  -6.724  -4.787 +0.00 -0.00    -0.274 OA 
DOCKED: ATOM     20  N9  UNL     1       8.668  -5.156  -3.340 +0.00 -0.00    -0.301 N  
DOCKED: ATOM     21  H53 UNL     1       8.433  -4.481  -2.623 +0.00 +0.00    +0.150 HD 
DOCKED: BRANCH  20  22
DOCKED: ATOM     22  C33 UNL     1      10.008  -5.749  -3.259 +0.00 +0.00    +0.186 C  
DOCKED: BRANCH  22  23
DOCKED: ATOM     23  C41 UNL     1      10.385  -5.728  -1.783 +0.00 +0.00    +0.326 C  
DOCKED: ATOM     24  O14 UNL     1      10.897  -6.654  -1.172 +0.00 -0.00    -0.249 OA 
DOCKED: BRANCH  23  25
DOCKED: ATOM     25  O15 UNL     1      10.062  -4.579  -1.158 +0.00 -0.00    -0.479 OA 
DOCKED: ATOM     26  H62 UNL     1       9.111  -4.685  -0.949 +0.00 +0.00    +0.295 HD 
DOCKED: ENDBRANCH  23  25
DOCKED: ENDBRANCH  22  23
DOCKED: BRANCH  22  27
DOCKED: ATOM     27  C34 UNL     1      11.053  -4.938  -4.035 +0.00 +0.00    +0.069 C  
DOCKED: BRANCH  27  28
DOCKED: ATOM     28  C35 UNL     1      10.513  -3.645  -4.599 +0.00 -0.00    -0.045 A  
DOCKED: ATOM     29  C36 UNL     1       9.774  -3.640  -5.790 +0.00 +0.00    +0.004 A  
DOCKED: ATOM     30  C37 UNL     1       9.275  -2.442  -6.307 +0.00 +0.00    +0.000 A  
DOCKED: ATOM     31  C38 UNL     1       9.512  -1.240  -5.643 +0.00 +0.00    +0.000 A  
DOCKED: ATOM     32  C39 UNL     1      10.245  -1.233  -4.458 +0.00 +0.00    +0.000 A  
DOCKED: ATOM     33  C40 UNL     1      10.745  -2.430  -3.939 +0.00 +0.00    +0.004 A  
DOCKED: ENDBRANCH  27  28
DOCKED: ENDBRANCH  22  27
DOCKED: ENDBRANCH  20  22
DOCKED: ENDBRANCH  17  18
DOCKED: BRANCH  17  34
DOCKED: ATOM     34  C29 UNL     1       6.287  -3.700  -3.379 +0.00 +0.00    +0.043 C  
DOCKED: BRANCH  34  35
DOCKED: ATOM     35  C30 UNL     1       6.233  -3.373  -1.885 +0.00 +0.00    +0.123 C  
DOCKED: BRANCH  35  36
DOCKED: ATOM     36  C31 UNL     1       7.600  -3.195  -1.292 +0.00 +0.00    +0.305 C  
DOCKED: ATOM     37  O11 UNL     1       8.556  -2.676  -1.840 +0.00 -0.00    -0.251 OA 
DOCKED: BRANCH  36  38
DOCKED: ATOM     38  O12 UNL     1       7.697  -3.744  -0.068 +0.00 -0.00    -0.481 OA 
DOCKED: ATOM     39  H52 UNL     1       8.621  -3.566   0.207 +0.00 +0.00    +0.295 HD 
DOCKED: ENDBRANCH  36  38
DOCKED: ENDBRANCH  35  36
DOCKED: ENDBRANCH  34  35
DOCKED: ENDBRANCH  17  34
DOCKED: ENDBRANCH  15  17
DOCKED: ENDBRANCH  11  13
DOCKED: ENDBRANCH   9  11
DOCKED: ENDBRANCH   6   7
DOCKED: BRANCH   6  40
DOCKED: ATOM     40  C42 UNL     1       5.459  -5.490   3.890 +0.00 +0.00    +0.012 C  
DOCKED: ATOM     41  C43 UNL     1       6.006  -4.994   5.236 +0.00 +0.00    +0.009 C  
DOCKED: ATOM     42  C44 UNL     1       5.525  -7.016   3.849 +0.00 +0.00    +0.009 C  
DOCKED: ENDBRANCH   6  40
DOCKED: ENDBRANCH   4   6
DOCKED: ENDBRANCH   1   2
DOCKED: BRANCH   1  43
DOCKED: ATOM     43  C20 UNL     1       7.866  -0.422   1.395 +0.00 +0.00    +0.143 C  
DOCKED: BRANCH  43  44
DOCKED: ATOM     44  O7  UNL     1       8.190  -1.300   0.319 +0.00 -0.00    -0.389 OA 
DOCKED: ATOM     45  H36 UNL     1       8.729  -2.018   0.712 +0.00 +0.00    +0.210 HD 
DOCKED: ENDBRANCH  43  44
DOCKED: BRANCH  43  46
DOCKED: ATOM     46  C5  UNL     1       9.162   0.078   2.098 +0.00 +0.00    +0.102 C  
DOCKED: BRANCH  46  47
DOCKED: ATOM     47  N1  UNL     1      10.171  -0.999   2.247 +0.00 -0.00    -0.308 N  
DOCKED: ATOM     48  C6  UNL     1      11.476  -0.818   2.647 +0.00 +0.00    +0.234 C  
DOCKED: ATOM     49  O1  UNL     1      11.898   0.239   3.105 +0.00 -0.00    -0.274 OA 
DOCKED: ATOM     50  H11 UNL     1       9.930  -1.900   1.829 +0.00 +0.00    +0.149 HD 
DOCKED: BRANCH  48  51
DOCKED: ATOM     51  C7  UNL     1      12.399  -2.059   2.483 +0.00 +0.00    +0.168 C  
DOCKED: BRANCH  51  52
DOCKED: ATOM     52  N3  UNL     1      11.696  -3.218   3.047 +0.00 -0.00    -0.302 N  
DOCKED: ATOM     53  C10 UNL     1      10.979  -3.118   4.221 +0.00 +0.00    +0.234 C  
DOCKED: ATOM     54  O3  UNL     1      11.032  -2.122   4.947 +0.00 -0.00    -0.274 OA 
DOCKED: ATOM     55  H17 UNL     1      11.382  -3.907   2.372 +0.00 +0.00    +0.150 HD 
DOCKED: BRANCH  53  56
DOCKED: ATOM     56  C11 UNL     1      10.117  -4.356   4.580 +0.00 +0.00    +0.161 C  
DOCKED: BRANCH  56  57
DOCKED: ATOM     57  N4  UNL     1       9.791  -5.053   3.329 +0.00 -0.00    -0.302 N  
DOCKED: ATOM     58  C12 UNL     1       8.972  -6.160   3.330 +0.00 +0.00    +0.230 C  
DOCKED: ATOM     59  O4  UNL     1       8.553  -6.694   4.360 +0.00 -0.00    -0.274 OA 
DOCKED: ATOM     60  H19 UNL     1       9.792  -4.474   2.493 +0.00 +0.00    +0.150 HD 
DOCKED: BRANCH  58  61
DOCKED: ATOM     61  C13 UNL     1       8.665  -6.745   1.929 +0.00 +0.00    +0.138 C  
DOCKED: BRANCH  61  62
DOCKED: ATOM     62  N5  UNL     1       8.719  -5.638   0.944 +0.00 -0.00    -0.320 NA 
DOCKED: ATOM     63  H21 UNL     1       9.417  -5.899   0.240 +0.00 +0.00    +0.119 HD 
DOCKED: ATOM     64  H22 UNL     1       9.130  -4.824   1.404 +0.00 +0.00    +0.119 HD 
DOCKED: ENDBRANCH  61  62
DOCKED: BRANCH  61  65
DOCKED: ATOM     65  C14 UNL     1       9.684  -7.816   1.514 +0.00 +0.00    +0.039 C  
DOCKED: BRANCH  65  66
DOCKED: ATOM     66  C15 UNL     1      11.078  -7.629   2.109 +0.00 +0.00    +0.122 C  
DOCKED: BRANCH  66  67
DOCKED: ATOM     67  C16 UNL     1      11.881  -6.568   1.411 +0.00 +0.00    +0.305 C  
DOCKED: ATOM     68  O5  UNL     1      13.001  -6.717   0.946 +0.00 -0.00    -0.251 OA 
DOCKED: BRANCH  67  69
DOCKED: ATOM     69  O6  UNL     1      11.255  -5.378   1.334 +0.00 -0.00    -0.481 OA 
DOCKED: ATOM     70  H27 UNL     1      10.816  -5.379   0.460 +0.00 +0.00    +0.295 HD 
DOCKED: ENDBRANCH  67  69
DOCKED: ENDBRANCH  66  67
DOCKED: ENDBRANCH  65  66
DOCKED: ENDBRANCH  61  65
DOCKED: ENDBRANCH  58  61
DOCKED: ENDBRANCH  56  57
DOCKED: BRANCH  56  71
DOCKED: ATOM     71  C17 UNL     1      10.777  -5.347   5.565 +0.00 +0.00    +0.012 C  
DOCKED: ATOM     72  C18 UNL     1      10.936  -4.762   6.971 +0.00 +0.00    +0.009 C  
DOCKED: ATOM     73  C19 UNL     1      12.112  -5.907   5.072 +0.00 +0.00    +0.009 C  
DOCKED: ENDBRANCH  56  71
DOCKED: ENDBRANCH  53  56
DOCKED: ENDBRANCH  51  52
DOCKED: BRANCH  51  74
DOCKED: ATOM     74  C8  UNL     1      12.745  -2.337   1.023 +0.00 +0.00    +0.127 C  
DOCKED: BRANCH  74  75
DOCKED: ATOM     75  C9  UNL     1      11.472  -2.689   0.301 +0.00 +0.00    +0.213 C  
DOCKED: ATOM     76  N2  UNL     1      11.379  -2.284  -0.996 +0.00 -0.00    -0.329 N  
DOCKED: ATOM     77  O2  UNL     1      10.529  -3.237   0.865 +0.00 -0.00    -0.276 OA 
DOCKED: ATOM     78  H15 UNL     1      10.494  -2.431  -1.469 +0.00 +0.00    +0.145 HD 
DOCKED: ATOM     79  H16 UNL     1      12.055  -1.672  -1.436 +0.00 +0.00    +0.145 HD 
DOCKED: ENDBRANCH  74  75
DOCKED: ENDBRANCH  51  74
DOCKED: ENDBRANCH  48  51
DOCKED: ENDBRANCH  46  47
DOCKED: BRANCH  46  80
DOCKED: ATOM     80  C4  UNL     1       9.876   1.280   1.420 +0.00 +0.00    +0.028 C  
DOCKED: BRANCH  80  82
DOCKED: ATOM     81  C1  UNL     1      11.810   2.104  -0.073 +0.00 +0.00    +0.007 C  
DOCKED: ATOM     82  C2  UNL     1      10.680   1.097   0.114 +0.00 -0.00    -0.015 C  
DOCKED: ATOM     83  C3  UNL     1       9.810   0.980  -1.136 +0.00 +0.00    +0.007 C  
DOCKED: ENDBRANCH  80  82
DOCKED: ENDBRANCH  46  80
DOCKED: ENDBRANCH  43  46
DOCKED: ENDBRANCH   1  43
DOCKED: TORSDOF 36
DOCKED: TER
DOCKED: ENDMDL
________________________________________________________________________________


    FINAL DOCKED STATE:
    ________________________


Run:   7 / 20
Time taken for this run:   7.478s

DOCKED: MODEL        7
DOCKED: USER    Run = 7
DOCKED: USER
DOCKED: USER    Estimated Free Energy of Binding    = +10.74 kcal/mol  [=(1)+(2)+(3)-(4)]
DOCKED: USER
DOCKED: USER    (1) Final Intermolecular Energy     =  +0.00 kcal/mol
DOCKED: USER        vdW + Hbond + desolv Energy     =  +0.00 kcal/mol
DOCKED: USER        Electrostatic Energy            =  +0.00 kcal/mol
DOCKED: USER        Moving Ligand-Fixed Receptor    =  +0.00 kcal/mol
DOCKED: USER        Moving Ligand-Moving Receptor   =  +0.00 kcal/mol
DOCKED: USER    (2) Final Total Internal Energy     = -32.19 kcal/mol
DOCKED: USER    (3) Torsional Free Energy           = +10.74 kcal/mol
DOCKED: USER    (4) Unbound System's Energy         = -32.19 kcal/mol
DOCKED: USER
DOCKED: USER
DOCKED: REMARK  Name = ligands/ligand_10.pdb
DOCKED: REMARK  43 active torsions:
DOCKED: REMARK  status: ('A' for Active; 'I' for Inactive)
DOCKED: REMARK    1  A    between atoms: C1_1  and  C2_2
DOCKED: REMARK    2  A    between atoms: C2_2  and  C3_3
DOCKED: REMARK    3  A    between atoms: C2_2  and  C4_4
DOCKED: REMARK    4  A    between atoms: C4_4  and  C5_5
DOCKED: REMARK    5  A    between atoms: C5_5  and  N1_6
DOCKED: REMARK    6  A    between atoms: C5_5  and  C20_31
DOCKED: REMARK    7  A    between atoms: C6_7  and  C7_9
DOCKED: REMARK    8  A    between atoms: C7_9  and  C8_10
DOCKED: REMARK    9  A    between atoms: C7_9  and  N3_14
DOCKED: REMARK   10  A    between atoms: C8_10  and  C9_11
DOCKED: REMARK   11  A    between atoms: C10_15  and  C11_17
DOCKED: REMARK   12  A    between atoms: C11_17  and  N4_18
DOCKED: REMARK   13  A    between atoms: C11_17  and  C17_28
DOCKED: REMARK   14  A    between atoms: C12_19  and  C13_21
DOCKED: REMARK   15  A    between atoms: C13_21  and  N5_22
DOCKED: REMARK   16  A    between atoms: C13_21  and  C14_23
DOCKED: REMARK   17  A    between atoms: C14_23  and  C15_24
DOCKED: REMARK   18  A    between atoms: C15_24  and  C16_25
DOCKED: REMARK   19  A    between atoms: C16_25  and  O6_27
DOCKED: REMARK   20  A    between atoms: C17_28  and  C18_29
DOCKED: REMARK   21  A    between atoms: C17_28  and  C19_30
DOCKED: REMARK   22  A    between atoms: C20_31  and  O7_32
DOCKED: REMARK   23  A    between atoms: C20_31  and  C21_33
DOCKED: REMARK   24  A    between atoms: C21_33  and  C22_34
DOCKED: REMARK   25  A    between atoms: N6_36  and  C23_37
DOCKED: REMARK   26  A    between atoms: C23_37  and  C24_38
DOCKED: REMARK   27  A    between atoms: C23_37  and  C42_66
DOCKED: REMARK   28  A    between atoms: N7_40  and  C25_41
DOCKED: REMARK   29  A    between atoms: C25_41  and  C26_42
DOCKED: REMARK   30  A    between atoms: C25_41  and  C27_43
DOCKED: REMARK   31  A    between atoms: N8_45  and  C28_46
DOCKED: REMARK   32  A    between atoms: C28_46  and  C29_47
DOCKED: REMARK   33  A    between atoms: C28_46  and  C32_52
DOCKED: REMARK   34  A    between atoms: C29_47  and  C30_48
DOCKED: REMARK   35  A    between atoms: C30_48  and  C31_49
DOCKED: REMARK   36  A    between atoms: C31_49  and  O12_51
DOCKED: REMARK   37  A    between atoms: N9_54  and  C33_55
DOCKED: REMARK   38  A    between atoms: C33_55  and  C34_56
DOCKED: REMARK   39  A    between atoms: C33_55  and  C41_63
DOCKED: REMARK   40  A    between atoms: C34_56  and  C35_57
DOCKED: REMARK   41  A    between atoms: C41_63  and  O15_65
DOCKED: REMARK   42  A    between atoms: C42_66  and  C43_67
DOCKED: REMARK   43  A    between atoms: C42_66  and  C44_68
DOCKED: REMARK                            x       y       z     vdW  Elec       q    Type
DOCKED: REMARK                         _______ _______ _______ _____ _____    ______ ____
DOCKED: USER                              x       y       z     vdW  Elec       q    Type
DOCKED: USER                           _______ _______ _______ _____ _____    ______ ____
DOCKED: ROOT
DOCKED: ATOM      1  C21 UNL     1       9.913  -6.662  -0.755 +0.00 +0.00    +0.129 C  
DOCKED: ENDROOT
DOCKED: BRANCH   1   2
DOCKED: ATOM      2  C22 UNL     1       8.845  -5.734  -0.211 +0.00 +0.00    +0.216 C  
DOCKED: ATOM      3  O8  UNL     1       8.661  -4.599  -0.644 +0.00 -0.00    -0.276 OA 
DOCKED: ATOM      4  N6  UNL     1       8.070  -6.304   0.774 +0.00 -0.00    -0.304 N  
DOCKED: ATOM      5  H39 UNL     1       8.477  -7.094   1.265 +0.00 +0.00    +0.149 HD 
DOCKED: BRANCH   4   6
DOCKED: ATOM      6  C23 UNL     1       7.188  -5.472   1.597 +0.00 +0.00    +0.161 C  
DOCKED: BRANCH   6   7
DOCKED: ATOM      7  C24 UNL     1       7.580  -5.796   3.059 +0.00 +0.00    +0.234 C  
DOCKED: ATOM      8  O9  UNL     1       8.407  -6.664   3.342 +0.00 -0.00    -0.274 OA 
DOCKED: ATOM      9  N7  UNL     1       6.914  -5.065   4.009 +0.00 -0.00    -0.303 N  
DOCKED: ATOM     10  H41 UNL     1       6.232  -4.362   3.736 +0.00 +0.00    +0.149 HD 
DOCKED: BRANCH   9  11
DOCKED: ATOM     11  C25 UNL     1       7.145  -5.220   5.439 +0.00 +0.00    +0.156 C  
DOCKED: ATOM     12  C26 UNL     1       6.843  -6.644   5.885 +0.00 +0.00    +0.038 C  
DOCKED: BRANCH  11  13
DOCKED: ATOM     13  C27 UNL     1       8.619  -4.851   5.709 +0.00 +0.00    +0.234 C  
DOCKED: ATOM     14  O10 UNL     1       8.989  -3.680   5.827 +0.00 -0.00    -0.274 OA 
DOCKED: ATOM     15  N8  UNL     1       9.479  -5.926   5.830 +0.00 -0.00    -0.302 N  
DOCKED: ATOM     16  H46 UNL     1       9.174  -6.806   5.429 +0.00 +0.00    +0.150 HD 
DOCKED: BRANCH  15  17
DOCKED: ATOM     17  C28 UNL     1      10.923  -5.720   5.835 +0.00 +0.00    +0.159 C  
DOCKED: BRANCH  17  18
DOCKED: ATOM     18  C32 UNL     1      11.452  -5.930   4.399 +0.00 +0.00    +0.234 C  
DOCKED: ATOM     19  O13 UNL     1      12.134  -5.082   3.827 +0.00 -0.00    -0.274 OA 
DOCKED: ATOM     20  N9  UNL     1      11.048  -7.103   3.809 +0.00 -0.00    -0.301 N  
DOCKED: ATOM     21  H53 UNL     1      10.359  -7.677   4.280 +0.00 +0.00    +0.150 HD 
DOCKED: BRANCH  20  22
DOCKED: ATOM     22  C33 UNL     1      11.206  -7.332   2.367 +0.00 +0.00    +0.186 C  
DOCKED: BRANCH  22  23
DOCKED: ATOM     23  C41 UNL     1      10.282  -8.494   2.025 +0.00 +0.00    +0.326 C  
DOCKED: ATOM     24  O14 UNL     1       9.878  -8.769   0.905 +0.00 -0.00    -0.249 OA 
DOCKED: BRANCH  23  25
DOCKED: ATOM     25  O15 UNL     1       9.889  -9.207   3.098 +0.00 -0.00    -0.479 OA 
DOCKED: ATOM     26  H62 UNL     1       9.180  -8.661   3.496 +0.00 +0.00    +0.295 HD 
DOCKED: ENDBRANCH  23  25
DOCKED: ENDBRANCH  22  23
DOCKED: BRANCH  22  27
DOCKED: ATOM     27  C34 UNL     1      12.639  -7.730   1.994 +0.00 +0.00    +0.069 C  
DOCKED: BRANCH  27  28
DOCKED: ATOM     28  C35 UNL     1      13.273  -8.686   2.975 +0.00 -0.00    -0.045 A  
DOCKED: ATOM     29  C36 UNL     1      14.078  -8.209   4.019 +0.00 +0.00    +0.004 A  
DOCKED: ATOM     30  C37 UNL     1      14.660  -9.098   4.926 +0.00 +0.00    +0.000 A  
DOCKED: ATOM     31  C38 UNL     1      14.448 -10.469   4.797 +0.00 +0.00    +0.000 A  
DOCKED: ATOM     32  C39 UNL     1      13.650 -10.955   3.764 +0.00 +0.00    +0.000 A  
DOCKED: ATOM     33  C40 UNL     1      13.066 -10.068   2.856 +0.00 +0.00    +0.004 A  
DOCKED: ENDBRANCH  27  28
DOCKED: ENDBRANCH  22  27
DOCKED: ENDBRANCH  20  22
DOCKED: ENDBRANCH  17  18
DOCKED: BRANCH  17  34
DOCKED: ATOM     34  C29 UNL     1      11.641  -6.618   6.860 +0.00 +0.00    +0.043 C  
DOCKED: BRANCH  34  35
DOCKED: ATOM     35  C30 UNL     1      10.926  -7.917   7.241 +0.00 +0.00    +0.123 C  
DOCKED: BRANCH  35  36
DOCKED: ATOM     36  C31 UNL     1      10.565  -8.740   6.039 +0.00 +0.00    +0.305 C  
DOCKED: ATOM     37  O11 UNL     1      11.339  -9.384   5.353 +0.00 -0.00    -0.251 OA 
DOCKED: BRANCH  36  38
DOCKED: ATOM     38  O12 UNL     1       9.257  -8.648   5.737 +0.00 -0.00    -0.481 OA 
DOCKED: ATOM     39  H52 UNL     1       9.093  -9.403   5.133 +0.00 +0.00    +0.295 HD 
DOCKED: ENDBRANCH  36  38
DOCKED: ENDBRANCH  35  36
DOCKED: ENDBRANCH  34  35
DOCKED: ENDBRANCH  17  34
DOCKED: ENDBRANCH  15  17
DOCKED: ENDBRANCH  11  13
DOCKED: ENDBRANCH   9  11
DOCKED: ENDBRANCH   6   7
DOCKED: BRANCH   6  40
DOCKED: ATOM     40  C42 UNL     1       5.706  -5.798   1.302 +0.00 +0.00    +0.012 C  
DOCKED: ATOM     41  C43 UNL     1       5.119  -6.686   2.407 +0.00 +0.00    +0.009 C  
DOCKED: ATOM     42  C44 UNL     1       5.503  -6.475  -0.053 +0.00 +0.00    +0.009 C  
DOCKED: ENDBRANCH   6  40
DOCKED: ENDBRANCH   4   6
DOCKED: ENDBRANCH   1   2
DOCKED: BRANCH   1  43
DOCKED: ATOM     43  C20 UNL     1       9.276  -7.772  -1.591 +0.00 +0.00    +0.143 C  
DOCKED: BRANCH  43  44
DOCKED: ATOM     44  O7  UNL     1       8.235  -8.403  -0.847 +0.00 -0.00    -0.389 OA 
DOCKED: ATOM     45  H36 UNL     1       8.548  -8.430   0.081 +0.00 +0.00    +0.210 HD 
DOCKED: ENDBRANCH  43  44
DOCKED: BRANCH  43  46
DOCKED: ATOM     46  C5  UNL     1      10.302  -8.829  -2.095 +0.00 +0.00    +0.102 C  
DOCKED: BRANCH  46  47
DOCKED: ATOM     47  N1  UNL     1      10.524  -9.911  -1.105 +0.00 -0.00    -0.308 N  
DOCKED: ATOM     48  C6  UNL     1      11.738 -10.243  -0.546 +0.00 +0.00    +0.234 C  
DOCKED: ATOM     49  O1  UNL     1      12.745  -9.553  -0.670 +0.00 -0.00    -0.274 OA 
DOCKED: ATOM     50  H11 UNL     1       9.758 -10.578  -0.991 +0.00 +0.00    +0.149 HD 
DOCKED: BRANCH  48  51
DOCKED: ATOM     51  C7  UNL     1      11.755 -11.568   0.268 +0.00 +0.00    +0.168 C  
DOCKED: BRANCH  51  52
DOCKED: ATOM     52  N3  UNL     1      10.668 -11.503   1.252 +0.00 -0.00    -0.302 N  
DOCKED: ATOM     53  C10 UNL     1      10.591 -12.401   2.295 +0.00 +0.00    +0.234 C  
DOCKED: ATOM     54  O3  UNL     1      11.310 -13.402   2.361 +0.00 -0.00    -0.274 OA 
DOCKED: ATOM     55  H17 UNL     1      10.279 -10.579   1.409 +0.00 +0.00    +0.150 HD 
DOCKED: BRANCH  53  56
DOCKED: ATOM     56  C11 UNL     1       9.521 -12.081   3.370 +0.00 +0.00    +0.161 C  
DOCKED: BRANCH  56  57
DOCKED: ATOM     57  N4  UNL     1       8.540 -11.168   2.769 +0.00 -0.00    -0.302 N  
DOCKED: ATOM     58  C12 UNL     1       7.619 -10.507   3.550 +0.00 +0.00    +0.230 C  
DOCKED: ATOM     59  O4  UNL     1       7.485 -10.708   4.760 +0.00 -0.00    -0.274 OA 
DOCKED: ATOM     60  H19 UNL     1       8.837 -10.712   1.910 +0.00 +0.00    +0.150 HD 
DOCKED: BRANCH  58  61
DOCKED: ATOM     61  C13 UNL     1       6.697  -9.528   2.782 +0.00 +0.00    +0.138 C  
DOCKED: BRANCH  61  62
DOCKED: ATOM     62  N5  UNL     1       7.541  -8.705   1.883 +0.00 -0.00    -0.320 NA 
DOCKED: ATOM     63  H21 UNL     1       8.147  -9.352   1.368 +0.00 +0.00    +0.119 HD 
DOCKED: ATOM     64  H22 UNL     1       8.192  -8.170   2.462 +0.00 +0.00    +0.119 HD 
DOCKED: ENDBRANCH  61  62
DOCKED: BRANCH  61  65
DOCKED: ATOM     65  C14 UNL     1       5.654 -10.266   1.930 +0.00 +0.00    +0.039 C  
DOCKED: BRANCH  65  66
DOCKED: ATOM     66  C15 UNL     1       6.007 -10.372   0.447 +0.00 +0.00    +0.122 C  
DOCKED: BRANCH  66  67
DOCKED: ATOM     67  C16 UNL     1       7.177 -11.276   0.183 +0.00 +0.00    +0.305 C  
DOCKED: ATOM     68  O5  UNL     1       7.109 -12.470  -0.069 +0.00 -0.00    -0.251 OA 
DOCKED: BRANCH  67  69
DOCKED: ATOM     69  O6  UNL     1       8.369 -10.652   0.253 +0.00 -0.00    -0.481 OA 
DOCKED: ATOM     70  H27 UNL     1       8.175  -9.712   0.062 +0.00 +0.00    +0.295 HD 
DOCKED: ENDBRANCH  67  69
DOCKED: ENDBRANCH  66  67
DOCKED: ENDBRANCH  65  66
DOCKED: ENDBRANCH  61  65
DOCKED: ENDBRANCH  58  61
DOCKED: ENDBRANCH  56  57
DOCKED: BRANCH  56  71
DOCKED: ATOM     71  C17 UNL     1       8.790 -13.314   3.950 +0.00 +0.00    +0.012 C  
DOCKED: ATOM     72  C18 UNL     1       7.466 -13.602   3.238 +0.00 +0.00    +0.009 C  
DOCKED: ATOM     73  C19 UNL     1       8.574 -13.246   5.462 +0.00 +0.00    +0.009 C  
DOCKED: ENDBRANCH  56  71
DOCKED: ENDBRANCH  53  56
DOCKED: ENDBRANCH  51  52
DOCKED: BRANCH  51  74
DOCKED: ATOM     74  C8  UNL     1      11.565 -12.796  -0.619 +0.00 +0.00    +0.127 C  
DOCKED: BRANCH  74  75
DOCKED: ATOM     75  C9  UNL     1      10.087 -13.034  -0.775 +0.00 +0.00    +0.213 C  
DOCKED: ATOM     76  N2  UNL     1       9.504 -13.849   0.148 +0.00 -0.00    -0.329 N  
DOCKED: ATOM     77  O2  UNL     1       9.449 -12.592  -1.726 +0.00 -0.00    -0.276 OA 
DOCKED: ATOM     78  H15 UNL     1       8.531 -14.094   0.005 +0.00 +0.00    +0.145 HD 
DOCKED: ATOM     79  H16 UNL     1      10.030 -14.377   0.833 +0.00 +0.00    +0.145 HD 
DOCKED: ENDBRANCH  74  75
DOCKED: ENDBRANCH  51  74
DOCKED: ENDBRANCH  48  51
DOCKED: ENDBRANCH  46  47
DOCKED: BRANCH  46  80
DOCKED: ATOM     80  C4  UNL     1       9.957  -9.513  -3.447 +0.00 +0.00    +0.028 C  
DOCKED: BRANCH  80  82
DOCKED: ATOM     81  C1  UNL     1       7.839  -8.358  -4.356 +0.00 +0.00    +0.007 C  
DOCKED: ATOM     82  C2  UNL     1       8.493  -9.663  -3.914 +0.00 -0.00    -0.015 C  
DOCKED: ATOM     83  C3  UNL     1       7.610 -10.440  -2.940 +0.00 +0.00    +0.007 C  
DOCKED: ENDBRANCH  80  82
DOCKED: ENDBRANCH  46  80
DOCKED: ENDBRANCH  43  46
DOCKED: ENDBRANCH   1  43
DOCKED: TORSDOF 36
DOCKED: TER
DOCKED: ENDMDL
________________________________________________________________________________


    FINAL DOCKED STATE:
    ________________________


Run:   8 / 20
Time taken for this run:   7.478s

DOCKED: MODEL        8
DOCKED: USER    Run = 8
DOCKED: USER
DOCKED: USER    Estimated Free Energy of Binding    = +10.74 kcal/mol  [=(1)+(2)+(3)-(4)]
DOCKED: USER
DOCKED: USER    (1) Final Intermolecular Energy     =  +0.00 kcal/mol
DOCKED: USER        vdW + Hbond + desolv Energy     =  +0.00 kcal/mol
DOCKED: USER        Electrostatic Energy            =  +0.00 kcal/mol
DOCKED: USER        Moving Ligand-Fixed Receptor    =  +0.00 kcal/mol
DOCKED: USER        Moving Ligand-Moving Receptor   =  +0.00 kcal/mol
DOCKED: USER    (2) Final Total Internal Energy     = -31.68 kcal/mol
DOCKED: USER    (3) Torsional Free Energy           = +10.74 kcal/mol
DOCKED: USER    (4) Unbound System's Energy         = -31.68 kcal/mol
DOCKED: USER
DOCKED: USER
DOCKED: REMARK  Name = ligands/ligand_10.pdb
DOCKED: REMARK  43 active torsions:
DOCKED: REMARK  status: ('A' for Active; 'I' for Inactive)
DOCKED: REMARK    1  A    between atoms: C1_1  and  C2_2
DOCKED: REMARK    2  A    between atoms: C2_2  and  C3_3
DOCKED: REMARK    3  A    between atoms: C2_2  and  C4_4
DOCKED: REMARK    4  A    between atoms: C4_4  and  C5_5
DOCKED: REMARK    5  A    between atoms: C5_5  and  N1_6
DOCKED: REMARK    6  A    between atoms: C5_5  and  C20_31
DOCKED: REMARK    7  A    between atoms: C6_7  and  C7_9
DOCKED: REMARK    8  A    between atoms: C7_9  and  C8_10
DOCKED: REMARK    9  A    between atoms: C7_9  and  N3_14
DOCKED: REMARK   10  A    between atoms: C8_10  and  C9_11
DOCKED: REMARK   11  A    between atoms: C10_15  and  C11_17
DOCKED: REMARK   12  A    between atoms: C11_17  and  N4_18
DOCKED: REMARK   13  A    between atoms: C11_17  and  C17_28
DOCKED: REMARK   14  A    between atoms: C12_19  and  C13_21
DOCKED: REMARK   15  A    between atoms: C13_21  and  N5_22
DOCKED: REMARK   16  A    between atoms: C13_21  and  C14_23
DOCKED: REMARK   17  A    between atoms: C14_23  and  C15_24
DOCKED: REMARK   18  A    between atoms: C15_24  and  C16_25
DOCKED: REMARK   19  A    between atoms: C16_25  and  O6_27
DOCKED: REMARK   20  A    between atoms: C17_28  and  C18_29
DOCKED: REMARK   21  A    between atoms: C17_28  and  C19_30
DOCKED: REMARK   22  A    between atoms: C20_31  and  O7_32
DOCKED: REMARK   23  A    between atoms: C20_31  and  C21_33
DOCKED: REMARK   24  A    between atoms: C21_33  and  C22_34
DOCKED: REMARK   25  A    between atoms: N6_36  and  C23_37
DOCKED: REMARK   26  A    between atoms: C23_37  and  C24_38
DOCKED: REMARK   27  A    between atoms: C23_37  and  C42_66
DOCKED: REMARK   28  A    between atoms: N7_40  and  C25_41
DOCKED: REMARK   29  A    between atoms: C25_41  and  C26_42
DOCKED: REMARK   30  A    between atoms: C25_41  and  C27_43
DOCKED: REMARK   31  A    between atoms: N8_45  and  C28_46
DOCKED: REMARK   32  A    between atoms: C28_46  and  C29_47
DOCKED: REMARK   33  A    between atoms: C28_46  and  C32_52
DOCKED: REMARK   34  A    between atoms: C29_47  and  C30_48
DOCKED: REMARK   35  A    between atoms: C30_48  and  C31_49
DOCKED: REMARK   36  A    between atoms: C31_49  and  O12_51
DOCKED: REMARK   37  A    between atoms: N9_54  and  C33_55
DOCKED: REMARK   38  A    between atoms: C33_55  and  C34_56
DOCKED: REMARK   39  A    between atoms: C33_55  and  C41_63
DOCKED: REMARK   40  A    between atoms: C34_56  and  C35_57
DOCKED: REMARK   41  A    between atoms: C41_63  and  O15_65
DOCKED: REMARK   42  A    between atoms: C42_66  and  C43_67
DOCKED: REMARK   43  A    between atoms: C42_66  and  C44_68
DOCKED: REMARK                            x       y       z     vdW  Elec       q    Type
DOCKED: REMARK                         _______ _______ _______ _____ _____    ______ ____
DOCKED: USER                              x       y       z     vdW  Elec       q    Type
DOCKED: USER                           _______ _______ _______ _____ _____    ______ ____
DOCKED: ROOT
DOCKED: ATOM      1  C21 UNL     1       3.948  -1.060  -1.429 +0.00 +0.00    +0.129 C  
DOCKED: ENDROOT
DOCKED: BRANCH   1   2
DOCKED: ATOM      2  C22 UNL     1       4.628  -1.083  -0.074 +0.00 +0.00    +0.216 C  
DOCKED: ATOM      3  O8  UNL     1       4.348  -0.299   0.829 +0.00 -0.00    -0.276 OA 
DOCKED: ATOM      4  N6  UNL     1       5.547  -2.100   0.062 +0.00 -0.00    -0.304 N  
DOCKED: ATOM      5  H39 UNL     1       5.925  -2.482  -0.799 +0.00 +0.00    +0.149 HD 
DOCKED: BRANCH   4   6
DOCKED: ATOM      6  C23 UNL     1       6.489  -2.101   1.185 +0.00 +0.00    +0.161 C  
DOCKED: BRANCH   6   7
DOCKED: ATOM      7  C24 UNL     1       7.888  -2.221   0.537 +0.00 +0.00    +0.234 C  
DOCKED: ATOM      8  O9  UNL     1       8.087  -1.964  -0.652 +0.00 -0.00    -0.274 OA 
DOCKED: ATOM      9  N7  UNL     1       8.877  -2.664   1.378 +0.00 -0.00    -0.303 N  
DOCKED: ATOM     10  H41 UNL     1       8.672  -2.874   2.351 +0.00 +0.00    +0.149 HD 
DOCKED: BRANCH   9  11
DOCKED: ATOM     11  C25 UNL     1      10.261  -2.839   0.956 +0.00 +0.00    +0.156 C  
DOCKED: ATOM     12  C26 UNL     1      10.330  -3.348  -0.477 +0.00 +0.00    +0.038 C  
DOCKED: BRANCH  11  13
DOCKED: ATOM     13  C27 UNL     1      10.960  -1.471   1.097 +0.00 +0.00    +0.234 C  
DOCKED: ATOM     14  O10 UNL     1      11.835  -1.268   1.943 +0.00 -0.00    -0.274 OA 
DOCKED: ATOM     15  N8  UNL     1      10.551  -0.508   0.194 +0.00 -0.00    -0.302 N  
DOCKED: ATOM     16  H46 UNL     1       9.648  -0.645  -0.247 +0.00 +0.00    +0.150 HD 
DOCKED: BRANCH  15  17
DOCKED: ATOM     17  C28 UNL     1      10.942   0.886   0.373 +0.00 +0.00    +0.159 C  
DOCKED: BRANCH  17  18
DOCKED: ATOM     18  C32 UNL     1      10.276   1.419   1.660 +0.00 +0.00    +0.234 C  
DOCKED: ATOM     19  O13 UNL     1      10.773   2.331   2.319 +0.00 -0.00    -0.274 OA 
DOCKED: ATOM     20  N9  UNL     1       9.131   0.755   2.028 +0.00 -0.00    -0.301 N  
DOCKED: ATOM     21  H53 UNL     1       8.870  -0.084   1.526 +0.00 +0.00    +0.150 HD 
DOCKED: BRANCH  20  22
DOCKED: ATOM     22  C33 UNL     1       8.536   0.928   3.359 +0.00 +0.00    +0.186 C  
DOCKED: BRANCH  22  23
DOCKED: ATOM     23  C41 UNL     1       8.525  -0.458   3.993 +0.00 +0.00    +0.326 C  
DOCKED: ATOM     24  O14 UNL     1       7.797  -0.810   4.909 +0.00 -0.00    -0.249 OA 
DOCKED: BRANCH  23  25
DOCKED: ATOM     25  O15 UNL     1       9.445  -1.297   3.478 +0.00 -0.00    -0.479 OA 
DOCKED: ATOM     26  H62 UNL     1      10.201  -0.712   3.263 +0.00 +0.00    +0.295 HD 
DOCKED: ENDBRANCH  23  25
DOCKED: ENDBRANCH  22  23
DOCKED: BRANCH  22  27
DOCKED: ATOM     27  C34 UNL     1       7.092   1.438   3.291 +0.00 +0.00    +0.069 C  
DOCKED: BRANCH  27  28
DOCKED: ATOM     28  C35 UNL     1       6.853   2.422   2.171 +0.00 -0.00    -0.045 A  
DOCKED: ATOM     29  C36 UNL     1       5.775   2.254   1.291 +0.00 +0.00    +0.004 A  
DOCKED: ATOM     30  C37 UNL     1       5.557   3.168   0.258 +0.00 +0.00    +0.000 A  
DOCKED: ATOM     31  C38 UNL     1       6.413   4.255   0.092 +0.00 +0.00    +0.000 A  
DOCKED: ATOM     32  C39 UNL     1       7.487   4.433   0.962 +0.00 +0.00    +0.000 A  
DOCKED: ATOM     33  C40 UNL     1       7.708   3.520   1.996 +0.00 +0.00    +0.004 A  
DOCKED: ENDBRANCH  27  28
DOCKED: ENDBRANCH  22  27
DOCKED: ENDBRANCH  20  22
DOCKED: ENDBRANCH  17  18
DOCKED: BRANCH  17  34
DOCKED: ATOM     34  C29 UNL     1      10.611   1.751  -0.858 +0.00 +0.00    +0.043 C  
DOCKED: BRANCH  34  35
DOCKED: ATOM     35  C30 UNL     1       9.128   2.040  -1.104 +0.00 +0.00    +0.123 C  
DOCKED: BRANCH  35  36
DOCKED: ATOM     36  C31 UNL     1       8.290   0.797  -1.045 +0.00 +0.00    +0.305 C  
DOCKED: ATOM     37  O11 UNL     1       7.552   0.473  -0.131 +0.00 -0.00    -0.251 OA 
DOCKED: BRANCH  36  38
DOCKED: ATOM     38  O12 UNL     1       8.483   0.004  -2.115 +0.00 -0.00    -0.481 OA 
DOCKED: ATOM     39  H52 UNL     1       7.660  -0.524  -2.179 +0.00 +0.00    +0.295 HD 
DOCKED: ENDBRANCH  36  38
DOCKED: ENDBRANCH  35  36
DOCKED: ENDBRANCH  34  35
DOCKED: ENDBRANCH  17  34
DOCKED: ENDBRANCH  15  17
DOCKED: ENDBRANCH  11  13
DOCKED: ENDBRANCH   9  11
DOCKED: ENDBRANCH   6   7
DOCKED: BRANCH   6  40
DOCKED: ATOM     40  C42 UNL     1       6.184  -3.274   2.145 +0.00 +0.00    +0.012 C  
DOCKED: ATOM     41  C43 UNL     1       5.177  -4.242   1.509 +0.00 +0.00    +0.009 C  
DOCKED: ATOM     42  C44 UNL     1       5.655  -2.813   3.502 +0.00 +0.00    +0.009 C  
DOCKED: ENDBRANCH   6  40
DOCKED: ENDBRANCH   4   6
DOCKED: ENDBRANCH   1   2
DOCKED: BRANCH   1  43
DOCKED: ATOM     43  C20 UNL     1       4.896  -0.503  -2.490 +0.00 +0.00    +0.143 C  
DOCKED: BRANCH  43  44
DOCKED: ATOM     44  O7  UNL     1       6.169  -1.139  -2.386 +0.00 -0.00    -0.389 OA 
DOCKED: ATOM     45  H36 UNL     1       6.556  -0.825  -1.542 +0.00 +0.00    +0.210 HD 
DOCKED: ENDBRANCH  43  44
DOCKED: BRANCH  43  46
DOCKED: ATOM     46  C5  UNL     1       5.054   1.044  -2.422 +0.00 +0.00    +0.102 C  
DOCKED: BRANCH  46  47
DOCKED: ATOM     47  N1  UNL     1       6.337   1.503  -3.009 +0.00 -0.00    -0.308 N  
DOCKED: ATOM     48  C6  UNL     1       6.675   2.814  -3.258 +0.00 +0.00    +0.234 C  
DOCKED: ATOM     49  O1  UNL     1       6.018   3.766  -2.849 +0.00 -0.00    -0.274 OA 
DOCKED: ATOM     50  H11 UNL     1       6.917   0.779  -3.439 +0.00 +0.00    +0.149 HD 
DOCKED: BRANCH  48  51
DOCKED: ATOM     51  C7  UNL     1       7.964   3.019  -4.104 +0.00 +0.00    +0.168 C  
DOCKED: BRANCH  51  52
DOCKED: ATOM     52  N3  UNL     1       8.773   1.800  -3.988 +0.00 -0.00    -0.302 N  
DOCKED: ATOM     53  C10 UNL     1      10.122   1.806  -4.274 +0.00 +0.00    +0.234 C  
DOCKED: ATOM     54  O3  UNL     1      10.682   2.769  -4.805 +0.00 -0.00    -0.274 OA 
DOCKED: ATOM     55  H17 UNL     1       8.450   1.127  -3.301 +0.00 +0.00    +0.150 HD 
DOCKED: BRANCH  53  56
DOCKED: ATOM     56  C11 UNL     1      10.886   0.508  -3.903 +0.00 +0.00    +0.161 C  
DOCKED: BRANCH  56  57
DOCKED: ATOM     57  N4  UNL     1       9.939  -0.610  -3.994 +0.00 -0.00    -0.302 N  
DOCKED: ATOM     58  C12 UNL     1      10.360  -1.909  -3.809 +0.00 +0.00    +0.230 C  
DOCKED: ATOM     59  O4  UNL     1      11.544  -2.225  -3.664 +0.00 -0.00    -0.274 OA 
DOCKED: ATOM     60  H19 UNL     1       8.978  -0.391  -3.744 +0.00 +0.00    +0.150 HD 
DOCKED: BRANCH  58  61
DOCKED: ATOM     61  C13 UNL     1       9.236  -2.972  -3.868 +0.00 +0.00    +0.138 C  
DOCKED: BRANCH  61  62
DOCKED: ATOM     62  N5  UNL     1       8.115  -2.509  -3.015 +0.00 -0.00    -0.320 NA 
DOCKED: ATOM     63  H21 UNL     1       7.289  -2.442  -3.618 +0.00 +0.00    +0.119 HD 
DOCKED: ATOM     64  H22 UNL     1       8.301  -1.540  -2.747 +0.00 +0.00    +0.119 HD 
DOCKED: ENDBRANCH  61  62
DOCKED: BRANCH  61  65
DOCKED: ATOM     65  C14 UNL     1       8.709  -3.177  -5.295 +0.00 +0.00    +0.039 C  
DOCKED: BRANCH  65  66
DOCKED: ATOM     66  C15 UNL     1       8.393  -1.884  -6.046 +0.00 +0.00    +0.122 C  
DOCKED: BRANCH  66  67
DOCKED: ATOM     67  C16 UNL     1       7.202  -1.156  -5.492 +0.00 +0.00    +0.305 C  
DOCKED: ATOM     68  O5  UNL     1       6.074  -1.179  -5.963 +0.00 -0.00    -0.251 OA 
DOCKED: BRANCH  67  69
DOCKED: ATOM     69  O6  UNL     1       7.476  -0.431  -4.391 +0.00 -0.00    -0.481 OA 
DOCKED: ATOM     70  H27 UNL     1       7.232  -1.009  -3.639 +0.00 +0.00    +0.295 HD 
DOCKED: ENDBRANCH  67  69
DOCKED: ENDBRANCH  66  67
DOCKED: ENDBRANCH  65  66
DOCKED: ENDBRANCH  61  65
DOCKED: ENDBRANCH  58  61
DOCKED: ENDBRANCH  56  57
DOCKED: BRANCH  56  71
DOCKED: ATOM     71  C17 UNL     1      12.124   0.209  -4.777 +0.00 +0.00    +0.012 C  
DOCKED: ATOM     72  C18 UNL     1      13.314   1.113  -4.443 +0.00 +0.00    +0.009 C  
DOCKED: ATOM     73  C19 UNL     1      11.840   0.243  -6.279 +0.00 +0.00    +0.009 C  
DOCKED: ENDBRANCH  56  71
DOCKED: ENDBRANCH  53  56
DOCKED: ENDBRANCH  51  52
DOCKED: BRANCH  51  74
DOCKED: ATOM     74  C8  UNL     1       7.657   3.288  -5.575 +0.00 +0.00    +0.127 C  
DOCKED: BRANCH  74  75
DOCKED: ATOM     75  C9  UNL     1       6.293   2.729  -5.875 +0.00 +0.00    +0.213 C  
DOCKED: ATOM     76  N2  UNL     1       6.218   1.382  -6.065 +0.00 -0.00    -0.329 N  
DOCKED: ATOM     77  O2  UNL     1       5.309   3.448  -6.026 +0.00 -0.00    -0.276 OA 
DOCKED: ATOM     78  H15 UNL     1       5.326   1.001  -6.360 +0.00 +0.00    +0.145 HD 
DOCKED: ATOM     79  H16 UNL     1       7.033   0.785  -6.132 +0.00 +0.00    +0.145 HD 
DOCKED: ENDBRANCH  74  75
DOCKED: ENDBRANCH  51  74
DOCKED: ENDBRANCH  48  51
DOCKED: ENDBRANCH  46  47
DOCKED: BRANCH  46  80
DOCKED: ATOM     80  C4  UNL     1       3.923   1.868  -3.100 +0.00 +0.00    +0.028 C  
DOCKED: BRANCH  80  82
DOCKED: ATOM     81  C1  UNL     1       3.088   4.124  -2.174 +0.00 +0.00    +0.007 C  
DOCKED: ATOM     82  C2  UNL     1       2.868   2.617  -2.258 +0.00 -0.00    -0.015 C  
DOCKED: ATOM     83  C3  UNL     1       2.625   2.001  -0.881 +0.00 +0.00    +0.007 C  
DOCKED: ENDBRANCH  80  82
DOCKED: ENDBRANCH  46  80
DOCKED: ENDBRANCH  43  46
DOCKED: ENDBRANCH   1  43
DOCKED: TORSDOF 36
DOCKED: TER
DOCKED: ENDMDL
________________________________________________________________________________


    FINAL DOCKED STATE:
    ________________________


Run:   9 / 20
Time taken for this run:   7.478s

DOCKED: MODEL        9
DOCKED: USER    Run = 9
DOCKED: USER
DOCKED: USER    Estimated Free Energy of Binding    = +10.74 kcal/mol  [=(1)+(2)+(3)-(4)]
DOCKED: USER
DOCKED: USER    (1) Final Intermolecular Energy     =  +0.00 kcal/mol
DOCKED: USER        vdW + Hbond + desolv Energy     =  +0.00 kcal/mol
DOCKED: USER        Electrostatic Energy            =  +0.00 kcal/mol
DOCKED: USER        Moving Ligand-Fixed Receptor    =  +0.00 kcal/mol
DOCKED: USER        Moving Ligand-Moving Receptor   =  +0.00 kcal/mol
DOCKED: USER    (2) Final Total Internal Energy     = -33.29 kcal/mol
DOCKED: USER    (3) Torsional Free Energy           = +10.74 kcal/mol
DOCKED: USER    (4) Unbound System's Energy         = -33.29 kcal/mol
DOCKED: USER
DOCKED: USER
DOCKED: REMARK  Name = ligands/ligand_10.pdb
DOCKED: REMARK  43 active torsions:
DOCKED: REMARK  status: ('A' for Active; 'I' for Inactive)
DOCKED: REMARK    1  A    between atoms: C1_1  and  C2_2
DOCKED: REMARK    2  A    between atoms: C2_2  and  C3_3
DOCKED: REMARK    3  A    between atoms: C2_2  and  C4_4
DOCKED: REMARK    4  A    between atoms: C4_4  and  C5_5
DOCKED: REMARK    5  A    between atoms: C5_5  and  N1_6
DOCKED: REMARK    6  A    between atoms: C5_5  and  C20_31
DOCKED: REMARK    7  A    between atoms: C6_7  and  C7_9
DOCKED: REMARK    8  A    between atoms: C7_9  and  C8_10
DOCKED: REMARK    9  A    between atoms: C7_9  and  N3_14
DOCKED: REMARK   10  A    between atoms: C8_10  and  C9_11
DOCKED: REMARK   11  A    between atoms: C10_15  and  C11_17
DOCKED: REMARK   12  A    between atoms: C11_17  and  N4_18
DOCKED: REMARK   13  A    between atoms: C11_17  and  C17_28
DOCKED: REMARK   14  A    between atoms: C12_19  and  C13_21
DOCKED: REMARK   15  A    between atoms: C13_21  and  N5_22
DOCKED: REMARK   16  A    between atoms: C13_21  and  C14_23
DOCKED: REMARK   17  A    between atoms: C14_23  and  C15_24
DOCKED: REMARK   18  A    between atoms: C15_24  and  C16_25
DOCKED: REMARK   19  A    between atoms: C16_25  and  O6_27
DOCKED: REMARK   20  A    between atoms: C17_28  and  C18_29
DOCKED: REMARK   21  A    between atoms: C17_28  and  C19_30
DOCKED: REMARK   22  A    between atoms: C20_31  and  O7_32
DOCKED: REMARK   23  A    between atoms: C20_31  and  C21_33
DOCKED: REMARK   24  A    between atoms: C21_33  and  C22_34
DOCKED: REMARK   25  A    between atoms: N6_36  and  C23_37
DOCKED: REMARK   26  A    between atoms: C23_37  and  C24_38
DOCKED: REMARK   27  A    between atoms: C23_37  and  C42_66
DOCKED: REMARK   28  A    between atoms: N7_40  and  C25_41
DOCKED: REMARK   29  A    between atoms: C25_41  and  C26_42
DOCKED: REMARK   30  A    between atoms: C25_41  and  C27_43
DOCKED: REMARK   31  A    between atoms: N8_45  and  C28_46
DOCKED: REMARK   32  A    between atoms: C28_46  and  C29_47
DOCKED: REMARK   33  A    between atoms: C28_46  and  C32_52
DOCKED: REMARK   34  A    between atoms: C29_47  and  C30_48
DOCKED: REMARK   35  A    between atoms: C30_48  and  C31_49
DOCKED: REMARK   36  A    between atoms: C31_49  and  O12_51
DOCKED: REMARK   37  A    between atoms: N9_54  and  C33_55
DOCKED: REMARK   38  A    between atoms: C33_55  and  C34_56
DOCKED: REMARK   39  A    between atoms: C33_55  and  C41_63
DOCKED: REMARK   40  A    between atoms: C34_56  and  C35_57
DOCKED: REMARK   41  A    between atoms: C41_63  and  O15_65
DOCKED: REMARK   42  A    between atoms: C42_66  and  C43_67
DOCKED: REMARK   43  A    between atoms: C42_66  and  C44_68
DOCKED: REMARK                            x       y       z     vdW  Elec       q    Type
DOCKED: REMARK                         _______ _______ _______ _____ _____    ______ ____
DOCKED: USER                              x       y       z     vdW  Elec       q    Type
DOCKED: USER                           _______ _______ _______ _____ _____    ______ ____
DOCKED: ROOT
DOCKED: ATOM      1  C21 UNL     1       5.882  -2.179  -2.662 +0.00 +0.00    +0.129 C  
DOCKED: ENDROOT
DOCKED: BRANCH   1   2
DOCKED: ATOM      2  C22 UNL     1       5.504  -3.377  -1.814 +0.00 +0.00    +0.216 C  
DOCKED: ATOM      3  O8  UNL     1       4.340  -3.670  -1.550 +0.00 -0.00    -0.276 OA 
DOCKED: ATOM      4  N6  UNL     1       6.585  -4.133  -1.418 +0.00 -0.00    -0.304 N  
DOCKED: ATOM      5  H39 UNL     1       7.484  -3.663  -1.414 +0.00 +0.00    +0.149 HD 
DOCKED: BRANCH   4   6
DOCKED: ATOM      6  C23 UNL     1       6.433  -5.151  -0.374 +0.00 +0.00    +0.161 C  
DOCKED: BRANCH   6   7
DOCKED: ATOM      7  C24 UNL     1       7.492  -4.792   0.695 +0.00 +0.00    +0.234 C  
DOCKED: ATOM      8  O9  UNL     1       7.998  -3.671   0.769 +0.00 -0.00    -0.274 OA 
DOCKED: ATOM      9  N7  UNL     1       7.843  -5.824   1.528 +0.00 -0.00    -0.303 N  
DOCKED: ATOM     10  H41 UNL     1       7.408  -6.737   1.430 +0.00 +0.00    +0.149 HD 
DOCKED: BRANCH   9  11
DOCKED: ATOM     11  C25 UNL     1       8.819  -5.684   2.600 +0.00 +0.00    +0.156 C  
DOCKED: ATOM     12  C26 UNL     1       8.607  -6.748   3.669 +0.00 +0.00    +0.038 C  
DOCKED: BRANCH  11  13
DOCKED: ATOM     13  C27 UNL     1      10.220  -5.803   1.965 +0.00 +0.00    +0.234 C  
DOCKED: ATOM     14  O10 UNL     1      11.194  -6.214   2.601 +0.00 -0.00    -0.274 OA 
DOCKED: ATOM     15  N8  UNL     1      10.292  -5.439   0.634 +0.00 -0.00    -0.302 N  
DOCKED: ATOM     16  H46 UNL     1       9.553  -4.841   0.280 +0.00 +0.00    +0.150 HD 
DOCKED: BRANCH  15  17
DOCKED: ATOM     17  C28 UNL     1      11.587  -5.265  -0.016 +0.00 +0.00    +0.159 C  
DOCKED: BRANCH  17  18
DOCKED: ATOM     18  C32 UNL     1      12.155  -3.887   0.388 +0.00 +0.00    +0.234 C  
DOCKED: ATOM     19  O13 UNL     1      13.328  -3.741   0.729 +0.00 -0.00    -0.274 OA 
DOCKED: ATOM     20  N9  UNL     1      11.233  -2.868   0.389 +0.00 -0.00    -0.301 N  
DOCKED: ATOM     21  H53 UNL     1      10.256  -3.092   0.252 +0.00 +0.00    +0.150 HD 
DOCKED: BRANCH  20  22
DOCKED: ATOM     22  C33 UNL     1      11.520  -1.573   1.020 +0.00 +0.00    +0.186 C  
DOCKED: BRANCH  22  23
DOCKED: ATOM     23  C41 UNL     1      10.569  -0.574   0.371 +0.00 +0.00    +0.326 C  
DOCKED: ATOM     24  O14 UNL     1      10.804   0.612   0.195 +0.00 -0.00    -0.249 OA 
DOCKED: BRANCH  23  25
DOCKED: ATOM     25  O15 UNL     1       9.380  -1.104   0.026 +0.00 -0.00    -0.479 OA 
DOCKED: ATOM     26  H62 UNL     1       9.278  -1.867   0.633 +0.00 +0.00    +0.295 HD 
DOCKED: ENDBRANCH  23  25
DOCKED: ENDBRANCH  22  23
DOCKED: BRANCH  22  27
DOCKED: ATOM     27  C34 UNL     1      12.958  -1.106   0.763 +0.00 +0.00    +0.069 C  
DOCKED: BRANCH  27  28
DOCKED: ATOM     28  C35 UNL     1      13.221  -0.728  -0.675 +0.00 -0.00    -0.045 A  
DOCKED: ATOM     29  C36 UNL     1      13.500   0.600  -1.025 +0.00 +0.00    +0.004 A  
DOCKED: ATOM     30  C37 UNL     1      13.745   0.944  -2.357 +0.00 +0.00    +0.000 A  
DOCKED: ATOM     31  C38 UNL     1      13.709  -0.033  -3.350 +0.00 +0.00    +0.000 A  
DOCKED: ATOM     32  C39 UNL     1      13.434  -1.357  -3.014 +0.00 +0.00    +0.000 A  
DOCKED: ATOM     33  C40 UNL     1      13.189  -1.703  -1.683 +0.00 +0.00    +0.004 A  
DOCKED: ENDBRANCH  27  28
DOCKED: ENDBRANCH  22  27
DOCKED: ENDBRANCH  20  22
DOCKED: ENDBRANCH  17  18
DOCKED: BRANCH  17  34
DOCKED: ATOM     34  C29 UNL     1      11.506  -5.439  -1.544 +0.00 +0.00    +0.043 C  
DOCKED: BRANCH  34  35
DOCKED: ATOM     35  C30 UNL     1      11.120  -4.195  -2.347 +0.00 +0.00    +0.123 C  
DOCKED: BRANCH  35  36
DOCKED: ATOM     36  C31 UNL     1       9.654  -3.887  -2.250 +0.00 +0.00    +0.305 C  
DOCKED: ATOM     37  O11 UNL     1       8.811  -4.145  -3.091 +0.00 -0.00    -0.251 OA 
DOCKED: BRANCH  36  38
DOCKED: ATOM     38  O12 UNL     1       9.351  -3.213  -1.126 +0.00 -0.00    -0.481 OA 
DOCKED: ATOM     39  H52 UNL     1       9.073  -2.327  -1.440 +0.00 +0.00    +0.295 HD 
DOCKED: ENDBRANCH  36  38
DOCKED: ENDBRANCH  35  36
DOCKED: ENDBRANCH  34  35
DOCKED: ENDBRANCH  17  34
DOCKED: ENDBRANCH  15  17
DOCKED: ENDBRANCH  11  13
DOCKED: ENDBRANCH   9  11
DOCKED: ENDBRANCH   6   7
DOCKED: BRANCH   6  40
DOCKED: ATOM     40  C42 UNL     1       6.650  -6.564  -0.962 +0.00 +0.00    +0.012 C  
DOCKED: ATOM     41  C43 UNL     1       8.099  -6.733  -1.438 +0.00 +0.00    +0.009 C  
DOCKED: ATOM     42  C44 UNL     1       5.699  -6.883  -2.115 +0.00 +0.00    +0.009 C  
DOCKED: ENDBRANCH   6  40
DOCKED: ENDBRANCH   4   6
DOCKED: ENDBRANCH   1   2
DOCKED: BRANCH   1  43
DOCKED: ATOM     43  C20 UNL     1       7.068  -1.442  -2.041 +0.00 +0.00    +0.143 C  
DOCKED: BRANCH  43  44
DOCKED: ATOM     44  O7  UNL     1       7.153  -1.745  -0.649 +0.00 -0.00    -0.389 OA 
DOCKED: ATOM     45  H36 UNL     1       8.101  -1.923  -0.472 +0.00 +0.00    +0.210 HD 
DOCKED: ENDBRANCH  43  44
DOCKED: BRANCH  43  46
DOCKED: ATOM     46  C5  UNL     1       7.017   0.099  -2.259 +0.00 +0.00    +0.102 C  
DOCKED: BRANCH  46  47
DOCKED: ATOM     47  N1  UNL     1       7.090   0.849  -0.982 +0.00 -0.00    -0.308 N  
DOCKED: ATOM     48  C6  UNL     1       6.908   2.207  -0.843 +0.00 +0.00    +0.234 C  
DOCKED: ATOM     49  O1  UNL     1       6.481   2.922  -1.744 +0.00 -0.00    -0.274 OA 
DOCKED: ATOM     50  H11 UNL     1       7.502   0.349  -0.191 +0.00 +0.00    +0.149 HD 
DOCKED: BRANCH  48  51
DOCKED: ATOM     51  C7  UNL     1       7.281   2.789   0.550 +0.00 +0.00    +0.168 C  
DOCKED: BRANCH  51  52
DOCKED: ATOM     52  N3  UNL     1       6.549   2.024   1.566 +0.00 -0.00    -0.302 N  
DOCKED: ATOM     53  C10 UNL     1       5.206   2.236   1.791 +0.00 +0.00    +0.234 C  
DOCKED: ATOM     54  O3  UNL     1       4.592   3.183   1.293 +0.00 -0.00    -0.274 OA 
DOCKED: ATOM     55  H17 UNL     1       6.906   1.092   1.749 +0.00 +0.00    +0.150 HD 
DOCKED: BRANCH  53  56
DOCKED: ATOM     56  C11 UNL     1       4.521   1.213   2.735 +0.00 +0.00    +0.161 C  
DOCKED: BRANCH  56  57
DOCKED: ATOM     57  N4  UNL     1       4.992  -0.127   2.360 +0.00 -0.00    -0.302 N  
DOCKED: ATOM     58  C12 UNL     1       4.352  -1.255   2.824 +0.00 +0.00    +0.230 C  
DOCKED: ATOM     59  O4  UNL     1       3.432  -1.225   3.645 +0.00 -0.00    -0.274 OA 
DOCKED: ATOM     60  H19 UNL     1       5.457  -0.191   1.459 +0.00 +0.00    +0.150 HD 
DOCKED: BRANCH  58  61
DOCKED: ATOM     61  C13 UNL     1       4.921  -2.592   2.290 +0.00 +0.00    +0.138 C  
DOCKED: BRANCH  61  62
DOCKED: ATOM     62  N5  UNL     1       5.414  -2.367   0.909 +0.00 -0.00    -0.320 NA 
DOCKED: ATOM     63  H21 UNL     1       6.371  -2.729   0.871 +0.00 +0.00    +0.119 HD 
DOCKED: ATOM     64  H22 UNL     1       5.528  -1.361   0.774 +0.00 +0.00    +0.119 HD 
DOCKED: ENDBRANCH  61  62
DOCKED: BRANCH  61  65
DOCKED: ATOM     65  C14 UNL     1       6.089  -3.105   3.145 +0.00 +0.00    +0.039 C  
DOCKED: BRANCH  65  66
DOCKED: ATOM     66  C15 UNL     1       7.000  -2.009   3.697 +0.00 +0.00    +0.122 C  
DOCKED: BRANCH  66  67
DOCKED: ATOM     67  C16 UNL     1       8.011  -1.524   2.698 +0.00 +0.00    +0.305 C  
DOCKED: ATOM     68  O5  UNL     1       9.225  -1.584   2.830 +0.00 -0.00    -0.251 OA 
DOCKED: BRANCH  67  69
DOCKED: ATOM     69  O6  UNL     1       7.463  -0.981   1.594 +0.00 -0.00    -0.481 OA 
DOCKED: ATOM     70  H27 UNL     1       7.478  -1.695   0.926 +0.00 +0.00    +0.295 HD 
DOCKED: ENDBRANCH  67  69
DOCKED: ENDBRANCH  66  67
DOCKED: ENDBRANCH  65  66
DOCKED: ENDBRANCH  61  65
DOCKED: ENDBRANCH  58  61
DOCKED: ENDBRANCH  56  57
DOCKED: BRANCH  56  71
DOCKED: ATOM     71  C17 UNL     1       4.772   1.447   4.241 +0.00 +0.00    +0.012 C  
DOCKED: ATOM     72  C18 UNL     1       4.317   2.833   4.706 +0.00 +0.00    +0.009 C  
DOCKED: ATOM     73  C19 UNL     1       6.217   1.194   4.671 +0.00 +0.00    +0.009 C  
DOCKED: ENDBRANCH  56  71
DOCKED: ENDBRANCH  53  56
DOCKED: ENDBRANCH  51  52
DOCKED: BRANCH  51  74
DOCKED: ATOM     74  C8  UNL     1       8.779   2.704   0.832 +0.00 +0.00    +0.127 C  
DOCKED: BRANCH  74  75
DOCKED: ATOM     75  C9  UNL     1       8.961   2.253   2.255 +0.00 +0.00    +0.213 C  
DOCKED: ATOM     76  N2  UNL     1       9.237   0.932   2.442 +0.00 -0.00    -0.329 N  
DOCKED: ATOM     77  O2  UNL     1       8.789   3.008   3.209 +0.00 -0.00    -0.276 OA 
DOCKED: ATOM     78  H15 UNL     1       9.271   0.593   3.397 +0.00 +0.00    +0.145 HD 
DOCKED: ATOM     79  H16 UNL     1       9.203   0.248   1.697 +0.00 +0.00    +0.145 HD 
DOCKED: ENDBRANCH  74  75
DOCKED: ENDBRANCH  51  74
DOCKED: ENDBRANCH  48  51
DOCKED: ENDBRANCH  46  47
DOCKED: BRANCH  46  80
DOCKED: ATOM     80  C4  UNL     1       8.113   0.684  -3.193 +0.00 +0.00    +0.028 C  
DOCKED: BRANCH  80  82
DOCKED: ATOM     81  C1  UNL     1      10.478   1.704  -3.063 +0.00 +0.00    +0.007 C  
DOCKED: ATOM     82  C2  UNL     1       9.613   0.457  -2.903 +0.00 -0.00    -0.015 C  
DOCKED: ATOM     83  C3  UNL     1      10.209  -0.745  -3.633 +0.00 +0.00    +0.007 C  
DOCKED: ENDBRANCH  80  82
DOCKED: ENDBRANCH  46  80
DOCKED: ENDBRANCH  43  46
DOCKED: ENDBRANCH   1  43
DOCKED: TORSDOF 36
DOCKED: TER
DOCKED: ENDMDL
________________________________________________________________________________


    FINAL DOCKED STATE:
    ________________________


Run:   10 / 20
Time taken for this run:   7.478s

DOCKED: MODEL        10
DOCKED: USER    Run = 10
DOCKED: USER
DOCKED: USER    Estimated Free Energy of Binding    = +10.74 kcal/mol  [=(1)+(2)+(3)-(4)]
DOCKED: USER
DOCKED: USER    (1) Final Intermolecular Energy     =  +0.00 kcal/mol
DOCKED: USER        vdW + Hbond + desolv Energy     =  +0.00 kcal/mol
DOCKED: USER        Electrostatic Energy            =  +0.00 kcal/mol
DOCKED: USER        Moving Ligand-Fixed Receptor    =  +0.00 kcal/mol
DOCKED: USER        Moving Ligand-Moving Receptor   =  +0.00 kcal/mol
DOCKED: USER    (2) Final Total Internal Energy     = -32.90 kcal/mol
DOCKED: USER    (3) Torsional Free Energy           = +10.74 kcal/mol
DOCKED: USER    (4) Unbound System's Energy         = -32.90 kcal/mol
DOCKED: USER
DOCKED: USER
DOCKED: REMARK  Name = ligands/ligand_10.pdb
DOCKED: REMARK  43 active torsions:
DOCKED: REMARK  status: ('A' for Active; 'I' for Inactive)
DOCKED: REMARK    1  A    between atoms: C1_1  and  C2_2
DOCKED: REMARK    2  A    between atoms: C2_2  and  C3_3
DOCKED: REMARK    3  A    between atoms: C2_2  and  C4_4
DOCKED: REMARK    4  A    between atoms: C4_4  and  C5_5
DOCKED: REMARK    5  A    between atoms: C5_5  and  N1_6
DOCKED: REMARK    6  A    between atoms: C5_5  and  C20_31
DOCKED: REMARK    7  A    between atoms: C6_7  and  C7_9
DOCKED: REMARK    8  A    between atoms: C7_9  and  C8_10
DOCKED: REMARK    9  A    between atoms: C7_9  and  N3_14
DOCKED: REMARK   10  A    between atoms: C8_10  and  C9_11
DOCKED: REMARK   11  A    between atoms: C10_15  and  C11_17
DOCKED: REMARK   12  A    between atoms: C11_17  and  N4_18
DOCKED: REMARK   13  A    between atoms: C11_17  and  C17_28
DOCKED: REMARK   14  A    between atoms: C12_19  and  C13_21
DOCKED: REMARK   15  A    between atoms: C13_21  and  N5_22
DOCKED: REMARK   16  A    between atoms: C13_21  and  C14_23
DOCKED: REMARK   17  A    between atoms: C14_23  and  C15_24
DOCKED: REMARK   18  A    between atoms: C15_24  and  C16_25
DOCKED: REMARK   19  A    between atoms: C16_25  and  O6_27
DOCKED: REMARK   20  A    between atoms: C17_28  and  C18_29
DOCKED: REMARK   21  A    between atoms: C17_28  and  C19_30
DOCKED: REMARK   22  A    between atoms: C20_31  and  O7_32
DOCKED: REMARK   23  A    between atoms: C20_31  and  C21_33
DOCKED: REMARK   24  A    between atoms: C21_33  and  C22_34
DOCKED: REMARK   25  A    between atoms: N6_36  and  C23_37
DOCKED: REMARK   26  A    between atoms: C23_37  and  C24_38
DOCKED: REMARK   27  A    between atoms: C23_37  and  C42_66
DOCKED: REMARK   28  A    between atoms: N7_40  and  C25_41
DOCKED: REMARK   29  A    between atoms: C25_41  and  C26_42
DOCKED: REMARK   30  A    between atoms: C25_41  and  C27_43
DOCKED: REMARK   31  A    between atoms: N8_45  and  C28_46
DOCKED: REMARK   32  A    between atoms: C28_46  and  C29_47
DOCKED: REMARK   33  A    between atoms: C28_46  and  C32_52
DOCKED: REMARK   34  A    between atoms: C29_47  and  C30_48
DOCKED: REMARK   35  A    between atoms: C30_48  and  C31_49
DOCKED: REMARK   36  A    between atoms: C31_49  and  O12_51
DOCKED: REMARK   37  A    between atoms: N9_54  and  C33_55
DOCKED: REMARK   38  A    between atoms: C33_55  and  C34_56
DOCKED: REMARK   39  A    between atoms: C33_55  and  C41_63
DOCKED: REMARK   40  A    between atoms: C34_56  and  C35_57
DOCKED: REMARK   41  A    between atoms: C41_63  and  O15_65
DOCKED: REMARK   42  A    between atoms: C42_66  and  C43_67
DOCKED: REMARK   43  A    between atoms: C42_66  and  C44_68
DOCKED: REMARK                            x       y       z     vdW  Elec       q    Type
DOCKED: REMARK                         _______ _______ _______ _____ _____    ______ ____
DOCKED: USER                              x       y       z     vdW  Elec       q    Type
DOCKED: USER                           _______ _______ _______ _____ _____    ______ ____
DOCKED: ROOT
DOCKED: ATOM      1  C21 UNL     1      16.803  -9.786  -1.722 +0.00 +0.00    +0.129 C  
DOCKED: ENDROOT
DOCKED: BRANCH   1   2
DOCKED: ATOM      2  C22 UNL     1      16.017 -10.137  -2.970 +0.00 +0.00    +0.216 C  
DOCKED: ATOM      3  O8  UNL     1      16.282 -11.105  -3.678 +0.00 -0.00    -0.276 OA 
DOCKED: ATOM      4  N6  UNL     1      14.947  -9.301  -3.199 +0.00 -0.00    -0.304 N  
DOCKED: ATOM      5  H39 UNL     1      14.991  -8.385  -2.763 +0.00 +0.00    +0.149 HD 
DOCKED: BRANCH   4   6
DOCKED: ATOM      6  C23 UNL     1      14.257  -9.319  -4.492 +0.00 +0.00    +0.161 C  
DOCKED: BRANCH   6   7
DOCKED: ATOM      7  C24 UNL     1      13.847  -7.849  -4.750 +0.00 +0.00    +0.234 C  
DOCKED: ATOM      8  O9  UNL     1      14.640  -6.914  -4.629 +0.00 -0.00    -0.274 OA 
DOCKED: ATOM      9  N7  UNL     1      12.531  -7.669  -5.092 +0.00 -0.00    -0.303 N  
DOCKED: ATOM     10  H41 UNL     1      11.905  -8.466  -5.174 +0.00 +0.00    +0.149 HD 
DOCKED: BRANCH   9  11
DOCKED: ATOM     11  C25 UNL     1      11.955  -6.362  -5.378 +0.00 +0.00    +0.156 C  
DOCKED: ATOM     12  C26 UNL     1      10.693  -6.499  -6.220 +0.00 +0.00    +0.038 C  
DOCKED: BRANCH  11  13
DOCKED: ATOM     13  C27 UNL     1      11.653  -5.687  -4.024 +0.00 +0.00    +0.234 C  
DOCKED: ATOM     14  O10 UNL     1      10.503  -5.405  -3.676 +0.00 -0.00    -0.274 OA 
DOCKED: ATOM     15  N8  UNL     1      12.757  -5.447  -3.229 +0.00 -0.00    -0.302 N  
DOCKED: ATOM     16  H46 UNL     1      13.660  -5.420  -3.692 +0.00 +0.00    +0.150 HD 
DOCKED: BRANCH  15  17
DOCKED: ATOM     17  C28 UNL     1      12.648  -4.597  -2.048 +0.00 +0.00    +0.159 C  
DOCKED: BRANCH  17  18
DOCKED: ATOM     18  C32 UNL     1      13.827  -3.599  -2.053 +0.00 +0.00    +0.234 C  
DOCKED: ATOM     19  O13 UNL     1      13.674  -2.414  -2.343 +0.00 -0.00    -0.274 OA 
DOCKED: ATOM     20  N9  UNL     1      15.049  -4.159  -1.767 +0.00 -0.00    -0.301 N  
DOCKED: ATOM     21  H53 UNL     1      15.122  -5.165  -1.694 +0.00 +0.00    +0.150 HD 
DOCKED: BRANCH  20  22
DOCKED: ATOM     22  C33 UNL     1      16.302  -3.433  -2.012 +0.00 +0.00    +0.186 C  
DOCKED: BRANCH  22  23
DOCKED: ATOM     23  C41 UNL     1      16.931  -4.089  -3.235 +0.00 +0.00    +0.326 C  
DOCKED: ATOM     24  O14 UNL     1      17.716  -3.549  -4.000 +0.00 -0.00    -0.249 OA 
DOCKED: BRANCH  23  25
DOCKED: ATOM     25  O15 UNL     1      16.510  -5.350  -3.450 +0.00 -0.00    -0.479 OA 
DOCKED: ATOM     26  H62 UNL     1      15.550  -5.252  -3.617 +0.00 +0.00    +0.295 HD 
DOCKED: ENDBRANCH  23  25
DOCKED: ENDBRANCH  22  23
DOCKED: BRANCH  22  27
DOCKED: ATOM     27  C34 UNL     1      17.285  -3.555  -0.841 +0.00 +0.00    +0.069 C  
DOCKED: BRANCH  27  28
DOCKED: ATOM     28  C35 UNL     1      17.007  -4.736   0.058 +0.00 -0.00    -0.045 A  
DOCKED: ATOM     29  C36 UNL     1      17.836  -5.866   0.029 +0.00 +0.00    +0.004 A  
DOCKED: ATOM     30  C37 UNL     1      17.577  -6.955   0.864 +0.00 +0.00    +0.000 A  
DOCKED: ATOM     31  C38 UNL     1      16.487  -6.928   1.731 +0.00 +0.00    +0.000 A  
DOCKED: ATOM     32  C39 UNL     1      15.656  -5.810   1.769 +0.00 +0.00    +0.000 A  
DOCKED: ATOM     33  C40 UNL     1      15.913  -4.719   0.935 +0.00 +0.00    +0.004 A  
DOCKED: ENDBRANCH  27  28
DOCKED: ENDBRANCH  22  27
DOCKED: ENDBRANCH  20  22
DOCKED: ENDBRANCH  17  18
DOCKED: BRANCH  17  34
DOCKED: ATOM     34  C29 UNL     1      12.577  -5.412  -0.743 +0.00 +0.00    +0.043 C  
DOCKED: BRANCH  34  35
DOCKED: ATOM     35  C30 UNL     1      12.683  -6.932  -0.887 +0.00 +0.00    +0.123 C  
DOCKED: BRANCH  35  36
DOCKED: ATOM     36  C31 UNL     1      14.083  -7.379  -1.192 +0.00 +0.00    +0.305 C  
DOCKED: ATOM     37  O11 UNL     1      14.722  -8.207  -0.567 +0.00 -0.00    -0.251 OA 
DOCKED: BRANCH  36  38
DOCKED: ATOM     38  O12 UNL     1      14.616  -6.704  -2.226 +0.00 -0.00    -0.481 OA 
DOCKED: ATOM     39  H52 UNL     1      15.560  -6.596  -1.986 +0.00 +0.00    +0.295 HD 
DOCKED: ENDBRANCH  36  38
DOCKED: ENDBRANCH  35  36
DOCKED: ENDBRANCH  34  35
DOCKED: ENDBRANCH  17  34
DOCKED: ENDBRANCH  15  17
DOCKED: ENDBRANCH  11  13
DOCKED: ENDBRANCH   9  11
DOCKED: ENDBRANCH   6   7
DOCKED: BRANCH   6  40
DOCKED: ATOM     40  C42 UNL     1      13.037 -10.267  -4.440 +0.00 +0.00    +0.012 C  
DOCKED: ATOM     41  C43 UNL     1      12.455 -10.319  -3.021 +0.00 +0.00    +0.009 C  
DOCKED: ATOM     42  C44 UNL     1      13.364 -11.686  -4.904 +0.00 +0.00    +0.009 C  
DOCKED: ENDBRANCH   6  40
DOCKED: ENDBRANCH   4   6
DOCKED: ENDBRANCH   1   2
DOCKED: BRANCH   1  43
DOCKED: ATOM     43  C20 UNL     1      17.711  -8.585  -1.987 +0.00 +0.00    +0.143 C  
DOCKED: BRANCH  43  44
DOCKED: ATOM     44  O7  UNL     1      16.923  -7.448  -2.334 +0.00 -0.00    -0.389 OA 
DOCKED: ATOM     45  H36 UNL     1      16.556  -7.638  -3.222 +0.00 +0.00    +0.210 HD 
DOCKED: ENDBRANCH  43  44
DOCKED: BRANCH  43  46
DOCKED: ATOM     46  C5  UNL     1      18.785  -8.856  -3.080 +0.00 +0.00    +0.102 C  
DOCKED: BRANCH  46  47
DOCKED: ATOM     47  N1  UNL     1      18.180  -9.125  -4.407 +0.00 -0.00    -0.308 N  
DOCKED: ATOM     48  C6  UNL     1      17.572  -8.186  -5.211 +0.00 +0.00    +0.234 C  
DOCKED: ATOM     49  O1  UNL     1      17.630  -6.979  -4.995 +0.00 -0.00    -0.274 OA 
DOCKED: ATOM     50  H11 UNL     1      18.028 -10.109  -4.640 +0.00 +0.00    +0.149 HD 
DOCKED: BRANCH  48  51
DOCKED: ATOM     51  C7  UNL     1      16.797  -8.758  -6.432 +0.00 +0.00    +0.168 C  
DOCKED: BRANCH  51  52
DOCKED: ATOM     52  N3  UNL     1      15.952  -7.685  -6.969 +0.00 -0.00    -0.302 N  
DOCKED: ATOM     53  C10 UNL     1      14.798  -7.965  -7.670 +0.00 +0.00    +0.234 C  
DOCKED: ATOM     54  O3  UNL     1      14.507  -9.107  -8.037 +0.00 -0.00    -0.274 OA 
DOCKED: ATOM     55  H17 UNL     1      15.978  -6.812  -6.452 +0.00 +0.00    +0.150 HD 
DOCKED: BRANCH  53  56
DOCKED: ATOM     56  C11 UNL     1      13.900  -6.741  -7.987 +0.00 +0.00    +0.161 C  
DOCKED: BRANCH  56  57
DOCKED: ATOM     57  N4  UNL     1      14.364  -5.619  -7.161 +0.00 -0.00    -0.302 N  
DOCKED: ATOM     58  C12 UNL     1      13.723  -4.401  -7.201 +0.00 +0.00    +0.230 C  
DOCKED: ATOM     59  O4  UNL     1      12.807  -4.140  -7.987 +0.00 -0.00    -0.274 OA 
DOCKED: ATOM     60  H19 UNL     1      14.823  -5.876  -6.292 +0.00 +0.00    +0.150 HD 
DOCKED: BRANCH  58  61
DOCKED: ATOM     61  C13 UNL     1      14.283  -3.337  -6.225 +0.00 +0.00    +0.138 C  
DOCKED: BRANCH  61  62
DOCKED: ATOM     62  N5  UNL     1      14.710  -4.027  -4.985 +0.00 -0.00    -0.320 NA 
DOCKED: ATOM     63  H21 UNL     1      15.693  -3.783  -4.830 +0.00 +0.00    +0.119 HD 
DOCKED: ATOM     64  H22 UNL     1      14.736  -5.031  -5.173 +0.00 +0.00    +0.119 HD 
DOCKED: ENDBRANCH  61  62
DOCKED: BRANCH  61  65
DOCKED: ATOM     65  C14 UNL     1      15.494  -2.598  -6.812 +0.00 +0.00    +0.039 C  
DOCKED: BRANCH  65  66
DOCKED: ATOM     66  C15 UNL     1      16.387  -3.453  -7.708 +0.00 +0.00    +0.122 C  
DOCKED: BRANCH  66  67
DOCKED: ATOM     67  C16 UNL     1      17.231  -4.430  -6.940 +0.00 +0.00    +0.305 C  
DOCKED: ATOM     68  O5  UNL     1      18.449  -4.513  -6.997 +0.00 -0.00    -0.251 OA 
DOCKED: BRANCH  67  69
DOCKED: ATOM     69  O6  UNL     1      16.519  -5.257  -6.151 +0.00 -0.00    -0.481 OA 
DOCKED: ATOM     70  H27 UNL     1      16.740  -4.988  -5.237 +0.00 +0.00    +0.295 HD 
DOCKED: ENDBRANCH  67  69
DOCKED: ENDBRANCH  66  67
DOCKED: ENDBRANCH  65  66
DOCKED: ENDBRANCH  61  65
DOCKED: ENDBRANCH  58  61
DOCKED: ENDBRANCH  56  57
DOCKED: BRANCH  56  71
DOCKED: ATOM     71  C17 UNL     1      13.881  -6.315  -9.473 +0.00 +0.00    +0.012 C  
DOCKED: ATOM     72  C18 UNL     1      13.104  -7.296 -10.356 +0.00 +0.00    +0.009 C  
DOCKED: ATOM     73  C19 UNL     1      15.270  -6.063 -10.059 +0.00 +0.00    +0.009 C  
DOCKED: ENDBRANCH  56  71
DOCKED: ENDBRANCH  53  56
DOCKED: ENDBRANCH  51  52
DOCKED: BRANCH  51  74
DOCKED: ATOM     74  C8  UNL     1      17.732  -9.265  -7.527 +0.00 +0.00    +0.127 C  
DOCKED: BRANCH  74  75
DOCKED: ATOM     75  C9  UNL     1      18.918  -8.343  -7.591 +0.00 +0.00    +0.213 C  
DOCKED: ATOM     76  N2  UNL     1      18.679  -7.028  -7.325 +0.00 -0.00    -0.329 N  
DOCKED: ATOM     77  O2  UNL     1      20.029  -8.727  -7.944 +0.00 -0.00    -0.276 OA 
DOCKED: ATOM     78  H15 UNL     1      19.446  -6.378  -7.454 +0.00 +0.00    +0.145 HD 
DOCKED: ATOM     79  H16 UNL     1      17.748  -6.646  -7.213 +0.00 +0.00    +0.145 HD 
DOCKED: ENDBRANCH  74  75
DOCKED: ENDBRANCH  51  74
DOCKED: ENDBRANCH  48  51
DOCKED: ENDBRANCH  46  47
DOCKED: BRANCH  46  80
DOCKED: ATOM     80  C4  UNL     1      19.842  -7.734  -3.281 +0.00 +0.00    +0.028 C  
DOCKED: BRANCH  80  82
DOCKED: ATOM     81  C1  UNL     1      21.137  -6.864  -5.333 +0.00 +0.00    +0.007 C  
DOCKED: ATOM     82  C2  UNL     1      21.035  -7.925  -4.242 +0.00 -0.00    -0.015 C  
DOCKED: ATOM     83  C3  UNL     1      21.152  -9.338  -4.810 +0.00 +0.00    +0.007 C  
DOCKED: ENDBRANCH  80  82
DOCKED: ENDBRANCH  46  80
DOCKED: ENDBRANCH  43  46
DOCKED: ENDBRANCH   1  43
DOCKED: TORSDOF 36
DOCKED: TER
DOCKED: ENDMDL
________________________________________________________________________________


    FINAL DOCKED STATE:
    ________________________


Run:   11 / 20
Time taken for this run:   7.478s

DOCKED: MODEL        11
DOCKED: USER    Run = 11
DOCKED: USER
DOCKED: USER    Estimated Free Energy of Binding    = +10.74 kcal/mol  [=(1)+(2)+(3)-(4)]
DOCKED: USER
DOCKED: USER    (1) Final Intermolecular Energy     =  +0.00 kcal/mol
DOCKED: USER        vdW + Hbond + desolv Energy     =  +0.00 kcal/mol
DOCKED: USER        Electrostatic Energy            =  +0.00 kcal/mol
DOCKED: USER        Moving Ligand-Fixed Receptor    =  +0.00 kcal/mol
DOCKED: USER        Moving Ligand-Moving Receptor   =  +0.00 kcal/mol
DOCKED: USER    (2) Final Total Internal Energy     = -31.84 kcal/mol
DOCKED: USER    (3) Torsional Free Energy           = +10.74 kcal/mol
DOCKED: USER    (4) Unbound System's Energy         = -31.84 kcal/mol
DOCKED: USER
DOCKED: USER
DOCKED: REMARK  Name = ligands/ligand_10.pdb
DOCKED: REMARK  43 active torsions:
DOCKED: REMARK  status: ('A' for Active; 'I' for Inactive)
DOCKED: REMARK    1  A    between atoms: C1_1  and  C2_2
DOCKED: REMARK    2  A    between atoms: C2_2  and  C3_3
DOCKED: REMARK    3  A    between atoms: C2_2  and  C4_4
DOCKED: REMARK    4  A    between atoms: C4_4  and  C5_5
DOCKED: REMARK    5  A    between atoms: C5_5  and  N1_6
DOCKED: REMARK    6  A    between atoms: C5_5  and  C20_31
DOCKED: REMARK    7  A    between atoms: C6_7  and  C7_9
DOCKED: REMARK    8  A    between atoms: C7_9  and  C8_10
DOCKED: REMARK    9  A    between atoms: C7_9  and  N3_14
DOCKED: REMARK   10  A    between atoms: C8_10  and  C9_11
DOCKED: REMARK   11  A    between atoms: C10_15  and  C11_17
DOCKED: REMARK   12  A    between atoms: C11_17  and  N4_18
DOCKED: REMARK   13  A    between atoms: C11_17  and  C17_28
DOCKED: REMARK   14  A    between atoms: C12_19  and  C13_21
DOCKED: REMARK   15  A    between atoms: C13_21  and  N5_22
DOCKED: REMARK   16  A    between atoms: C13_21  and  C14_23
DOCKED: REMARK   17  A    between atoms: C14_23  and  C15_24
DOCKED: REMARK   18  A    between atoms: C15_24  and  C16_25
DOCKED: REMARK   19  A    between atoms: C16_25  and  O6_27
DOCKED: REMARK   20  A    between atoms: C17_28  and  C18_29
DOCKED: REMARK   21  A    between atoms: C17_28  and  C19_30
DOCKED: REMARK   22  A    between atoms: C20_31  and  O7_32
DOCKED: REMARK   23  A    between atoms: C20_31  and  C21_33
DOCKED: REMARK   24  A    between atoms: C21_33  and  C22_34
DOCKED: REMARK   25  A    between atoms: N6_36  and  C23_37
DOCKED: REMARK   26  A    between atoms: C23_37  and  C24_38
DOCKED: REMARK   27  A    between atoms: C23_37  and  C42_66
DOCKED: REMARK   28  A    between atoms: N7_40  and  C25_41
DOCKED: REMARK   29  A    between atoms: C25_41  and  C26_42
DOCKED: REMARK   30  A    between atoms: C25_41  and  C27_43
DOCKED: REMARK   31  A    between atoms: N8_45  and  C28_46
DOCKED: REMARK   32  A    between atoms: C28_46  and  C29_47
DOCKED: REMARK   33  A    between atoms: C28_46  and  C32_52
DOCKED: REMARK   34  A    between atoms: C29_47  and  C30_48
DOCKED: REMARK   35  A    between atoms: C30_48  and  C31_49
DOCKED: REMARK   36  A    between atoms: C31_49  and  O12_51
DOCKED: REMARK   37  A    between atoms: N9_54  and  C33_55
DOCKED: REMARK   38  A    between atoms: C33_55  and  C34_56
DOCKED: REMARK   39  A    between atoms: C33_55  and  C41_63
DOCKED: REMARK   40  A    between atoms: C34_56  and  C35_57
DOCKED: REMARK   41  A    between atoms: C41_63  and  O15_65
DOCKED: REMARK   42  A    between atoms: C42_66  and  C43_67
DOCKED: REMARK   43  A    between atoms: C42_66  and  C44_68
DOCKED: REMARK                            x       y       z     vdW  Elec       q    Type
DOCKED: REMARK                         _______ _______ _______ _____ _____    ______ ____
DOCKED: USER                              x       y       z     vdW  Elec       q    Type
DOCKED: USER                           _______ _______ _______ _____ _____    ______ ____
DOCKED: ROOT
DOCKED: ATOM      1  C21 UNL     1      10.515  -2.331  -2.685 +0.00 +0.00    +0.129 C  
DOCKED: ENDROOT
DOCKED: BRANCH   1   2
DOCKED: ATOM      2  C22 UNL     1       9.766  -2.325  -1.367 +0.00 +0.00    +0.216 C  
DOCKED: ATOM      3  O8  UNL     1      10.139  -2.961  -0.383 +0.00 -0.00    -0.276 OA 
DOCKED: ATOM      4  N6  UNL     1       8.665  -1.499  -1.363 +0.00 -0.00    -0.304 N  
DOCKED: ATOM      5  H39 UNL     1       8.271  -1.271  -2.271 +0.00 +0.00    +0.149 HD 
DOCKED: BRANCH   4   6
DOCKED: ATOM      6  C23 UNL     1       7.678  -1.585  -0.283 +0.00 +0.00    +0.161 C  
DOCKED: BRANCH   6   7
DOCKED: ATOM      7  C24 UNL     1       7.216  -3.062  -0.277 +0.00 +0.00    +0.234 C  
DOCKED: ATOM      8  O9  UNL     1       7.882  -3.957   0.245 +0.00 -0.00    -0.274 OA 
DOCKED: ATOM      9  N7  UNL     1       6.029  -3.297  -0.922 +0.00 -0.00    -0.303 N  
DOCKED: ATOM     10  H41 UNL     1       5.512  -2.532  -1.347 +0.00 +0.00    +0.149 HD 
DOCKED: BRANCH   9  11
DOCKED: ATOM     11  C25 UNL     1       5.426  -4.619  -1.021 +0.00 +0.00    +0.156 C  
DOCKED: ATOM     12  C26 UNL     1       6.276  -5.539  -1.888 +0.00 +0.00    +0.038 C  
DOCKED: BRANCH  11  13
DOCKED: ATOM     13  C27 UNL     1       5.290  -5.171   0.413 +0.00 +0.00    +0.234 C  
DOCKED: ATOM     14  O10 UNL     1       4.339  -4.875   1.141 +0.00 -0.00    -0.274 OA 
DOCKED: ATOM     15  N8  UNL     1       6.295  -6.035   0.806 +0.00 -0.00    -0.302 N  
DOCKED: ATOM     16  H46 UNL     1       7.169  -5.988   0.292 +0.00 +0.00    +0.150 HD 
DOCKED: BRANCH  15  17
DOCKED: ATOM     17  C28 UNL     1       6.427  -6.429   2.205 +0.00 +0.00    +0.159 C  
DOCKED: BRANCH  17  18
DOCKED: ATOM     18  C32 UNL     1       6.731  -5.167   3.042 +0.00 +0.00    +0.234 C  
DOCKED: ATOM     19  O13 UNL     1       5.914  -4.698   3.832 +0.00 -0.00    -0.274 OA 
DOCKED: ATOM     20  N9  UNL     1       7.952  -4.592   2.784 +0.00 -0.00    -0.301 N  
DOCKED: ATOM     21  H53 UNL     1       8.503  -4.940   2.009 +0.00 +0.00    +0.150 HD 
DOCKED: BRANCH  20  22
DOCKED: ATOM     22  C33 UNL     1       8.282  -3.243   3.262 +0.00 +0.00    +0.186 C  
DOCKED: BRANCH  22  23
DOCKED: ATOM     23  C41 UNL     1       9.474  -2.786   2.429 +0.00 +0.00    +0.326 C  
DOCKED: ATOM     24  O14 UNL     1       9.698  -1.634   2.089 +0.00 -0.00    -0.249 OA 
DOCKED: BRANCH  23  25
DOCKED: ATOM     25  O15 UNL     1      10.280  -3.793   2.039 +0.00 -0.00    -0.479 OA 
DOCKED: ATOM     26  H62 UNL     1       9.808  -4.189   1.277 +0.00 +0.00    +0.295 HD 
DOCKED: ENDBRANCH  23  25
DOCKED: ENDBRANCH  22  23
DOCKED: BRANCH  22  27
DOCKED: ATOM     27  C34 UNL     1       8.695  -3.232   4.738 +0.00 +0.00    +0.069 C  
DOCKED: BRANCH  27  28
DOCKED: ATOM     28  C35 UNL     1       9.213  -4.564   5.228 +0.00 -0.00    -0.045 A  
DOCKED: ATOM     29  C36 UNL     1      10.512  -4.984   4.913 +0.00 +0.00    +0.004 A  
DOCKED: ATOM     30  C37 UNL     1      10.988  -6.215   5.370 +0.00 +0.00    +0.000 A  
DOCKED: ATOM     31  C38 UNL     1      10.171  -7.037   6.143 +0.00 +0.00    +0.000 A  
DOCKED: ATOM     32  C39 UNL     1       8.878  -6.630   6.463 +0.00 +0.00    +0.000 A  
DOCKED: ATOM     33  C40 UNL     1       8.400  -5.399   6.007 +0.00 +0.00    +0.004 A  
DOCKED: ENDBRANCH  27  28
DOCKED: ENDBRANCH  22  27
DOCKED: ENDBRANCH  20  22
DOCKED: ENDBRANCH  17  18
DOCKED: BRANCH  17  34
DOCKED: ATOM     34  C29 UNL     1       7.481  -7.533   2.407 +0.00 +0.00    +0.043 C  
DOCKED: BRANCH  34  35
DOCKED: ATOM     35  C30 UNL     1       8.488  -7.725   1.271 +0.00 +0.00    +0.123 C  
DOCKED: BRANCH  35  36
DOCKED: ATOM     36  C31 UNL     1       9.456  -6.582   1.170 +0.00 +0.00    +0.305 C  
DOCKED: ATOM     37  O11 UNL     1      10.272  -6.258   2.014 +0.00 -0.00    -0.251 OA 
DOCKED: BRANCH  36  38
DOCKED: ATOM     38  O12 UNL     1       9.290  -5.876   0.037 +0.00 -0.00    -0.481 OA 
DOCKED: ATOM     39  H52 UNL     1       9.735  -5.021   0.215 +0.00 +0.00    +0.295 HD 
DOCKED: ENDBRANCH  36  38
DOCKED: ENDBRANCH  35  36
DOCKED: ENDBRANCH  34  35
DOCKED: ENDBRANCH  17  34
DOCKED: ENDBRANCH  15  17
DOCKED: ENDBRANCH  11  13
DOCKED: ENDBRANCH   9  11
DOCKED: ENDBRANCH   6   7
DOCKED: BRANCH   6  40
DOCKED: ATOM     40  C42 UNL     1       6.509  -0.606  -0.539 +0.00 +0.00    +0.012 C  
DOCKED: ATOM     41  C43 UNL     1       7.043   0.775  -0.944 +0.00 +0.00    +0.009 C  
DOCKED: ATOM     42  C44 UNL     1       5.581  -0.457   0.665 +0.00 +0.00    +0.009 C  
DOCKED: ENDBRANCH   6  40
DOCKED: ENDBRANCH   4   6
DOCKED: ENDBRANCH   1   2
DOCKED: BRANCH   1  43
DOCKED: ATOM     43  C20 UNL     1      10.801  -3.765  -3.127 +0.00 +0.00    +0.143 C  
DOCKED: BRANCH  43  44
DOCKED: ATOM     44  O7  UNL     1      10.894  -4.616  -1.986 +0.00 -0.00    -0.389 OA 
DOCKED: ATOM     45  H36 UNL     1      11.594  -4.228  -1.420 +0.00 +0.00    +0.210 HD 
DOCKED: ENDBRANCH  43  44
DOCKED: BRANCH  43  46
DOCKED: ATOM     46  C5  UNL     1      12.080  -3.894  -4.007 +0.00 +0.00    +0.102 C  
DOCKED: BRANCH  46  47
DOCKED: ATOM     47  N1  UNL     1      12.832  -5.140  -3.724 +0.00 -0.00    -0.308 N  
DOCKED: ATOM     48  C6  UNL     1      12.273  -6.388  -3.560 +0.00 +0.00    +0.234 C  
DOCKED: ATOM     49  O1  UNL     1      11.099  -6.637  -3.813 +0.00 -0.00    -0.274 OA 
DOCKED: ATOM     50  H11 UNL     1      13.805  -5.021  -3.434 +0.00 +0.00    +0.149 HD 
DOCKED: BRANCH  48  51
DOCKED: ATOM     51  C7  UNL     1      13.240  -7.484  -3.025 +0.00 +0.00    +0.168 C  
DOCKED: BRANCH  51  52
DOCKED: ATOM     52  N3  UNL     1      14.110  -6.861  -2.021 +0.00 -0.00    -0.302 N  
DOCKED: ATOM     53  C10 UNL     1      15.211  -6.117  -2.390 +0.00 +0.00    +0.234 C  
DOCKED: ATOM     54  O3  UNL     1      15.626  -6.079  -3.551 +0.00 -0.00    -0.274 OA 
DOCKED: ATOM     55  H17 UNL     1      13.658  -6.614  -1.147 +0.00 +0.00    +0.150 HD 
DOCKED: BRANCH  53  56
DOCKED: ATOM     56  C11 UNL     1      15.908  -5.346  -1.239 +0.00 +0.00    +0.161 C  
DOCKED: BRANCH  56  57
DOCKED: ATOM     57  N4  UNL     1      14.871  -4.936  -0.282 +0.00 -0.00    -0.302 N  
DOCKED: ATOM     58  C12 UNL     1      13.839  -4.111  -0.670 +0.00 +0.00    +0.230 C  
DOCKED: ATOM     59  O4  UNL     1      13.770  -3.588  -1.786 +0.00 -0.00    -0.274 OA 
DOCKED: ATOM     60  H19 UNL     1      14.685  -5.594   0.470 +0.00 +0.00    +0.150 HD 
DOCKED: BRANCH  58  61
DOCKED: ATOM     61  C13 UNL     1      12.787  -3.822   0.429 +0.00 +0.00    +0.138 C  
DOCKED: BRANCH  61  62
DOCKED: ATOM     62  N5  UNL     1      11.746  -4.875   0.361 +0.00 -0.00    -0.320 NA 
DOCKED: ATOM     63  H21 UNL     1      10.867  -4.411   0.110 +0.00 +0.00    +0.119 HD 
DOCKED: ATOM     64  H22 UNL     1      11.578  -5.217   1.309 +0.00 +0.00    +0.119 HD 
DOCKED: ENDBRANCH  61  62
DOCKED: BRANCH  61  65
DOCKED: ATOM     65  C14 UNL     1      13.403  -3.837   1.835 +0.00 +0.00    +0.039 C  
DOCKED: BRANCH  65  66
DOCKED: ATOM     66  C15 UNL     1      13.022  -5.050   2.681 +0.00 +0.00    +0.122 C  
DOCKED: BRANCH  66  67
DOCKED: ATOM     67  C16 UNL     1      13.632  -6.331   2.187 +0.00 +0.00    +0.305 C  
DOCKED: ATOM     68  O5  UNL     1      14.485  -6.983   2.771 +0.00 -0.00    -0.251 OA 
DOCKED: BRANCH  67  69
DOCKED: ATOM     69  O6  UNL     1      13.158  -6.729   0.990 +0.00 -0.00    -0.481 OA 
DOCKED: ATOM     70  H27 UNL     1      12.203  -6.886   1.135 +0.00 +0.00    +0.295 HD 
DOCKED: ENDBRANCH  67  69
DOCKED: ENDBRANCH  66  67
DOCKED: ENDBRANCH  65  66
DOCKED: ENDBRANCH  61  65
DOCKED: ENDBRANCH  58  61
DOCKED: ENDBRANCH  56  57
DOCKED: BRANCH  56  71
DOCKED: ATOM     71  C17 UNL     1      17.009  -6.137  -0.498 +0.00 +0.00    +0.012 C  
DOCKED: ATOM     72  C18 UNL     1      16.694  -7.632  -0.397 +0.00 +0.00    +0.009 C  
DOCKED: ATOM     73  C19 UNL     1      17.349  -5.574   0.883 +0.00 +0.00    +0.009 C  
DOCKED: ENDBRANCH  56  71
DOCKED: ENDBRANCH  53  56
DOCKED: ENDBRANCH  51  52
DOCKED: BRANCH  51  74
DOCKED: ATOM     74  C8  UNL     1      12.495  -8.658  -2.395 +0.00 +0.00    +0.127 C  
DOCKED: BRANCH  74  75
DOCKED: ATOM     75  C9  UNL     1      12.115  -8.269  -0.992 +0.00 +0.00    +0.213 C  
DOCKED: ATOM     76  N2  UNL     1      11.315  -7.174  -0.862 +0.00 -0.00    -0.329 N  
DOCKED: ATOM     77  O2  UNL     1      12.563  -8.849  -0.007 +0.00 -0.00    -0.276 OA 
DOCKED: ATOM     78  H15 UNL     1      11.126  -6.844   0.078 +0.00 +0.00    +0.145 HD 
DOCKED: ATOM     79  H16 UNL     1      11.080  -6.565  -1.635 +0.00 +0.00    +0.145 HD 
DOCKED: ENDBRANCH  74  75
DOCKED: ENDBRANCH  51  74
DOCKED: ENDBRANCH  48  51
DOCKED: ENDBRANCH  46  47
DOCKED: BRANCH  46  80
DOCKED: ATOM     80  C4  UNL     1      11.850  -3.839  -5.543 +0.00 +0.00    +0.028 C  
DOCKED: BRANCH  80  82
DOCKED: ATOM     81  C1  UNL     1      13.011  -5.691  -6.911 +0.00 +0.00    +0.007 C  
DOCKED: ATOM     82  C2  UNL     1      12.975  -4.214  -6.532 +0.00 -0.00    -0.015 C  
DOCKED: ATOM     83  C3  UNL     1      14.354  -3.699  -6.123 +0.00 +0.00    +0.007 C  
DOCKED: ENDBRANCH  80  82
DOCKED: ENDBRANCH  46  80
DOCKED: ENDBRANCH  43  46
DOCKED: ENDBRANCH   1  43
DOCKED: TORSDOF 36
DOCKED: TER
DOCKED: ENDMDL
________________________________________________________________________________


    FINAL DOCKED STATE:
    ________________________


Run:   12 / 20
Time taken for this run:   7.478s

DOCKED: MODEL        12
DOCKED: USER    Run = 12
DOCKED: USER
DOCKED: USER    Estimated Free Energy of Binding    = +10.74 kcal/mol  [=(1)+(2)+(3)-(4)]
DOCKED: USER
DOCKED: USER    (1) Final Intermolecular Energy     =  +0.00 kcal/mol
DOCKED: USER        vdW + Hbond + desolv Energy     =  +0.00 kcal/mol
DOCKED: USER        Electrostatic Energy            =  +0.00 kcal/mol
DOCKED: USER        Moving Ligand-Fixed Receptor    =  +0.00 kcal/mol
DOCKED: USER        Moving Ligand-Moving Receptor   =  +0.00 kcal/mol
DOCKED: USER    (2) Final Total Internal Energy     = -32.07 kcal/mol
DOCKED: USER    (3) Torsional Free Energy           = +10.74 kcal/mol
DOCKED: USER    (4) Unbound System's Energy         = -32.07 kcal/mol
DOCKED: USER
DOCKED: USER
DOCKED: REMARK  Name = ligands/ligand_10.pdb
DOCKED: REMARK  43 active torsions:
DOCKED: REMARK  status: ('A' for Active; 'I' for Inactive)
DOCKED: REMARK    1  A    between atoms: C1_1  and  C2_2
DOCKED: REMARK    2  A    between atoms: C2_2  and  C3_3
DOCKED: REMARK    3  A    between atoms: C2_2  and  C4_4
DOCKED: REMARK    4  A    between atoms: C4_4  and  C5_5
DOCKED: REMARK    5  A    between atoms: C5_5  and  N1_6
DOCKED: REMARK    6  A    between atoms: C5_5  and  C20_31
DOCKED: REMARK    7  A    between atoms: C6_7  and  C7_9
DOCKED: REMARK    8  A    between atoms: C7_9  and  C8_10
DOCKED: REMARK    9  A    between atoms: C7_9  and  N3_14
DOCKED: REMARK   10  A    between atoms: C8_10  and  C9_11
DOCKED: REMARK   11  A    between atoms: C10_15  and  C11_17
DOCKED: REMARK   12  A    between atoms: C11_17  and  N4_18
DOCKED: REMARK   13  A    between atoms: C11_17  and  C17_28
DOCKED: REMARK   14  A    between atoms: C12_19  and  C13_21
DOCKED: REMARK   15  A    between atoms: C13_21  and  N5_22
DOCKED: REMARK   16  A    between atoms: C13_21  and  C14_23
DOCKED: REMARK   17  A    between atoms: C14_23  and  C15_24
DOCKED: REMARK   18  A    between atoms: C15_24  and  C16_25
DOCKED: REMARK   19  A    between atoms: C16_25  and  O6_27
DOCKED: REMARK   20  A    between atoms: C17_28  and  C18_29
DOCKED: REMARK   21  A    between atoms: C17_28  and  C19_30
DOCKED: REMARK   22  A    between atoms: C20_31  and  O7_32
DOCKED: REMARK   23  A    between atoms: C20_31  and  C21_33
DOCKED: REMARK   24  A    between atoms: C21_33  and  C22_34
DOCKED: REMARK   25  A    between atoms: N6_36  and  C23_37
DOCKED: REMARK   26  A    between atoms: C23_37  and  C24_38
DOCKED: REMARK   27  A    between atoms: C23_37  and  C42_66
DOCKED: REMARK   28  A    between atoms: N7_40  and  C25_41
DOCKED: REMARK   29  A    between atoms: C25_41  and  C26_42
DOCKED: REMARK   30  A    between atoms: C25_41  and  C27_43
DOCKED: REMARK   31  A    between atoms: N8_45  and  C28_46
DOCKED: REMARK   32  A    between atoms: C28_46  and  C29_47
DOCKED: REMARK   33  A    between atoms: C28_46  and  C32_52
DOCKED: REMARK   34  A    between atoms: C29_47  and  C30_48
DOCKED: REMARK   35  A    between atoms: C30_48  and  C31_49
DOCKED: REMARK   36  A    between atoms: C31_49  and  O12_51
DOCKED: REMARK   37  A    between atoms: N9_54  and  C33_55
DOCKED: REMARK   38  A    between atoms: C33_55  and  C34_56
DOCKED: REMARK   39  A    between atoms: C33_55  and  C41_63
DOCKED: REMARK   40  A    between atoms: C34_56  and  C35_57
DOCKED: REMARK   41  A    between atoms: C41_63  and  O15_65
DOCKED: REMARK   42  A    between atoms: C42_66  and  C43_67
DOCKED: REMARK   43  A    between atoms: C42_66  and  C44_68
DOCKED: REMARK                            x       y       z     vdW  Elec       q    Type
DOCKED: REMARK                         _______ _______ _______ _____ _____    ______ ____
DOCKED: USER                              x       y       z     vdW  Elec       q    Type
DOCKED: USER                           _______ _______ _______ _____ _____    ______ ____
DOCKED: ROOT
DOCKED: ATOM      1  C21 UNL     1       9.486  -5.316   0.452 +0.00 +0.00    +0.129 C  
DOCKED: ENDROOT
DOCKED: BRANCH   1   2
DOCKED: ATOM      2  C22 UNL     1       8.075  -5.814   0.698 +0.00 +0.00    +0.216 C  
DOCKED: ATOM      3  O8  UNL     1       7.080  -5.268   0.227 +0.00 -0.00    -0.276 OA 
DOCKED: ATOM      4  N6  UNL     1       8.022  -6.965   1.452 +0.00 -0.00    -0.304 N  
DOCKED: ATOM      5  H39 UNL     1       8.831  -7.157   2.035 +0.00 +0.00    +0.149 HD 
DOCKED: BRANCH   4   6
DOCKED: ATOM      6  C23 UNL     1       6.750  -7.423   2.017 +0.00 +0.00    +0.161 C  
DOCKED: BRANCH   6   7
DOCKED: ATOM      7  C24 UNL     1       6.848  -7.117   3.530 +0.00 +0.00    +0.234 C  
DOCKED: ATOM      8  O9  UNL     1       7.750  -6.423   4.004 +0.00 -0.00    -0.274 OA 
DOCKED: ATOM      9  N7  UNL     1       5.875  -7.700   4.301 +0.00 -0.00    -0.303 N  
DOCKED: ATOM     10  H41 UNL     1       5.152  -8.273   3.873 +0.00 +0.00    +0.149 HD 
DOCKED: BRANCH   9  11
DOCKED: ATOM     11  C25 UNL     1       5.795  -7.529   5.745 +0.00 +0.00    +0.156 C  
DOCKED: ATOM     12  C26 UNL     1       4.746  -8.457   6.344 +0.00 +0.00    +0.038 C  
DOCKED: BRANCH  11  13
DOCKED: ATOM     13  C27 UNL     1       7.196  -7.824   6.322 +0.00 +0.00    +0.234 C  
DOCKED: ATOM     14  O10 UNL     1       8.088  -6.972   6.340 +0.00 -0.00    -0.274 OA 
DOCKED: ATOM     15  N8  UNL     1       7.362  -9.096   6.834 +0.00 -0.00    -0.302 N  
DOCKED: ATOM     16  H46 UNL     1       6.714  -9.808   6.516 +0.00 +0.00    +0.150 HD 
DOCKED: BRANCH  15  17
DOCKED: ATOM     17  C28 UNL     1       8.693  -9.586   7.177 +0.00 +0.00    +0.159 C  
DOCKED: BRANCH  17  18
DOCKED: ATOM     18  C32 UNL     1       9.289  -8.663   8.263 +0.00 +0.00    +0.234 C  
DOCKED: ATOM     19  O13 UNL     1       9.018  -8.801   9.454 +0.00 -0.00    -0.274 OA 
DOCKED: ATOM     20  N9  UNL     1      10.088  -7.655   7.779 +0.00 -0.00    -0.301 N  
DOCKED: ATOM     21  H53 UNL     1      10.138  -7.508   6.779 +0.00 +0.00    +0.150 HD 
DOCKED: BRANCH  20  22
DOCKED: ATOM     22  C33 UNL     1      10.494  -6.524   8.623 +0.00 +0.00    +0.186 C  
DOCKED: BRANCH  22  23
DOCKED: ATOM     23  C41 UNL     1      10.806  -5.381   7.666 +0.00 +0.00    +0.326 C  
DOCKED: ATOM     24  O14 UNL     1      11.165  -4.260   7.997 +0.00 -0.00    -0.249 OA 
DOCKED: BRANCH  23  25
DOCKED: ATOM     25  O15 UNL     1      10.610  -5.691   6.370 +0.00 -0.00    -0.479 OA 
DOCKED: ATOM     26  H62 UNL     1       9.661  -5.928   6.326 +0.00 +0.00    +0.295 HD 
DOCKED: ENDBRANCH  23  25
DOCKED: ENDBRANCH  22  23
DOCKED: BRANCH  22  27
DOCKED: ATOM     27  C34 UNL     1      11.757  -6.829   9.437 +0.00 +0.00    +0.069 C  
DOCKED: BRANCH  27  28
DOCKED: ATOM     28  C35 UNL     1      12.994  -6.999   8.588 +0.00 -0.00    -0.045 A  
DOCKED: ATOM     29  C36 UNL     1      14.068  -6.104   8.703 +0.00 +0.00    +0.004 A  
DOCKED: ATOM     30  C37 UNL     1      15.211  -6.267   7.917 +0.00 +0.00    +0.000 A  
DOCKED: ATOM     31  C38 UNL     1      15.291  -7.320   7.009 +0.00 +0.00    +0.000 A  
DOCKED: ATOM     32  C39 UNL     1      14.231  -8.216   6.886 +0.00 +0.00    +0.000 A  
DOCKED: ATOM     33  C40 UNL     1      13.087  -8.056   7.671 +0.00 +0.00    +0.004 A  
DOCKED: ENDBRANCH  27  28
DOCKED: ENDBRANCH  22  27
DOCKED: ENDBRANCH  20  22
DOCKED: ENDBRANCH  17  18
DOCKED: BRANCH  17  34
DOCKED: ATOM     34  C29 UNL     1       9.610  -9.708   5.946 +0.00 +0.00    +0.043 C  
DOCKED: BRANCH  34  35
DOCKED: ATOM     35  C30 UNL     1       8.988  -9.336   4.599 +0.00 +0.00    +0.123 C  
DOCKED: BRANCH  35  36
DOCKED: ATOM     36  C31 UNL     1       9.768  -8.268   3.889 +0.00 +0.00    +0.305 C  
DOCKED: ATOM     37  O11 UNL     1      10.068  -8.265   2.708 +0.00 -0.00    -0.251 OA 
DOCKED: BRANCH  36  38
DOCKED: ATOM     38  O12 UNL     1      10.180  -7.299   4.727 +0.00 -0.00    -0.481 OA 
DOCKED: ATOM     39  H52 UNL     1       9.464  -6.630   4.698 +0.00 +0.00    +0.295 HD 
DOCKED: ENDBRANCH  36  38
DOCKED: ENDBRANCH  35  36
DOCKED: ENDBRANCH  34  35
DOCKED: ENDBRANCH  17  34
DOCKED: ENDBRANCH  15  17
DOCKED: ENDBRANCH  11  13
DOCKED: ENDBRANCH   9  11
DOCKED: ENDBRANCH   6   7
DOCKED: BRANCH   6  40
DOCKED: ATOM     40  C42 UNL     1       6.544  -8.929   1.735 +0.00 +0.00    +0.012 C  
DOCKED: ATOM     41  C43 UNL     1       7.754  -9.507   0.988 +0.00 +0.00    +0.009 C  
DOCKED: ATOM     42  C44 UNL     1       5.272  -9.218   0.939 +0.00 +0.00    +0.009 C  
DOCKED: ENDBRANCH   6  40
DOCKED: ENDBRANCH   4   6
DOCKED: ENDBRANCH   1   2
DOCKED: BRANCH   1  43
DOCKED: ATOM     43  C20 UNL     1      10.401  -5.719   1.607 +0.00 +0.00    +0.143 C  
DOCKED: BRANCH  43  44
DOCKED: ATOM     44  O7  UNL     1       9.783  -5.395   2.852 +0.00 -0.00    -0.389 OA 
DOCKED: ATOM     45  H36 UNL     1       9.815  -6.215   3.387 +0.00 +0.00    +0.210 HD 
DOCKED: ENDBRANCH  43  44
DOCKED: BRANCH  43  46
DOCKED: ATOM     46  C5  UNL     1      11.818  -5.080   1.521 +0.00 +0.00    +0.102 C  
DOCKED: BRANCH  46  47
DOCKED: ATOM     47  N1  UNL     1      11.925  -3.843   2.332 +0.00 -0.00    -0.308 N  
DOCKED: ATOM     48  C6  UNL     1      13.022  -3.012   2.376 +0.00 +0.00    +0.234 C  
DOCKED: ATOM     49  O1  UNL     1      13.969  -3.108   1.602 +0.00 -0.00    -0.274 OA 
DOCKED: ATOM     50  H11 UNL     1      11.213  -3.718   3.055 +0.00 +0.00    +0.149 HD 
DOCKED: BRANCH  48  51
DOCKED: ATOM     51  C7  UNL     1      12.987  -1.923   3.487 +0.00 +0.00    +0.168 C  
DOCKED: BRANCH  51  52
DOCKED: ATOM     52  N3  UNL     1      11.583  -1.564   3.717 +0.00 -0.00    -0.302 N  
DOCKED: ATOM     53  C10 UNL     1      10.743  -1.251   2.669 +0.00 +0.00    +0.234 C  
DOCKED: ATOM     54  O3  UNL     1      11.155  -1.081   1.518 +0.00 -0.00    -0.274 OA 
DOCKED: ATOM     55  H17 UNL     1      11.158  -1.976   4.541 +0.00 +0.00    +0.150 HD 
DOCKED: BRANCH  53  56
DOCKED: ATOM     56  C11 UNL     1       9.244  -1.103   3.039 +0.00 +0.00    +0.161 C  
DOCKED: BRANCH  56  57
DOCKED: ATOM     57  N4  UNL     1       8.916  -2.160   4.004 +0.00 -0.00    -0.302 N  
DOCKED: ATOM     58  C12 UNL     1       7.752  -2.886   3.887 +0.00 +0.00    +0.230 C  
DOCKED: ATOM     59  O4  UNL     1       6.878  -2.639   3.052 +0.00 -0.00    -0.274 OA 
DOCKED: ATOM     60  H19 UNL     1       9.712  -2.622   4.436 +0.00 +0.00    +0.150 HD 
DOCKED: BRANCH  58  61
DOCKED: ATOM     61  C13 UNL     1       7.576  -4.010   4.937 +0.00 +0.00    +0.138 C  
DOCKED: BRANCH  61  62
DOCKED: ATOM     62  N5  UNL     1       8.909  -4.596   5.216 +0.00 -0.00    -0.320 NA 
DOCKED: ATOM     63  H21 UNL     1       9.580  -4.117   4.607 +0.00 +0.00    +0.119 HD 
DOCKED: ATOM     64  H22 UNL     1       8.911  -5.558   4.871 +0.00 +0.00    +0.119 HD 
DOCKED: ENDBRANCH  61  62
DOCKED: BRANCH  61  65
DOCKED: ATOM     65  C14 UNL     1       6.992  -3.482   6.255 +0.00 +0.00    +0.039 C  
DOCKED: BRANCH  65  66
DOCKED: ATOM     66  C15 UNL     1       7.648  -2.203   6.772 +0.00 +0.00    +0.122 C  
DOCKED: BRANCH  66  67
DOCKED: ATOM     67  C16 UNL     1       9.052  -2.417   7.264 +0.00 +0.00    +0.305 C  
DOCKED: ATOM     68  O5  UNL     1       9.399  -2.430   8.436 +0.00 -0.00    -0.251 OA 
DOCKED: BRANCH  67  69
DOCKED: ATOM     69  O6  UNL     1       9.950  -2.593   6.276 +0.00 -0.00    -0.481 OA 
DOCKED: ATOM     70  H27 UNL     1      10.247  -3.521   6.366 +0.00 +0.00    +0.295 HD 
DOCKED: ENDBRANCH  67  69
DOCKED: ENDBRANCH  66  67
DOCKED: ENDBRANCH  65  66
DOCKED: ENDBRANCH  61  65
DOCKED: ENDBRANCH  58  61
DOCKED: ENDBRANCH  56  57
DOCKED: BRANCH  56  71
DOCKED: ATOM     71  C17 UNL     1       8.850   0.271   3.624 +0.00 +0.00    +0.012 C  
DOCKED: ATOM     72  C18 UNL     1       9.373   0.477   5.049 +0.00 +0.00    +0.009 C  
DOCKED: ATOM     73  C19 UNL     1       7.349   0.557   3.566 +0.00 +0.00    +0.009 C  
DOCKED: ENDBRANCH  56  71
DOCKED: ENDBRANCH  53  56
DOCKED: ENDBRANCH  51  52
DOCKED: BRANCH  51  74
DOCKED: ATOM     74  C8  UNL     1      13.608  -2.408   4.795 +0.00 +0.00    +0.127 C  
DOCKED: BRANCH  74  75
DOCKED: ATOM     75  C9  UNL     1      12.728  -3.491   5.355 +0.00 +0.00    +0.213 C  
DOCKED: ATOM     76  N2  UNL     1      13.277  -4.279   6.322 +0.00 -0.00    -0.329 N  
DOCKED: ATOM     77  O2  UNL     1      11.604  -3.716   4.915 +0.00 -0.00    -0.276 OA 
DOCKED: ATOM     78  H15 UNL     1      12.732  -5.071   6.644 +0.00 +0.00    +0.145 HD 
DOCKED: ATOM     79  H16 UNL     1      14.256  -4.242   6.576 +0.00 +0.00    +0.145 HD 
DOCKED: ENDBRANCH  74  75
DOCKED: ENDBRANCH  51  74
DOCKED: ENDBRANCH  48  51
DOCKED: ENDBRANCH  46  47
DOCKED: BRANCH  46  80
DOCKED: ATOM     80  C4  UNL     1      12.999  -6.001   1.937 +0.00 +0.00    +0.028 C  
DOCKED: BRANCH  80  82
DOCKED: ATOM     81  C1  UNL     1      14.683  -5.827   3.881 +0.00 +0.00    +0.007 C  
DOCKED: ATOM     82  C2  UNL     1      13.303  -6.286   3.424 +0.00 -0.00    -0.015 C  
DOCKED: ATOM     83  C3  UNL     1      13.013  -7.725   3.849 +0.00 +0.00    +0.007 C  
DOCKED: ENDBRANCH  80  82
DOCKED: ENDBRANCH  46  80
DOCKED: ENDBRANCH  43  46
DOCKED: ENDBRANCH   1  43
DOCKED: TORSDOF 36
DOCKED: TER
DOCKED: ENDMDL
________________________________________________________________________________


    FINAL DOCKED STATE:
    ________________________


Run:   13 / 20
Time taken for this run:   7.478s

DOCKED: MODEL        13
DOCKED: USER    Run = 13
DOCKED: USER
DOCKED: USER    Estimated Free Energy of Binding    = +10.74 kcal/mol  [=(1)+(2)+(3)-(4)]
DOCKED: USER
DOCKED: USER    (1) Final Intermolecular Energy     =  +0.00 kcal/mol
DOCKED: USER        vdW + Hbond + desolv Energy     =  +0.00 kcal/mol
DOCKED: USER        Electrostatic Energy            =  +0.00 kcal/mol
DOCKED: USER        Moving Ligand-Fixed Receptor    =  +0.00 kcal/mol
DOCKED: USER        Moving Ligand-Moving Receptor   =  +0.00 kcal/mol
DOCKED: USER    (2) Final Total Internal Energy     = -33.22 kcal/mol
DOCKED: USER    (3) Torsional Free Energy           = +10.74 kcal/mol
DOCKED: USER    (4) Unbound System's Energy         = -33.22 kcal/mol
DOCKED: USER
DOCKED: USER
DOCKED: REMARK  Name = ligands/ligand_10.pdb
DOCKED: REMARK  43 active torsions:
DOCKED: REMARK  status: ('A' for Active; 'I' for Inactive)
DOCKED: REMARK    1  A    between atoms: C1_1  and  C2_2
DOCKED: REMARK    2  A    between atoms: C2_2  and  C3_3
DOCKED: REMARK    3  A    between atoms: C2_2  and  C4_4
DOCKED: REMARK    4  A    between atoms: C4_4  and  C5_5
DOCKED: REMARK    5  A    between atoms: C5_5  and  N1_6
DOCKED: REMARK    6  A    between atoms: C5_5  and  C20_31
DOCKED: REMARK    7  A    between atoms: C6_7  and  C7_9
DOCKED: REMARK    8  A    between atoms: C7_9  and  C8_10
DOCKED: REMARK    9  A    between atoms: C7_9  and  N3_14
DOCKED: REMARK   10  A    between atoms: C8_10  and  C9_11
DOCKED: REMARK   11  A    between atoms: C10_15  and  C11_17
DOCKED: REMARK   12  A    between atoms: C11_17  and  N4_18
DOCKED: REMARK   13  A    between atoms: C11_17  and  C17_28
DOCKED: REMARK   14  A    between atoms: C12_19  and  C13_21
DOCKED: REMARK   15  A    between atoms: C13_21  and  N5_22
DOCKED: REMARK   16  A    between atoms: C13_21  and  C14_23
DOCKED: REMARK   17  A    between atoms: C14_23  and  C15_24
DOCKED: REMARK   18  A    between atoms: C15_24  and  C16_25
DOCKED: REMARK   19  A    between atoms: C16_25  and  O6_27
DOCKED: REMARK   20  A    between atoms: C17_28  and  C18_29
DOCKED: REMARK   21  A    between atoms: C17_28  and  C19_30
DOCKED: REMARK   22  A    between atoms: C20_31  and  O7_32
DOCKED: REMARK   23  A    between atoms: C20_31  and  C21_33
DOCKED: REMARK   24  A    between atoms: C21_33  and  C22_34
DOCKED: REMARK   25  A    between atoms: N6_36  and  C23_37
DOCKED: REMARK   26  A    between atoms: C23_37  and  C24_38
DOCKED: REMARK   27  A    between atoms: C23_37  and  C42_66
DOCKED: REMARK   28  A    between atoms: N7_40  and  C25_41
DOCKED: REMARK   29  A    between atoms: C25_41  and  C26_42
DOCKED: REMARK   30  A    between atoms: C25_41  and  C27_43
DOCKED: REMARK   31  A    between atoms: N8_45  and  C28_46
DOCKED: REMARK   32  A    between atoms: C28_46  and  C29_47
DOCKED: REMARK   33  A    between atoms: C28_46  and  C32_52
DOCKED: REMARK   34  A    between atoms: C29_47  and  C30_48
DOCKED: REMARK   35  A    between atoms: C30_48  and  C31_49
DOCKED: REMARK   36  A    between atoms: C31_49  and  O12_51
DOCKED: REMARK   37  A    between atoms: N9_54  and  C33_55
DOCKED: REMARK   38  A    between atoms: C33_55  and  C34_56
DOCKED: REMARK   39  A    between atoms: C33_55  and  C41_63
DOCKED: REMARK   40  A    between atoms: C34_56  and  C35_57
DOCKED: REMARK   41  A    between atoms: C41_63  and  O15_65
DOCKED: REMARK   42  A    between atoms: C42_66  and  C43_67
DOCKED: REMARK   43  A    between atoms: C42_66  and  C44_68
DOCKED: REMARK                            x       y       z     vdW  Elec       q    Type
DOCKED: REMARK                         _______ _______ _______ _____ _____    ______ ____
DOCKED: USER                              x       y       z     vdW  Elec       q    Type
DOCKED: USER                           _______ _______ _______ _____ _____    ______ ____
DOCKED: ROOT
DOCKED: ATOM      1  C21 UNL     1       4.165  -6.737   0.973 +0.00 +0.00    +0.129 C  
DOCKED: ENDROOT
DOCKED: BRANCH   1   2
DOCKED: ATOM      2  C22 UNL     1       4.673  -7.826   1.897 +0.00 +0.00    +0.216 C  
DOCKED: ATOM      3  O8  UNL     1       3.928  -8.530   2.575 +0.00 -0.00    -0.276 OA 
DOCKED: ATOM      4  N6  UNL     1       6.040  -7.986   1.860 +0.00 -0.00    -0.304 N  
DOCKED: ATOM      5  H39 UNL     1       6.576  -7.190   1.529 +0.00 +0.00    +0.149 HD 
DOCKED: BRANCH   4   6
DOCKED: ATOM      6  C23 UNL     1       6.720  -8.788   2.881 +0.00 +0.00    +0.161 C  
DOCKED: BRANCH   6   7
DOCKED: ATOM      7  C24 UNL     1       6.836 -10.205   2.270 +0.00 +0.00    +0.234 C  
DOCKED: ATOM      8  O9  UNL     1       7.886 -10.848   2.295 +0.00 -0.00    -0.274 OA 
DOCKED: ATOM      9  N7  UNL     1       5.691 -10.671   1.675 +0.00 -0.00    -0.303 N  
DOCKED: ATOM     10  H41 UNL     1       4.846 -10.107   1.669 +0.00 +0.00    +0.149 HD 
DOCKED: BRANCH   9  11
DOCKED: ATOM     11  C25 UNL     1       5.599 -11.983   1.048 +0.00 +0.00    +0.156 C  
DOCKED: ATOM     12  C26 UNL     1       4.200 -12.220   0.493 +0.00 +0.00    +0.038 C  
DOCKED: BRANCH  11  13
DOCKED: ATOM     13  C27 UNL     1       6.660 -12.033  -0.071 +0.00 +0.00    +0.234 C  
DOCKED: ATOM     14  O10 UNL     1       6.960 -13.086  -0.641 +0.00 -0.00    -0.274 OA 
DOCKED: ATOM     15  N8  UNL     1       7.225 -10.816  -0.398 +0.00 -0.00    -0.302 N  
DOCKED: ATOM     16  H46 UNL     1       7.160 -10.078   0.295 +0.00 +0.00    +0.150 HD 
DOCKED: BRANCH  15  17
DOCKED: ATOM     17  C28 UNL     1       8.406 -10.754  -1.252 +0.00 +0.00    +0.159 C  
DOCKED: BRANCH  17  18
DOCKED: ATOM     18  C32 UNL     1       9.595 -10.249  -0.404 +0.00 +0.00    +0.234 C  
DOCKED: ATOM     19  O13 UNL     1      10.739 -10.666  -0.577 +0.00 -0.00    -0.274 OA 
DOCKED: ATOM     20  N9  UNL     1       9.254  -9.353   0.579 +0.00 -0.00    -0.301 N  
DOCKED: ATOM     21  H53 UNL     1       8.275  -9.178   0.764 +0.00 +0.00    +0.150 HD 
DOCKED: BRANCH  20  22
DOCKED: ATOM     22  C33 UNL     1      10.192  -8.997   1.653 +0.00 +0.00    +0.186 C  
DOCKED: BRANCH  22  23
DOCKED: ATOM     23  C41 UNL     1       9.664  -7.700   2.253 +0.00 +0.00    +0.326 C  
DOCKED: ATOM     24  O14 UNL     1      10.062  -7.189   3.289 +0.00 -0.00    -0.249 OA 
DOCKED: BRANCH  23  25
DOCKED: ATOM     25  O15 UNL     1       8.652  -7.151   1.553 +0.00 -0.00    -0.479 OA 
DOCKED: ATOM     26  H62 UNL     1       8.898  -7.313   0.619 +0.00 +0.00    +0.295 HD 
DOCKED: ENDBRANCH  23  25
DOCKED: ENDBRANCH  22  23
DOCKED: BRANCH  22  27
DOCKED: ATOM     27  C34 UNL     1      11.610  -8.743   1.128 +0.00 +0.00    +0.069 C  
DOCKED: BRANCH  27  28
DOCKED: ATOM     28  C35 UNL     1      11.755  -7.429   0.398 +0.00 -0.00    -0.045 A  
DOCKED: ATOM     29  C36 UNL     1      11.356  -7.308  -0.940 +0.00 +0.00    +0.004 A  
DOCKED: ATOM     30  C37 UNL     1      11.491  -6.089  -1.610 +0.00 +0.00    +0.000 A  
DOCKED: ATOM     31  C38 UNL     1      12.027  -4.984  -0.952 +0.00 +0.00    +0.000 A  
DOCKED: ATOM     32  C39 UNL     1      12.426  -5.093   0.378 +0.00 +0.00    +0.000 A  
DOCKED: ATOM     33  C40 UNL     1      12.293  -6.310   1.051 +0.00 +0.00    +0.004 A  
DOCKED: ENDBRANCH  27  28
DOCKED: ENDBRANCH  22  27
DOCKED: ENDBRANCH  20  22
DOCKED: ENDBRANCH  17  18
DOCKED: BRANCH  17  34
DOCKED: ATOM     34  C29 UNL     1       8.178  -9.896  -2.509 +0.00 +0.00    +0.043 C  
DOCKED: BRANCH  34  35
DOCKED: ATOM     35  C30 UNL     1       8.636  -8.438  -2.427 +0.00 +0.00    +0.123 C  
DOCKED: BRANCH  35  36
DOCKED: ATOM     36  C31 UNL     1       8.030  -7.717  -1.259 +0.00 +0.00    +0.305 C  
DOCKED: ATOM     37  O11 UNL     1       7.208  -8.174  -0.484 +0.00 -0.00    -0.251 OA 
DOCKED: BRANCH  36  38
DOCKED: ATOM     38  O12 UNL     1       8.449  -6.441  -1.178 +0.00 -0.00    -0.481 OA 
DOCKED: ATOM     39  H52 UNL     1       7.622  -5.916  -1.129 +0.00 +0.00    +0.295 HD 
DOCKED: ENDBRANCH  36  38
DOCKED: ENDBRANCH  35  36
DOCKED: ENDBRANCH  34  35
DOCKED: ENDBRANCH  17  34
DOCKED: ENDBRANCH  15  17
DOCKED: ENDBRANCH  11  13
DOCKED: ENDBRANCH   9  11
DOCKED: ENDBRANCH   6   7
DOCKED: BRANCH   6  40
DOCKED: ATOM     40  C42 UNL     1       5.913  -8.782   4.199 +0.00 +0.00    +0.012 C  
DOCKED: ATOM     41  C43 UNL     1       6.219  -7.516   5.012 +0.00 +0.00    +0.009 C  
DOCKED: ATOM     42  C44 UNL     1       6.174 -10.014   5.064 +0.00 +0.00    +0.009 C  
DOCKED: ENDBRANCH   6  40
DOCKED: ENDBRANCH   4   6
DOCKED: ENDBRANCH   1   2
DOCKED: BRANCH   1  43
DOCKED: ATOM     43  C20 UNL     1       5.120  -6.553  -0.206 +0.00 +0.00    +0.143 C  
DOCKED: BRANCH  43  44
DOCKED: ATOM     44  O7  UNL     1       6.186  -5.679   0.165 +0.00 -0.00    -0.389 OA 
DOCKED: ATOM     45  H36 UNL     1       6.933  -6.261   0.418 +0.00 +0.00    +0.210 HD 
DOCKED: ENDBRANCH  43  44
DOCKED: BRANCH  43  46
DOCKED: ATOM     46  C5  UNL     1       4.415  -6.035  -1.493 +0.00 +0.00    +0.102 C  
DOCKED: BRANCH  46  47
DOCKED: ATOM     47  N1  UNL     1       4.895  -4.690  -1.893 +0.00 -0.00    -0.308 N  
DOCKED: ATOM     48  C6  UNL     1       6.116  -4.418  -2.470 +0.00 +0.00    +0.234 C  
DOCKED: ATOM     49  O1  UNL     1       6.871  -5.291  -2.887 +0.00 -0.00    -0.274 OA 
DOCKED: ATOM     50  H11 UNL     1       4.363  -3.897  -1.528 +0.00 +0.00    +0.149 HD 
DOCKED: BRANCH  48  51
DOCKED: ATOM     51  C7  UNL     1       6.486  -2.910  -2.564 +0.00 +0.00    +0.168 C  
DOCKED: BRANCH  51  52
DOCKED: ATOM     52  N3  UNL     1       6.640  -2.401  -1.197 +0.00 -0.00    -0.302 N  
DOCKED: ATOM     53  C10 UNL     1       5.548  -2.015  -0.449 +0.00 +0.00    +0.234 C  
DOCKED: ATOM     54  O3  UNL     1       4.419  -1.905  -0.934 +0.00 -0.00    -0.274 OA 
DOCKED: ATOM     55  H17 UNL     1       7.445  -2.754  -0.690 +0.00 +0.00    +0.150 HD 
DOCKED: BRANCH  53  56
DOCKED: ATOM     56  C11 UNL     1       5.840  -1.704   1.042 +0.00 +0.00    +0.161 C  
DOCKED: BRANCH  56  57
DOCKED: ATOM     57  N4  UNL     1       6.536  -2.864   1.613 +0.00 -0.00    -0.302 N  
DOCKED: ATOM     58  C12 UNL     1       6.694  -2.993   2.975 +0.00 +0.00    +0.230 C  
DOCKED: ATOM     59  O4  UNL     1       6.367  -2.119   3.782 +0.00 -0.00    -0.274 OA 
DOCKED: ATOM     60  H19 UNL     1       6.481  -3.720   1.067 +0.00 +0.00    +0.150 HD 
DOCKED: BRANCH  58  61
DOCKED: ATOM     61  C13 UNL     1       7.387  -4.300   3.430 +0.00 +0.00    +0.138 C  
DOCKED: BRANCH  61  62
DOCKED: ATOM     62  N5  UNL     1       7.068  -5.361   2.444 +0.00 -0.00    -0.320 NA 
DOCKED: ATOM     63  H21 UNL     1       7.960  -5.715   2.087 +0.00 +0.00    +0.119 HD 
DOCKED: ATOM     64  H22 UNL     1       6.638  -4.917   1.630 +0.00 +0.00    +0.119 HD 
DOCKED: ENDBRANCH  61  62
DOCKED: BRANCH  61  65
DOCKED: ATOM     65  C14 UNL     1       8.913  -4.149   3.504 +0.00 +0.00    +0.039 C  
DOCKED: BRANCH  65  66
DOCKED: ATOM     66  C15 UNL     1       9.647  -4.476   2.205 +0.00 +0.00    +0.122 C  
DOCKED: BRANCH  66  67
DOCKED: ATOM     67  C16 UNL     1       9.067  -3.776   1.008 +0.00 +0.00    +0.305 C  
DOCKED: ATOM     68  O5  UNL     1       9.275  -2.613   0.697 +0.00 -0.00    -0.251 OA 
DOCKED: BRANCH  67  69
DOCKED: ATOM     69  O6  UNL     1       8.255  -4.555   0.268 +0.00 -0.00    -0.481 OA 
DOCKED: ATOM     70  H27 UNL     1       8.309  -5.441   0.680 +0.00 +0.00    +0.295 HD 
DOCKED: ENDBRANCH  67  69
DOCKED: ENDBRANCH  66  67
DOCKED: ENDBRANCH  65  66
DOCKED: ENDBRANCH  61  65
DOCKED: ENDBRANCH  58  61
DOCKED: ENDBRANCH  56  57
DOCKED: BRANCH  56  71
DOCKED: ATOM     71  C17 UNL     1       6.675  -0.427   1.290 +0.00 +0.00    +0.012 C  
DOCKED: ATOM     72  C18 UNL     1       5.979   0.558   2.234 +0.00 +0.00    +0.009 C  
DOCKED: ATOM     73  C19 UNL     1       7.107   0.285   0.008 +0.00 +0.00    +0.009 C  
DOCKED: ENDBRANCH  56  71
DOCKED: ENDBRANCH  53  56
DOCKED: ENDBRANCH  51  52
DOCKED: BRANCH  51  74
DOCKED: ATOM     74  C8  UNL     1       7.778  -2.677  -3.343 +0.00 +0.00    +0.127 C  
DOCKED: BRANCH  74  75
DOCKED: ATOM     75  C9  UNL     1       8.917  -2.660  -2.360 +0.00 +0.00    +0.213 C  
DOCKED: ATOM     76  N2  UNL     1       9.241  -3.853  -1.787 +0.00 -0.00    -0.329 N  
DOCKED: ATOM     77  O2  UNL     1       9.477  -1.621  -2.023 +0.00 -0.00    -0.276 OA 
DOCKED: ATOM     78  H15 UNL     1       9.942  -3.844  -1.055 +0.00 +0.00    +0.145 HD 
DOCKED: ATOM     79  H16 UNL     1       8.684  -4.691  -1.900 +0.00 +0.00    +0.145 HD 
DOCKED: ENDBRANCH  74  75
DOCKED: ENDBRANCH  51  74
DOCKED: ENDBRANCH  48  51
DOCKED: ENDBRANCH  46  47
DOCKED: BRANCH  46  80
DOCKED: ATOM     80  C4  UNL     1       4.535  -6.951  -2.743 +0.00 +0.00    +0.028 C  
DOCKED: BRANCH  80  82
DOCKED: ATOM     81  C1  UNL     1       5.203  -9.134  -3.940 +0.00 +0.00    +0.007 C  
DOCKED: ATOM     82  C2  UNL     1       4.955  -8.431  -2.610 +0.00 -0.00    -0.015 C  
DOCKED: ATOM     83  C3  UNL     1       4.047  -9.251  -1.695 +0.00 +0.00    +0.007 C  
DOCKED: ENDBRANCH  80  82
DOCKED: ENDBRANCH  46  80
DOCKED: ENDBRANCH  43  46
DOCKED: ENDBRANCH   1  43
DOCKED: TORSDOF 36
DOCKED: TER
DOCKED: ENDMDL
________________________________________________________________________________


    FINAL DOCKED STATE:
    ________________________


Run:   14 / 20
Time taken for this run:   7.478s

DOCKED: MODEL        14
DOCKED: USER    Run = 14
DOCKED: USER
DOCKED: USER    Estimated Free Energy of Binding    = +10.74 kcal/mol  [=(1)+(2)+(3)-(4)]
DOCKED: USER
DOCKED: USER    (1) Final Intermolecular Energy     =  +0.00 kcal/mol
DOCKED: USER        vdW + Hbond + desolv Energy     =  +0.00 kcal/mol
DOCKED: USER        Electrostatic Energy            =  +0.00 kcal/mol
DOCKED: USER        Moving Ligand-Fixed Receptor    =  +0.00 kcal/mol
DOCKED: USER        Moving Ligand-Moving Receptor   =  +0.00 kcal/mol
DOCKED: USER    (2) Final Total Internal Energy     = -31.33 kcal/mol
DOCKED: USER    (3) Torsional Free Energy           = +10.74 kcal/mol
DOCKED: USER    (4) Unbound System's Energy         = -31.33 kcal/mol
DOCKED: USER
DOCKED: USER
DOCKED: REMARK  Name = ligands/ligand_10.pdb
DOCKED: REMARK  43 active torsions:
DOCKED: REMARK  status: ('A' for Active; 'I' for Inactive)
DOCKED: REMARK    1  A    between atoms: C1_1  and  C2_2
DOCKED: REMARK    2  A    between atoms: C2_2  and  C3_3
DOCKED: REMARK    3  A    between atoms: C2_2  and  C4_4
DOCKED: REMARK    4  A    between atoms: C4_4  and  C5_5
DOCKED: REMARK    5  A    between atoms: C5_5  and  N1_6
DOCKED: REMARK    6  A    between atoms: C5_5  and  C20_31
DOCKED: REMARK    7  A    between atoms: C6_7  and  C7_9
DOCKED: REMARK    8  A    between atoms: C7_9  and  C8_10
DOCKED: REMARK    9  A    between atoms: C7_9  and  N3_14
DOCKED: REMARK   10  A    between atoms: C8_10  and  C9_11
DOCKED: REMARK   11  A    between atoms: C10_15  and  C11_17
DOCKED: REMARK   12  A    between atoms: C11_17  and  N4_18
DOCKED: REMARK   13  A    between atoms: C11_17  and  C17_28
DOCKED: REMARK   14  A    between atoms: C12_19  and  C13_21
DOCKED: REMARK   15  A    between atoms: C13_21  and  N5_22
DOCKED: REMARK   16  A    between atoms: C13_21  and  C14_23
DOCKED: REMARK   17  A    between atoms: C14_23  and  C15_24
DOCKED: REMARK   18  A    between atoms: C15_24  and  C16_25
DOCKED: REMARK   19  A    between atoms: C16_25  and  O6_27
DOCKED: REMARK   20  A    between atoms: C17_28  and  C18_29
DOCKED: REMARK   21  A    between atoms: C17_28  and  C19_30
DOCKED: REMARK   22  A    between atoms: C20_31  and  O7_32
DOCKED: REMARK   23  A    between atoms: C20_31  and  C21_33
DOCKED: REMARK   24  A    between atoms: C21_33  and  C22_34
DOCKED: REMARK   25  A    between atoms: N6_36  and  C23_37
DOCKED: REMARK   26  A    between atoms: C23_37  and  C24_38
DOCKED: REMARK   27  A    between atoms: C23_37  and  C42_66
DOCKED: REMARK   28  A    between atoms: N7_40  and  C25_41
DOCKED: REMARK   29  A    between atoms: C25_41  and  C26_42
DOCKED: REMARK   30  A    between atoms: C25_41  and  C27_43
DOCKED: REMARK   31  A    between atoms: N8_45  and  C28_46
DOCKED: REMARK   32  A    between atoms: C28_46  and  C29_47
DOCKED: REMARK   33  A    between atoms: C28_46  and  C32_52
DOCKED: REMARK   34  A    between atoms: C29_47  and  C30_48
DOCKED: REMARK   35  A    between atoms: C30_48  and  C31_49
DOCKED: REMARK   36  A    between atoms: C31_49  and  O12_51
DOCKED: REMARK   37  A    between atoms: N9_54  and  C33_55
DOCKED: REMARK   38  A    between atoms: C33_55  and  C34_56
DOCKED: REMARK   39  A    between atoms: C33_55  and  C41_63
DOCKED: REMARK   40  A    between atoms: C34_56  and  C35_57
DOCKED: REMARK   41  A    between atoms: C41_63  and  O15_65
DOCKED: REMARK   42  A    between atoms: C42_66  and  C43_67
DOCKED: REMARK   43  A    between atoms: C42_66  and  C44_68
DOCKED: REMARK                            x       y       z     vdW  Elec       q    Type
DOCKED: REMARK                         _______ _______ _______ _____ _____    ______ ____
DOCKED: USER                              x       y       z     vdW  Elec       q    Type
DOCKED: USER                           _______ _______ _______ _____ _____    ______ ____
DOCKED: ROOT
DOCKED: ATOM      1  C21 UNL     1       5.747  -1.574  -7.147 +0.00 +0.00    +0.129 C  
DOCKED: ENDROOT
DOCKED: BRANCH   1   2
DOCKED: ATOM      2  C22 UNL     1       5.123  -1.469  -5.769 +0.00 +0.00    +0.216 C  
DOCKED: ATOM      3  O8  UNL     1       5.552  -2.079  -4.792 +0.00 -0.00    -0.276 OA 
DOCKED: ATOM      4  N6  UNL     1       4.070  -0.584  -5.708 +0.00 -0.00    -0.304 N  
DOCKED: ATOM      5  H39 UNL     1       3.607  -0.376  -6.587 +0.00 +0.00    +0.149 HD 
DOCKED: BRANCH   4   6
DOCKED: ATOM      6  C23 UNL     1       3.183  -0.568  -4.541 +0.00 +0.00    +0.161 C  
DOCKED: BRANCH   6   7
DOCKED: ATOM      7  C24 UNL     1       2.588  -1.995  -4.468 +0.00 +0.00    +0.234 C  
DOCKED: ATOM      8  O9  UNL     1       1.549  -2.305  -5.054 +0.00 -0.00    -0.274 OA 
DOCKED: ATOM      9  N7  UNL     1       3.289  -2.872  -3.681 +0.00 -0.00    -0.303 N  
DOCKED: ATOM     10  H41 UNL     1       4.138  -2.576  -3.207 +0.00 +0.00    +0.149 HD 
DOCKED: BRANCH   9  11
DOCKED: ATOM     11  C25 UNL     1       2.892  -4.260  -3.488 +0.00 +0.00    +0.156 C  
DOCKED: ATOM     12  C26 UNL     1       1.463  -4.348  -2.968 +0.00 +0.00    +0.038 C  
DOCKED: BRANCH  11  13
DOCKED: ATOM     13  C27 UNL     1       3.034  -4.972  -4.850 +0.00 +0.00    +0.234 C  
DOCKED: ATOM     14  O10 UNL     1       4.115  -5.416  -5.246 +0.00 -0.00    -0.274 OA 
DOCKED: ATOM     15  N8  UNL     1       1.863  -5.093  -5.573 +0.00 -0.00    -0.302 N  
DOCKED: ATOM     16  H46 UNL     1       1.109  -4.457  -5.337 +0.00 +0.00    +0.150 HD 
DOCKED: BRANCH  15  17
DOCKED: ATOM     17  C28 UNL     1       1.897  -5.514  -6.970 +0.00 +0.00    +0.159 C  
DOCKED: BRANCH  17  18
DOCKED: ATOM     18  C32 UNL     1       2.556  -4.392  -7.803 +0.00 +0.00    +0.234 C  
DOCKED: ATOM     19  O13 UNL     1       3.584  -4.582  -8.451 +0.00 -0.00    -0.274 OA 
DOCKED: ATOM     20  N9  UNL     1       1.934  -3.171  -7.707 +0.00 -0.00    -0.301 N  
DOCKED: ATOM     21  H53 UNL     1       1.189  -3.052  -7.033 +0.00 +0.00    +0.150 HD 
DOCKED: BRANCH  20  22
DOCKED: ATOM     22  C33 UNL     1       2.579  -1.941  -8.186 +0.00 +0.00    +0.186 C  
DOCKED: BRANCH  22  23
DOCKED: ATOM     23  C41 UNL     1       1.639  -0.803  -7.807 +0.00 +0.00    +0.326 C  
DOCKED: ATOM     24  O14 UNL     1       1.950   0.377  -7.742 +0.00 -0.00    -0.249 OA 
DOCKED: BRANCH  23  25
DOCKED: ATOM     25  O15 UNL     1       0.394  -1.211  -7.494 +0.00 -0.00    -0.479 OA 
DOCKED: ATOM     26  H62 UNL     1       0.538  -1.906  -6.819 +0.00 +0.00    +0.295 HD 
DOCKED: ENDBRANCH  23  25
DOCKED: ENDBRANCH  22  23
DOCKED: BRANCH  22  27
DOCKED: ATOM     27  C34 UNL     1       2.757  -1.932  -9.709 +0.00 +0.00    +0.069 C  
DOCKED: BRANCH  27  28
DOCKED: ATOM     28  C35 UNL     1       4.200  -1.840 -10.146 +0.00 -0.00    -0.045 A  
DOCKED: ATOM     29  C36 UNL     1       4.854  -0.601 -10.192 +0.00 +0.00    +0.004 A  
DOCKED: ATOM     30  C37 UNL     1       6.190  -0.521 -10.595 +0.00 +0.00    +0.000 A  
DOCKED: ATOM     31  C38 UNL     1       6.881  -1.675 -10.958 +0.00 +0.00    +0.000 A  
DOCKED: ATOM     32  C39 UNL     1       6.241  -2.912 -10.915 +0.00 +0.00    +0.000 A  
DOCKED: ATOM     33  C40 UNL     1       4.906  -2.995 -10.513 +0.00 +0.00    +0.004 A  
DOCKED: ENDBRANCH  27  28
DOCKED: ENDBRANCH  22  27
DOCKED: ENDBRANCH  20  22
DOCKED: ENDBRANCH  17  18
DOCKED: BRANCH  17  34
DOCKED: ATOM     34  C29 UNL     1       0.503  -5.895  -7.502 +0.00 +0.00    +0.043 C  
DOCKED: BRANCH  34  35
DOCKED: ATOM     35  C30 UNL     1      -0.693  -5.335  -6.730 +0.00 +0.00    +0.123 C  
DOCKED: BRANCH  35  36
DOCKED: ATOM     36  C31 UNL     1      -0.776  -3.839  -6.816 +0.00 +0.00    +0.305 C  
DOCKED: ATOM     37  O11 UNL     1      -0.901  -3.187  -7.838 +0.00 -0.00    -0.251 OA 
DOCKED: BRANCH  36  38
DOCKED: ATOM     38  O12 UNL     1      -0.630  -3.253  -5.615 +0.00 -0.00    -0.481 OA 
DOCKED: ATOM     39  H52 UNL     1      -0.471  -2.308  -5.822 +0.00 +0.00    +0.295 HD 
DOCKED: ENDBRANCH  36  38
DOCKED: ENDBRANCH  35  36
DOCKED: ENDBRANCH  34  35
DOCKED: ENDBRANCH  17  34
DOCKED: ENDBRANCH  15  17
DOCKED: ENDBRANCH  11  13
DOCKED: ENDBRANCH   9  11
DOCKED: ENDBRANCH   6   7
DOCKED: BRANCH   6  40
DOCKED: ATOM     40  C42 UNL     1       2.092   0.514  -4.707 +0.00 +0.00    +0.012 C  
DOCKED: ATOM     41  C43 UNL     1       2.704   1.917  -4.595 +0.00 +0.00    +0.009 C  
DOCKED: ATOM     42  C44 UNL     1       0.956   0.376  -3.694 +0.00 +0.00    +0.009 C  
DOCKED: ENDBRANCH   6  40
DOCKED: ENDBRANCH   4   6
DOCKED: ENDBRANCH   1   2
DOCKED: BRANCH   1  43
DOCKED: ATOM     43  C20 UNL     1       6.385  -2.950  -7.338 +0.00 +0.00    +0.143 C  
DOCKED: BRANCH  43  44
DOCKED: ATOM     44  O7  UNL     1       5.515  -3.962  -6.834 +0.00 -0.00    -0.389 OA 
DOCKED: ATOM     45  H36 UNL     1       5.677  -3.997  -5.868 +0.00 +0.00    +0.210 HD 
DOCKED: ENDBRANCH  43  44
DOCKED: BRANCH  43  46
DOCKED: ATOM     46  C5  UNL     1       7.794  -3.069  -6.686 +0.00 +0.00    +0.102 C  
DOCKED: BRANCH  46  47
DOCKED: ATOM     47  N1  UNL     1       8.160  -4.477  -6.396 +0.00 -0.00    -0.308 N  
DOCKED: ATOM     48  C6  UNL     1       8.724  -5.355  -7.295 +0.00 +0.00    +0.234 C  
DOCKED: ATOM     49  O1  UNL     1       9.157  -5.009  -8.389 +0.00 -0.00    -0.274 OA 
DOCKED: ATOM     50  H11 UNL     1       7.779  -4.871  -5.533 +0.00 +0.00    +0.149 HD 
DOCKED: BRANCH  48  51
DOCKED: ATOM     51  C7  UNL     1       8.782  -6.838  -6.828 +0.00 +0.00    +0.168 C  
DOCKED: BRANCH  51  52
DOCKED: ATOM     52  N3  UNL     1       9.047  -6.843  -5.385 +0.00 -0.00    -0.302 N  
DOCKED: ATOM     53  C10 UNL     1      10.198  -6.289  -4.866 +0.00 +0.00    +0.234 C  
DOCKED: ATOM     54  O3  UNL     1      11.137  -5.925  -5.579 +0.00 -0.00    -0.274 OA 
DOCKED: ATOM     55  H17 UNL     1       8.224  -6.836  -4.792 +0.00 +0.00    +0.150 HD 
DOCKED: BRANCH  53  56
DOCKED: ATOM     56  C11 UNL     1      10.242  -6.174  -3.320 +0.00 +0.00    +0.161 C  
DOCKED: BRANCH  56  57
DOCKED: ATOM     57  N4  UNL     1       8.926  -5.705  -2.868 +0.00 -0.00    -0.302 N  
DOCKED: ATOM     58  C12 UNL     1       8.394  -4.528  -3.346 +0.00 +0.00    +0.230 C  
DOCKED: ATOM     59  O4  UNL     1       9.010  -3.753  -4.083 +0.00 -0.00    -0.274 OA 
DOCKED: ATOM     60  H19 UNL     1       8.273  -6.433  -2.591 +0.00 +0.00    +0.150 HD 
DOCKED: BRANCH  58  61
DOCKED: ATOM     61  C13 UNL     1       6.971  -4.199  -2.830 +0.00 +0.00    +0.138 C  
DOCKED: BRANCH  61  62
DOCKED: ATOM     62  N5  UNL     1       6.008  -4.471  -3.924 +0.00 -0.00    -0.320 NA 
DOCKED: ATOM     63  H21 UNL     1       6.046  -5.478  -4.112 +0.00 +0.00    +0.119 HD 
DOCKED: ATOM     64  H22 UNL     1       6.374  -4.050  -4.781 +0.00 +0.00    +0.119 HD 
DOCKED: ENDBRANCH  61  62
DOCKED: BRANCH  61  65
DOCKED: ATOM     65  C14 UNL     1       6.584  -5.057  -1.618 +0.00 +0.00    +0.039 C  
DOCKED: BRANCH  65  66
DOCKED: ATOM     66  C15 UNL     1       5.564  -6.154  -1.916 +0.00 +0.00    +0.122 C  
DOCKED: BRANCH  66  67
DOCKED: ATOM     67  C16 UNL     1       6.021  -7.112  -2.979 +0.00 +0.00    +0.305 C  
DOCKED: ATOM     68  O5  UNL     1       7.131  -7.618  -3.049 +0.00 -0.00    -0.251 OA 
DOCKED: BRANCH  67  69
DOCKED: ATOM     69  O6  UNL     1       5.079  -7.384  -3.903 +0.00 -0.00    -0.481 OA 
DOCKED: ATOM     70  H27 UNL     1       4.992  -6.561  -4.426 +0.00 +0.00    +0.295 HD 
DOCKED: ENDBRANCH  67  69
DOCKED: ENDBRANCH  66  67
DOCKED: ENDBRANCH  65  66
DOCKED: ENDBRANCH  61  65
DOCKED: ENDBRANCH  58  61
DOCKED: ENDBRANCH  56  57
DOCKED: BRANCH  56  71
DOCKED: ATOM     71  C17 UNL     1      10.607  -7.480  -2.580 +0.00 +0.00    +0.012 C  
DOCKED: ATOM     72  C18 UNL     1      10.385  -8.727  -3.441 +0.00 +0.00    +0.009 C  
DOCKED: ATOM     73  C19 UNL     1       9.905  -7.639  -1.230 +0.00 +0.00    +0.009 C  
DOCKED: ENDBRANCH  56  71
DOCKED: ENDBRANCH  53  56
DOCKED: ENDBRANCH  51  52
DOCKED: BRANCH  51  74
DOCKED: ATOM     74  C8  UNL     1       7.481  -7.585  -7.109 +0.00 +0.00    +0.127 C  
DOCKED: BRANCH  74  75
DOCKED: ATOM     75  C9  UNL     1       6.337  -6.711  -6.669 +0.00 +0.00    +0.213 C  
DOCKED: ATOM     76  N2  UNL     1       5.312  -6.564  -7.554 +0.00 -0.00    -0.329 N  
DOCKED: ATOM     77  O2  UNL     1       6.355  -6.093  -5.609 +0.00 -0.00    -0.276 OA 
DOCKED: ATOM     78  H15 UNL     1       4.578  -5.907  -7.314 +0.00 +0.00    +0.145 HD 
DOCKED: ATOM     79  H16 UNL     1       5.348  -6.907  -8.506 +0.00 +0.00    +0.145 HD 
DOCKED: ENDBRANCH  74  75
DOCKED: ENDBRANCH  51  74
DOCKED: ENDBRANCH  48  51
DOCKED: ENDBRANCH  46  47
DOCKED: BRANCH  46  80
DOCKED: ATOM     80  C4  UNL     1       8.967  -2.452  -7.497 +0.00 +0.00    +0.028 C  
DOCKED: BRANCH  80  82
DOCKED: ATOM     81  C1  UNL     1      11.298  -2.917  -6.499 +0.00 +0.00    +0.007 C  
DOCKED: ATOM     82  C2  UNL     1      10.215  -1.882  -6.787 +0.00 -0.00    -0.015 C  
DOCKED: ATOM     83  C3  UNL     1       9.894  -1.037  -5.556 +0.00 +0.00    +0.007 C  
DOCKED: ENDBRANCH  80  82
DOCKED: ENDBRANCH  46  80
DOCKED: ENDBRANCH  43  46
DOCKED: ENDBRANCH   1  43
DOCKED: TORSDOF 36
DOCKED: TER
DOCKED: ENDMDL
________________________________________________________________________________


    FINAL DOCKED STATE:
    ________________________


Run:   15 / 20
Time taken for this run:   7.478s

DOCKED: MODEL        15
DOCKED: USER    Run = 15
DOCKED: USER
DOCKED: USER    Estimated Free Energy of Binding    = +10.74 kcal/mol  [=(1)+(2)+(3)-(4)]
DOCKED: USER
DOCKED: USER    (1) Final Intermolecular Energy     =  +0.00 kcal/mol
DOCKED: USER        vdW + Hbond + desolv Energy     =  +0.00 kcal/mol
DOCKED: USER        Electrostatic Energy            =  +0.00 kcal/mol
DOCKED: USER        Moving Ligand-Fixed Receptor    =  +0.00 kcal/mol
DOCKED: USER        Moving Ligand-Moving Receptor   =  +0.00 kcal/mol
DOCKED: USER    (2) Final Total Internal Energy     = -32.32 kcal/mol
DOCKED: USER    (3) Torsional Free Energy           = +10.74 kcal/mol
DOCKED: USER    (4) Unbound System's Energy         = -32.32 kcal/mol
DOCKED: USER
DOCKED: USER
DOCKED: REMARK  Name = ligands/ligand_10.pdb
DOCKED: REMARK  43 active torsions:
DOCKED: REMARK  status: ('A' for Active; 'I' for Inactive)
DOCKED: REMARK    1  A    between atoms: C1_1  and  C2_2
DOCKED: REMARK    2  A    between atoms: C2_2  and  C3_3
DOCKED: REMARK    3  A    between atoms: C2_2  and  C4_4
DOCKED: REMARK    4  A    between atoms: C4_4  and  C5_5
DOCKED: REMARK    5  A    between atoms: C5_5  and  N1_6
DOCKED: REMARK    6  A    between atoms: C5_5  and  C20_31
DOCKED: REMARK    7  A    between atoms: C6_7  and  C7_9
DOCKED: REMARK    8  A    between atoms: C7_9  and  C8_10
DOCKED: REMARK    9  A    between atoms: C7_9  and  N3_14
DOCKED: REMARK   10  A    between atoms: C8_10  and  C9_11
DOCKED: REMARK   11  A    between atoms: C10_15  and  C11_17
DOCKED: REMARK   12  A    between atoms: C11_17  and  N4_18
DOCKED: REMARK   13  A    between atoms: C11_17  and  C17_28
DOCKED: REMARK   14  A    between atoms: C12_19  and  C13_21
DOCKED: REMARK   15  A    between atoms: C13_21  and  N5_22
DOCKED: REMARK   16  A    between atoms: C13_21  and  C14_23
DOCKED: REMARK   17  A    between atoms: C14_23  and  C15_24
DOCKED: REMARK   18  A    between atoms: C15_24  and  C16_25
DOCKED: REMARK   19  A    between atoms: C16_25  and  O6_27
DOCKED: REMARK   20  A    between atoms: C17_28  and  C18_29
DOCKED: REMARK   21  A    between atoms: C17_28  and  C19_30
DOCKED: REMARK   22  A    between atoms: C20_31  and  O7_32
DOCKED: REMARK   23  A    between atoms: C20_31  and  C21_33
DOCKED: REMARK   24  A    between atoms: C21_33  and  C22_34
DOCKED: REMARK   25  A    between atoms: N6_36  and  C23_37
DOCKED: REMARK   26  A    between atoms: C23_37  and  C24_38
DOCKED: REMARK   27  A    between atoms: C23_37  and  C42_66
DOCKED: REMARK   28  A    between atoms: N7_40  and  C25_41
DOCKED: REMARK   29  A    between atoms: C25_41  and  C26_42
DOCKED: REMARK   30  A    between atoms: C25_41  and  C27_43
DOCKED: REMARK   31  A    between atoms: N8_45  and  C28_46
DOCKED: REMARK   32  A    between atoms: C28_46  and  C29_47
DOCKED: REMARK   33  A    between atoms: C28_46  and  C32_52
DOCKED: REMARK   34  A    between atoms: C29_47  and  C30_48
DOCKED: REMARK   35  A    between atoms: C30_48  and  C31_49
DOCKED: REMARK   36  A    between atoms: C31_49  and  O12_51
DOCKED: REMARK   37  A    between atoms: N9_54  and  C33_55
DOCKED: REMARK   38  A    between atoms: C33_55  and  C34_56
DOCKED: REMARK   39  A    between atoms: C33_55  and  C41_63
DOCKED: REMARK   40  A    between atoms: C34_56  and  C35_57
DOCKED: REMARK   41  A    between atoms: C41_63  and  O15_65
DOCKED: REMARK   42  A    between atoms: C42_66  and  C43_67
DOCKED: REMARK   43  A    between atoms: C42_66  and  C44_68
DOCKED: REMARK                            x       y       z     vdW  Elec       q    Type
DOCKED: REMARK                         _______ _______ _______ _____ _____    ______ ____
DOCKED: USER                              x       y       z     vdW  Elec       q    Type
DOCKED: USER                           _______ _______ _______ _____ _____    ______ ____
DOCKED: ROOT
DOCKED: ATOM      1  C21 UNL     1       7.122  -0.556  -2.182 +0.00 +0.00    +0.129 C  
DOCKED: ENDROOT
DOCKED: BRANCH   1   2
DOCKED: ATOM      2  C22 UNL     1       6.326  -1.543  -1.350 +0.00 +0.00    +0.216 C  
DOCKED: ATOM      3  O8  UNL     1       5.257  -2.021  -1.721 +0.00 -0.00    -0.276 OA 
DOCKED: ATOM      4  N6  UNL     1       6.944  -1.892  -0.170 +0.00 -0.00    -0.304 N  
DOCKED: ATOM      5  H39 UNL     1       7.637  -1.239   0.184 +0.00 +0.00    +0.149 HD 
DOCKED: BRANCH   4   6
DOCKED: ATOM      6  C23 UNL     1       6.201  -2.605   0.872 +0.00 +0.00    +0.161 C  
DOCKED: BRANCH   6   7
DOCKED: ATOM      7  C24 UNL     1       7.102  -2.536   2.128 +0.00 +0.00    +0.234 C  
DOCKED: ATOM      8  O9  UNL     1       8.105  -1.822   2.179 +0.00 -0.00    -0.274 OA 
DOCKED: ATOM      9  N7  UNL     1       6.715  -3.351   3.161 +0.00 -0.00    -0.303 N  
DOCKED: ATOM     10  H41 UNL     1       5.885  -3.931   3.077 +0.00 +0.00    +0.149 HD 
DOCKED: BRANCH   9  11
DOCKED: ATOM     11  C25 UNL     1       7.431  -3.424   4.428 +0.00 +0.00    +0.156 C  
DOCKED: ATOM     12  C26 UNL     1       8.875  -3.856   4.209 +0.00 +0.00    +0.038 C  
DOCKED: BRANCH  11  13
DOCKED: ATOM     13  C27 UNL     1       7.358  -2.027   5.078 +0.00 +0.00    +0.234 C  
DOCKED: ATOM     14  O10 UNL     1       6.377  -1.659   5.729 +0.00 -0.00    -0.274 OA 
DOCKED: ATOM     15  N8  UNL     1       8.478  -1.238   4.897 +0.00 -0.00    -0.302 N  
DOCKED: ATOM     16  H46 UNL     1       9.089  -1.477   4.123 +0.00 +0.00    +0.150 HD 
DOCKED: BRANCH  15  17
DOCKED: ATOM     17  C28 UNL     1       8.446   0.180   5.239 +0.00 +0.00    +0.159 C  
DOCKED: BRANCH  17  18
DOCKED: ATOM     18  C32 UNL     1       7.715   0.939   4.109 +0.00 +0.00    +0.234 C  
DOCKED: ATOM     19  O13 UNL     1       6.708   1.612   4.323 +0.00 -0.00    -0.274 OA 
DOCKED: ATOM     20  N9  UNL     1       8.249   0.750   2.857 +0.00 -0.00    -0.301 N  
DOCKED: ATOM     21  H53 UNL     1       8.979   0.059   2.736 +0.00 +0.00    +0.150 HD 
DOCKED: BRANCH  20  22
DOCKED: ATOM     22  C33 UNL     1       7.522   1.147   1.645 +0.00 +0.00    +0.186 C  
DOCKED: BRANCH  22  23
DOCKED: ATOM     23  C41 UNL     1       8.444   0.813   0.478 +0.00 +0.00    +0.326 C  
DOCKED: ATOM     24  O14 UNL     1       8.350   1.272  -0.650 +0.00 -0.00    -0.249 OA 
DOCKED: BRANCH  23  25
DOCKED: ATOM     25  O15 UNL     1       9.389  -0.099   0.779 +0.00 -0.00    -0.479 OA 
DOCKED: ATOM     26  H62 UNL     1       8.889  -0.938   0.857 +0.00 +0.00    +0.295 HD 
DOCKED: ENDBRANCH  23  25
DOCKED: ENDBRANCH  22  23
DOCKED: BRANCH  22  27
DOCKED: ATOM     27  C34 UNL     1       7.227   2.652   1.609 +0.00 +0.00    +0.069 C  
DOCKED: BRANCH  27  28
DOCKED: ATOM     28  C35 UNL     1       8.466   3.505   1.479 +0.00 -0.00    -0.045 A  
DOCKED: ATOM     29  C36 UNL     1       9.426   3.531   2.500 +0.00 +0.00    +0.004 A  
DOCKED: ATOM     30  C37 UNL     1      10.571   4.320   2.374 +0.00 +0.00    +0.000 A  
DOCKED: ATOM     31  C38 UNL     1      10.767   5.092   1.231 +0.00 +0.00    +0.000 A  
DOCKED: ATOM     32  C39 UNL     1       9.820   5.074   0.209 +0.00 +0.00    +0.000 A  
DOCKED: ATOM     33  C40 UNL     1       8.674   4.286   0.332 +0.00 +0.00    +0.004 A  
DOCKED: ENDBRANCH  27  28
DOCKED: ENDBRANCH  22  27
DOCKED: ENDBRANCH  20  22
DOCKED: ENDBRANCH  17  18
DOCKED: BRANCH  17  34
DOCKED: ATOM     34  C29 UNL     1       9.850   0.750   5.513 +0.00 +0.00    +0.043 C  
DOCKED: BRANCH  34  35
DOCKED: ATOM     35  C30 UNL     1      11.017   0.034   4.830 +0.00 +0.00    +0.123 C  
DOCKED: BRANCH  35  36
DOCKED: ATOM     36  C31 UNL     1      10.888   0.037   3.335 +0.00 +0.00    +0.305 C  
DOCKED: ATOM     37  O11 UNL     1      11.041   1.000   2.605 +0.00 -0.00    -0.251 OA 
DOCKED: BRANCH  36  38
DOCKED: ATOM     38  O12 UNL     1      10.509  -1.162   2.857 +0.00 -0.00    -0.481 OA 
DOCKED: ATOM     39  H52 UNL     1      10.031  -0.954   2.027 +0.00 +0.00    +0.295 HD 
DOCKED: ENDBRANCH  36  38
DOCKED: ENDBRANCH  35  36
DOCKED: ENDBRANCH  34  35
DOCKED: ENDBRANCH  17  34
DOCKED: ENDBRANCH  15  17
DOCKED: ENDBRANCH  11  13
DOCKED: ENDBRANCH   9  11
DOCKED: ENDBRANCH   6   7
DOCKED: BRANCH   6  40
DOCKED: ATOM     40  C42 UNL     1       5.916  -4.060   0.434 +0.00 +0.00    +0.012 C  
DOCKED: ATOM     41  C43 UNL     1       6.945  -4.519  -0.608 +0.00 +0.00    +0.009 C  
DOCKED: ATOM     42  C44 UNL     1       4.508  -4.248  -0.129 +0.00 +0.00    +0.009 C  
DOCKED: ENDBRANCH   6  40
DOCKED: ENDBRANCH   4   6
DOCKED: ENDBRANCH   1   2
DOCKED: BRANCH   1  43
DOCKED: ATOM     43  C20 UNL     1       8.529  -1.094  -2.441 +0.00 +0.00    +0.143 C  
DOCKED: BRANCH  43  44
DOCKED: ATOM     44  O7  UNL     1       9.105  -1.555  -1.220 +0.00 -0.00    -0.389 OA 
DOCKED: ATOM     45  H36 UNL     1       9.430  -0.754  -0.759 +0.00 +0.00    +0.210 HD 
DOCKED: ENDBRANCH  43  44
DOCKED: BRANCH  43  46
DOCKED: ATOM     46  C5  UNL     1       9.466  -0.057  -3.127 +0.00 +0.00    +0.102 C  
DOCKED: BRANCH  46  47
DOCKED: ATOM     47  N1  UNL     1      10.206   0.768  -2.141 +0.00 -0.00    -0.308 N  
DOCKED: ATOM     48  C6  UNL     1      11.058   1.806  -2.450 +0.00 +0.00    +0.234 C  
DOCKED: ATOM     49  O1  UNL     1      11.156   2.282  -3.576 +0.00 -0.00    -0.274 OA 
DOCKED: ATOM     50  H11 UNL     1      10.236   0.406  -1.186 +0.00 +0.00    +0.149 HD 
DOCKED: BRANCH  48  51
DOCKED: ATOM     51  C7  UNL     1      11.902   2.348  -1.261 +0.00 +0.00    +0.168 C  
DOCKED: BRANCH  51  52
DOCKED: ATOM     52  N3  UNL     1      12.489   1.197  -0.567 +0.00 -0.00    -0.302 N  
DOCKED: ATOM     53  C10 UNL     1      13.089   1.334   0.667 +0.00 +0.00    +0.234 C  
DOCKED: ATOM     54  O3  UNL     1      13.324   2.437   1.170 +0.00 -0.00    -0.274 OA 
DOCKED: ATOM     55  H17 UNL     1      12.063   0.300  -0.775 +0.00 +0.00    +0.150 HD 
DOCKED: BRANCH  53  56
DOCKED: ATOM     56  C11 UNL     1      13.469   0.007   1.373 +0.00 +0.00    +0.161 C  
DOCKED: BRANCH  56  57
DOCKED: ATOM     57  N4  UNL     1      12.437  -0.985   1.048 +0.00 -0.00    -0.302 N  
DOCKED: ATOM     58  C12 UNL     1      12.570  -2.298   1.441 +0.00 +0.00    +0.230 C  
DOCKED: ATOM     59  O4  UNL     1      13.584  -2.745   1.985 +0.00 -0.00    -0.274 OA 
DOCKED: ATOM     60  H19 UNL     1      11.493  -0.620   0.954 +0.00 +0.00    +0.150 HD 
DOCKED: BRANCH  58  61
DOCKED: ATOM     61  C13 UNL     1      11.371  -3.211   1.085 +0.00 +0.00    +0.138 C  
DOCKED: BRANCH  61  62
DOCKED: ATOM     62  N5  UNL     1      10.219  -2.345   0.737 +0.00 -0.00    -0.320 NA 
DOCKED: ATOM     63  H21 UNL     1      10.584  -1.395   0.616 +0.00 +0.00    +0.119 HD 
DOCKED: ATOM     64  H22 UNL     1       9.617  -2.272   1.560 +0.00 +0.00    +0.119 HD 
DOCKED: ENDBRANCH  61  62
DOCKED: BRANCH  61  65
DOCKED: ATOM     65  C14 UNL     1      11.674  -4.121  -0.113 +0.00 +0.00    +0.039 C  
DOCKED: BRANCH  65  66
DOCKED: ATOM     66  C15 UNL     1      11.282  -3.537  -1.469 +0.00 +0.00    +0.122 C  
DOCKED: BRANCH  66  67
DOCKED: ATOM     67  C16 UNL     1      12.009  -2.264  -1.796 +0.00 +0.00    +0.305 C  
DOCKED: ATOM     68  O5  UNL     1      12.989  -2.173  -2.521 +0.00 -0.00    -0.251 OA 
DOCKED: BRANCH  67  69
DOCKED: ATOM     69  O6  UNL     1      11.488  -1.175  -1.200 +0.00 -0.00    -0.481 OA 
DOCKED: ATOM     70  H27 UNL     1      10.678  -1.494  -0.752 +0.00 +0.00    +0.295 HD 
DOCKED: ENDBRANCH  67  69
DOCKED: ENDBRANCH  66  67
DOCKED: ENDBRANCH  65  66
DOCKED: ENDBRANCH  61  65
DOCKED: ENDBRANCH  58  61
DOCKED: ENDBRANCH  56  57
DOCKED: BRANCH  56  71
DOCKED: ATOM     71  C17 UNL     1      14.860  -0.554   1.000 +0.00 +0.00    +0.012 C  
DOCKED: ATOM     72  C18 UNL     1      16.006   0.287   1.569 +0.00 +0.00    +0.009 C  
DOCKED: ATOM     73  C19 UNL     1      15.056  -0.766  -0.502 +0.00 +0.00    +0.009 C  
DOCKED: ENDBRANCH  56  71
DOCKED: ENDBRANCH  53  56
DOCKED: ENDBRANCH  51  52
DOCKED: BRANCH  51  74
DOCKED: ATOM     74  C8  UNL     1      13.015   3.287  -1.720 +0.00 +0.00    +0.127 C  
DOCKED: BRANCH  74  75
DOCKED: ATOM     75  C9  UNL     1      12.465   4.687  -1.742 +0.00 +0.00    +0.213 C  
DOCKED: ATOM     76  N2  UNL     1      11.553   4.965  -2.716 +0.00 -0.00    -0.329 N  
DOCKED: ATOM     77  O2  UNL     1      12.869   5.562  -0.982 +0.00 -0.00    -0.276 OA 
DOCKED: ATOM     78  H15 UNL     1      11.243   5.926  -2.804 +0.00 +0.00    +0.145 HD 
DOCKED: ATOM     79  H16 UNL     1      11.336   4.326  -3.471 +0.00 +0.00    +0.145 HD 
DOCKED: ENDBRANCH  74  75
DOCKED: ENDBRANCH  51  74
DOCKED: ENDBRANCH  48  51
DOCKED: ENDBRANCH  46  47
DOCKED: BRANCH  46  80
DOCKED: ATOM     80  C4  UNL     1      10.519  -0.645  -4.109 +0.00 +0.00    +0.028 C  
DOCKED: BRANCH  80  82
DOCKED: ATOM     81  C1  UNL     1      12.050   0.395  -5.903 +0.00 +0.00    +0.007 C  
DOCKED: ATOM     82  C2  UNL     1      10.653  -0.106  -5.549 +0.00 -0.00    -0.015 C  
DOCKED: ATOM     83  C3  UNL     1       9.573   0.903  -5.936 +0.00 +0.00    +0.007 C  
DOCKED: ENDBRANCH  80  82
DOCKED: ENDBRANCH  46  80
DOCKED: ENDBRANCH  43  46
DOCKED: ENDBRANCH   1  43
DOCKED: TORSDOF 36
DOCKED: TER
DOCKED: ENDMDL
________________________________________________________________________________


    FINAL DOCKED STATE:
    ________________________


Run:   16 / 20
Time taken for this run:   7.478s

DOCKED: MODEL        16
DOCKED: USER    Run = 16
DOCKED: USER
DOCKED: USER    Estimated Free Energy of Binding    = +10.74 kcal/mol  [=(1)+(2)+(3)-(4)]
DOCKED: USER
DOCKED: USER    (1) Final Intermolecular Energy     =  +0.00 kcal/mol
DOCKED: USER        vdW + Hbond + desolv Energy     =  +0.00 kcal/mol
DOCKED: USER        Electrostatic Energy            =  +0.00 kcal/mol
DOCKED: USER        Moving Ligand-Fixed Receptor    =  +0.00 kcal/mol
DOCKED: USER        Moving Ligand-Moving Receptor   =  +0.00 kcal/mol
DOCKED: USER    (2) Final Total Internal Energy     = -32.69 kcal/mol
DOCKED: USER    (3) Torsional Free Energy           = +10.74 kcal/mol
DOCKED: USER    (4) Unbound System's Energy         = -32.69 kcal/mol
DOCKED: USER
DOCKED: USER
DOCKED: REMARK  Name = ligands/ligand_10.pdb
DOCKED: REMARK  43 active torsions:
DOCKED: REMARK  status: ('A' for Active; 'I' for Inactive)
DOCKED: REMARK    1  A    between atoms: C1_1  and  C2_2
DOCKED: REMARK    2  A    between atoms: C2_2  and  C3_3
DOCKED: REMARK    3  A    between atoms: C2_2  and  C4_4
DOCKED: REMARK    4  A    between atoms: C4_4  and  C5_5
DOCKED: REMARK    5  A    between atoms: C5_5  and  N1_6
DOCKED: REMARK    6  A    between atoms: C5_5  and  C20_31
DOCKED: REMARK    7  A    between atoms: C6_7  and  C7_9
DOCKED: REMARK    8  A    between atoms: C7_9  and  C8_10
DOCKED: REMARK    9  A    between atoms: C7_9  and  N3_14
DOCKED: REMARK   10  A    between atoms: C8_10  and  C9_11
DOCKED: REMARK   11  A    between atoms: C10_15  and  C11_17
DOCKED: REMARK   12  A    between atoms: C11_17  and  N4_18
DOCKED: REMARK   13  A    between atoms: C11_17  and  C17_28
DOCKED: REMARK   14  A    between atoms: C12_19  and  C13_21
DOCKED: REMARK   15  A    between atoms: C13_21  and  N5_22
DOCKED: REMARK   16  A    between atoms: C13_21  and  C14_23
DOCKED: REMARK   17  A    between atoms: C14_23  and  C15_24
DOCKED: REMARK   18  A    between atoms: C15_24  and  C16_25
DOCKED: REMARK   19  A    between atoms: C16_25  and  O6_27
DOCKED: REMARK   20  A    between atoms: C17_28  and  C18_29
DOCKED: REMARK   21  A    between atoms: C17_28  and  C19_30
DOCKED: REMARK   22  A    between atoms: C20_31  and  O7_32
DOCKED: REMARK   23  A    between atoms: C20_31  and  C21_33
DOCKED: REMARK   24  A    between atoms: C21_33  and  C22_34
DOCKED: REMARK   25  A    between atoms: N6_36  and  C23_37
DOCKED: REMARK   26  A    between atoms: C23_37  and  C24_38
DOCKED: REMARK   27  A    between atoms: C23_37  and  C42_66
DOCKED: REMARK   28  A    between atoms: N7_40  and  C25_41
DOCKED: REMARK   29  A    between atoms: C25_41  and  C26_42
DOCKED: REMARK   30  A    between atoms: C25_41  and  C27_43
DOCKED: REMARK   31  A    between atoms: N8_45  and  C28_46
DOCKED: REMARK   32  A    between atoms: C28_46  and  C29_47
DOCKED: REMARK   33  A    between atoms: C28_46  and  C32_52
DOCKED: REMARK   34  A    between atoms: C29_47  and  C30_48
DOCKED: REMARK   35  A    between atoms: C30_48  and  C31_49
DOCKED: REMARK   36  A    between atoms: C31_49  and  O12_51
DOCKED: REMARK   37  A    between atoms: N9_54  and  C33_55
DOCKED: REMARK   38  A    between atoms: C33_55  and  C34_56
DOCKED: REMARK   39  A    between atoms: C33_55  and  C41_63
DOCKED: REMARK   40  A    between atoms: C34_56  and  C35_57
DOCKED: REMARK   41  A    between atoms: C41_63  and  O15_65
DOCKED: REMARK   42  A    between atoms: C42_66  and  C43_67
DOCKED: REMARK   43  A    between atoms: C42_66  and  C44_68
DOCKED: REMARK                            x       y       z     vdW  Elec       q    Type
DOCKED: REMARK                         _______ _______ _______ _____ _____    ______ ____
DOCKED: USER                              x       y       z     vdW  Elec       q    Type
DOCKED: USER                           _______ _______ _______ _____ _____    ______ ____
DOCKED: ROOT
DOCKED: ATOM      1  C21 UNL     1       6.781  -6.224  -2.415 +0.00 +0.00    +0.129 C  
DOCKED: ENDROOT
DOCKED: BRANCH   1   2
DOCKED: ATOM      2  C22 UNL     1       6.180  -5.522  -1.213 +0.00 +0.00    +0.216 C  
DOCKED: ATOM      3  O8  UNL     1       5.149  -4.855  -1.273 +0.00 -0.00    -0.276 OA 
DOCKED: ATOM      4  N6  UNL     1       6.867  -5.750  -0.042 +0.00 -0.00    -0.304 N  
DOCKED: ATOM      5  H39 UNL     1       7.836  -6.038  -0.139 +0.00 +0.00    +0.149 HD 
DOCKED: BRANCH   4   6
DOCKED: ATOM      6  C23 UNL     1       6.597  -4.936   1.146 +0.00 +0.00    +0.161 C  
DOCKED: BRANCH   6   7
DOCKED: ATOM      7  C24 UNL     1       7.970  -4.771   1.841 +0.00 +0.00    +0.234 C  
DOCKED: ATOM      8  O9  UNL     1       9.005  -4.551   1.210 +0.00 -0.00    -0.274 OA 
DOCKED: ATOM      9  N7  UNL     1       7.947  -4.918   3.205 +0.00 -0.00    -0.303 N  
DOCKED: ATOM     10  H41 UNL     1       7.073  -5.106   3.689 +0.00 +0.00    +0.149 HD 
DOCKED: BRANCH   9  11
DOCKED: ATOM     11  C25 UNL     1       9.135  -4.795   4.038 +0.00 +0.00    +0.156 C  
DOCKED: ATOM     12  C26 UNL     1      10.187  -5.819   3.636 +0.00 +0.00    +0.038 C  
DOCKED: BRANCH  11  13
DOCKED: ATOM     13  C27 UNL     1       9.665  -3.355   3.873 +0.00 +0.00    +0.234 C  
DOCKED: ATOM     14  O10 UNL     1       9.222  -2.414   4.536 +0.00 -0.00    -0.274 OA 
DOCKED: ATOM     15  N8  UNL     1      10.683  -3.208   2.949 +0.00 -0.00    -0.302 N  
DOCKED: ATOM     16  H46 UNL     1      10.776  -3.936   2.249 +0.00 +0.00    +0.150 HD 
DOCKED: BRANCH  15  17
DOCKED: ATOM     17  C28 UNL     1      11.101  -1.880   2.514 +0.00 +0.00    +0.159 C  
DOCKED: BRANCH  17  18
DOCKED: ATOM     18  C32 UNL     1       9.870  -1.144   1.941 +0.00 +0.00    +0.234 C  
DOCKED: ATOM     19  O13 UNL     1       9.386  -0.158   2.495 +0.00 -0.00    -0.274 OA 
DOCKED: ATOM     20  N9  UNL     1       9.339  -1.715   0.810 +0.00 -0.00    -0.301 N  
DOCKED: ATOM     21  H53 UNL     1       9.692  -2.612   0.503 +0.00 +0.00    +0.150 HD 
DOCKED: BRANCH  20  22
DOCKED: ATOM     22  C33 UNL     1       8.015  -1.331   0.305 +0.00 +0.00    +0.186 C  
DOCKED: BRANCH  22  23
DOCKED: ATOM     23  C41 UNL     1       7.596  -2.440  -0.652 +0.00 +0.00    +0.326 C  
DOCKED: ATOM     24  O14 UNL     1       6.456  -2.644  -1.041 +0.00 -0.00    -0.249 OA 
DOCKED: BRANCH  23  25
DOCKED: ATOM     25  O15 UNL     1       8.610  -3.245  -1.025 +0.00 -0.00    -0.479 OA 
DOCKED: ATOM     26  H62 UNL     1       8.663  -3.905  -0.303 +0.00 +0.00    +0.295 HD 
DOCKED: ENDBRANCH  23  25
DOCKED: ENDBRANCH  22  23
DOCKED: BRANCH  22  27
DOCKED: ATOM     27  C34 UNL     1       8.049  -0.010  -0.474 +0.00 +0.00    +0.069 C  
DOCKED: BRANCH  27  28
DOCKED: ATOM     28  C35 UNL     1       9.160   0.059  -1.494 +0.00 -0.00    -0.045 A  
DOCKED: ATOM     29  C36 UNL     1       9.005  -0.524  -2.760 +0.00 +0.00    +0.004 A  
DOCKED: ATOM     30  C37 UNL     1      10.036  -0.456  -3.700 +0.00 +0.00    +0.000 A  
DOCKED: ATOM     31  C38 UNL     1      11.229   0.191  -3.385 +0.00 +0.00    +0.000 A  
DOCKED: ATOM     32  C39 UNL     1      11.394   0.774  -2.131 +0.00 +0.00    +0.000 A  
DOCKED: ATOM     33  C40 UNL     1      10.366   0.707  -1.188 +0.00 +0.00    +0.004 A  
DOCKED: ENDBRANCH  27  28
DOCKED: ENDBRANCH  22  27
DOCKED: ENDBRANCH  20  22
DOCKED: ENDBRANCH  17  18
DOCKED: BRANCH  17  34
DOCKED: ATOM     34  C29 UNL     1      12.270  -1.931   1.513 +0.00 +0.00    +0.043 C  
DOCKED: BRANCH  34  35
DOCKED: ATOM     35  C30 UNL     1      12.373  -3.193   0.655 +0.00 +0.00    +0.123 C  
DOCKED: BRANCH  35  36
DOCKED: ATOM     36  C31 UNL     1      11.406  -3.181  -0.492 +0.00 +0.00    +0.305 C  
DOCKED: ATOM     37  O11 UNL     1      11.102  -2.210  -1.162 +0.00 -0.00    -0.251 OA 
DOCKED: BRANCH  36  38
DOCKED: ATOM     38  O12 UNL     1      10.830  -4.382  -0.682 +0.00 -0.00    -0.481 OA 
DOCKED: ATOM     39  H52 UNL     1      10.091  -4.403  -0.039 +0.00 +0.00    +0.295 HD 
DOCKED: ENDBRANCH  36  38
DOCKED: ENDBRANCH  35  36
DOCKED: ENDBRANCH  34  35
DOCKED: ENDBRANCH  17  34
DOCKED: ENDBRANCH  15  17
DOCKED: ENDBRANCH  11  13
DOCKED: ENDBRANCH   9  11
DOCKED: ENDBRANCH   6   7
DOCKED: BRANCH   6  40
DOCKED: ATOM     40  C42 UNL     1       5.560  -5.633   2.055 +0.00 +0.00    +0.012 C  
DOCKED: ATOM     41  C43 UNL     1       5.654  -7.159   1.908 +0.00 +0.00    +0.009 C  
DOCKED: ATOM     42  C44 UNL     1       4.126  -5.186   1.776 +0.00 +0.00    +0.009 C  
DOCKED: ENDBRANCH   6  40
DOCKED: ENDBRANCH   4   6
DOCKED: ENDBRANCH   1   2
DOCKED: BRANCH   1  43
DOCKED: ATOM     43  C20 UNL     1       8.236  -5.798  -2.605 +0.00 +0.00    +0.143 C  
DOCKED: BRANCH  43  44
DOCKED: ATOM     44  O7  UNL     1       8.901  -5.763  -1.343 +0.00 -0.00    -0.389 OA 
DOCKED: ATOM     45  H36 UNL     1       9.656  -5.149  -1.456 +0.00 +0.00    +0.210 HD 
DOCKED: ENDBRANCH  43  44
DOCKED: BRANCH  43  46
DOCKED: ATOM     46  C5  UNL     1       8.387  -4.433  -3.337 +0.00 +0.00    +0.102 C  
DOCKED: BRANCH  46  47
DOCKED: ATOM     47  N1  UNL     1       9.797  -3.976  -3.388 +0.00 -0.00    -0.308 N  
DOCKED: ATOM     48  C6  UNL     1      10.734  -4.384  -4.311 +0.00 +0.00    +0.234 C  
DOCKED: ATOM     49  O1  UNL     1      10.452  -5.036  -5.311 +0.00 -0.00    -0.274 OA 
DOCKED: ATOM     50  H11 UNL     1      10.138  -3.483  -2.560 +0.00 +0.00    +0.149 HD 
DOCKED: BRANCH  48  51
DOCKED: ATOM     51  C7  UNL     1      12.198  -3.958  -4.004 +0.00 +0.00    +0.168 C  
DOCKED: BRANCH  51  52
DOCKED: ATOM     52  N3  UNL     1      12.657  -4.736  -2.847 +0.00 -0.00    -0.302 N  
DOCKED: ATOM     53  C10 UNL     1      13.879  -4.490  -2.258 +0.00 +0.00    +0.234 C  
DOCKED: ATOM     54  O3  UNL     1      14.720  -3.743  -2.766 +0.00 -0.00    -0.274 OA 
DOCKED: ATOM     55  H17 UNL     1      11.923  -5.101  -2.250 +0.00 +0.00    +0.150 HD 
DOCKED: BRANCH  53  56
DOCKED: ATOM     56  C11 UNL     1      14.136  -5.235  -0.923 +0.00 +0.00    +0.161 C  
DOCKED: BRANCH  56  57
DOCKED: ATOM     57  N4  UNL     1      12.935  -6.021  -0.611 +0.00 -0.00    -0.302 N  
DOCKED: ATOM     58  C12 UNL     1      12.871  -6.789   0.531 +0.00 +0.00    +0.230 C  
DOCKED: ATOM     59  O4  UNL     1      13.826  -6.951   1.295 +0.00 -0.00    -0.274 OA 
DOCKED: ATOM     60  H19 UNL     1      12.061  -5.647  -0.971 +0.00 +0.00    +0.150 HD 
DOCKED: BRANCH  58  61
DOCKED: ATOM     61  C13 UNL     1      11.517  -7.506   0.758 +0.00 +0.00    +0.138 C  
DOCKED: BRANCH  61  62
DOCKED: ATOM     62  N5  UNL     1      10.429  -6.564   0.404 +0.00 -0.00    -0.320 NA 
DOCKED: ATOM     63  H21 UNL     1      10.663  -6.168  -0.512 +0.00 +0.00    +0.119 HD 
DOCKED: ATOM     64  H22 UNL     1      10.485  -5.763   1.037 +0.00 +0.00    +0.119 HD 
DOCKED: ENDBRANCH  61  62
DOCKED: BRANCH  61  65
DOCKED: ATOM     65  C14 UNL     1      11.376  -8.762  -0.114 +0.00 +0.00    +0.039 C  
DOCKED: BRANCH  65  66
DOCKED: ATOM     66  C15 UNL     1      10.470  -8.589  -1.332 +0.00 +0.00    +0.122 C  
DOCKED: BRANCH  66  67
DOCKED: ATOM     67  C16 UNL     1      11.146  -7.885  -2.474 +0.00 +0.00    +0.305 C  
DOCKED: ATOM     68  O5  UNL     1      11.803  -8.424  -3.352 +0.00 -0.00    -0.251 OA 
DOCKED: BRANCH  67  69
DOCKED: ATOM     69  O6  UNL     1      10.977  -6.548  -2.461 +0.00 -0.00    -0.481 OA 
DOCKED: ATOM     70  H27 UNL     1      10.367  -6.377  -1.715 +0.00 +0.00    +0.295 HD 
DOCKED: ENDBRANCH  67  69
DOCKED: ENDBRANCH  66  67
DOCKED: ENDBRANCH  65  66
DOCKED: ENDBRANCH  61  65
DOCKED: ENDBRANCH  58  61
DOCKED: ENDBRANCH  56  57
DOCKED: BRANCH  56  71
DOCKED: ATOM     71  C17 UNL     1      15.374  -6.160  -0.920 +0.00 +0.00    +0.012 C  
DOCKED: ATOM     72  C18 UNL     1      16.691  -5.382  -0.987 +0.00 +0.00    +0.009 C  
DOCKED: ATOM     73  C19 UNL     1      15.340  -7.236  -2.007 +0.00 +0.00    +0.009 C  
DOCKED: ENDBRANCH  56  71
DOCKED: ENDBRANCH  53  56
DOCKED: ENDBRANCH  51  52
DOCKED: BRANCH  51  74
DOCKED: ATOM     74  C8  UNL     1      13.134  -4.204  -5.185 +0.00 +0.00    +0.127 C  
DOCKED: BRANCH  74  75
DOCKED: ATOM     75  C9  UNL     1      13.719  -5.582  -5.036 +0.00 +0.00    +0.213 C  
DOCKED: ATOM     76  N2  UNL     1      12.850  -6.577  -4.704 +0.00 -0.00    -0.329 N  
DOCKED: ATOM     77  O2  UNL     1      14.925  -5.796  -5.125 +0.00 -0.00    -0.276 OA 
DOCKED: ATOM     78  H15 UNL     1      13.240  -7.492  -4.509 +0.00 +0.00    +0.145 HD 
DOCKED: ATOM     79  H16 UNL     1      11.887  -6.407  -4.441 +0.00 +0.00    +0.145 HD 
DOCKED: ENDBRANCH  74  75
DOCKED: ENDBRANCH  51  74
DOCKED: ENDBRANCH  48  51
DOCKED: ENDBRANCH  46  47
DOCKED: BRANCH  46  80
DOCKED: ATOM     80  C4  UNL     1       7.840  -4.383  -4.791 +0.00 +0.00    +0.028 C  
DOCKED: BRANCH  80  82
DOCKED: ATOM     81  C1  UNL     1       8.204  -2.194  -6.103 +0.00 +0.00    +0.007 C  
DOCKED: ATOM     82  C2  UNL     1       7.216  -3.092  -5.365 +0.00 -0.00    -0.015 C  
DOCKED: ATOM     83  C3  UNL     1       6.379  -2.308  -4.356 +0.00 +0.00    +0.007 C  
DOCKED: ENDBRANCH  80  82
DOCKED: ENDBRANCH  46  80
DOCKED: ENDBRANCH  43  46
DOCKED: ENDBRANCH   1  43
DOCKED: TORSDOF 36
DOCKED: TER
DOCKED: ENDMDL
________________________________________________________________________________


    FINAL DOCKED STATE:
    ________________________


Run:   17 / 20
Time taken for this run:   7.478s

DOCKED: MODEL        17
DOCKED: USER    Run = 17
DOCKED: USER
DOCKED: USER    Estimated Free Energy of Binding    = +10.74 kcal/mol  [=(1)+(2)+(3)-(4)]
DOCKED: USER
DOCKED: USER    (1) Final Intermolecular Energy     =  +0.00 kcal/mol
DOCKED: USER        vdW + Hbond + desolv Energy     =  +0.00 kcal/mol
DOCKED: USER        Electrostatic Energy            =  +0.00 kcal/mol
DOCKED: USER        Moving Ligand-Fixed Receptor    =  +0.00 kcal/mol
DOCKED: USER        Moving Ligand-Moving Receptor   =  +0.00 kcal/mol
DOCKED: USER    (2) Final Total Internal Energy     = -32.14 kcal/mol
DOCKED: USER    (3) Torsional Free Energy           = +10.74 kcal/mol
DOCKED: USER    (4) Unbound System's Energy         = -32.14 kcal/mol
DOCKED: USER
DOCKED: USER
DOCKED: REMARK  Name = ligands/ligand_10.pdb
DOCKED: REMARK  43 active torsions:
DOCKED: REMARK  status: ('A' for Active; 'I' for Inactive)
DOCKED: REMARK    1  A    between atoms: C1_1  and  C2_2
DOCKED: REMARK    2  A    between atoms: C2_2  and  C3_3
DOCKED: REMARK    3  A    between atoms: C2_2  and  C4_4
DOCKED: REMARK    4  A    between atoms: C4_4  and  C5_5
DOCKED: REMARK    5  A    between atoms: C5_5  and  N1_6
DOCKED: REMARK    6  A    between atoms: C5_5  and  C20_31
DOCKED: REMARK    7  A    between atoms: C6_7  and  C7_9
DOCKED: REMARK    8  A    between atoms: C7_9  and  C8_10
DOCKED: REMARK    9  A    between atoms: C7_9  and  N3_14
DOCKED: REMARK   10  A    between atoms: C8_10  and  C9_11
DOCKED: REMARK   11  A    between atoms: C10_15  and  C11_17
DOCKED: REMARK   12  A    between atoms: C11_17  and  N4_18
DOCKED: REMARK   13  A    between atoms: C11_17  and  C17_28
DOCKED: REMARK   14  A    between atoms: C12_19  and  C13_21
DOCKED: REMARK   15  A    between atoms: C13_21  and  N5_22
DOCKED: REMARK   16  A    between atoms: C13_21  and  C14_23
DOCKED: REMARK   17  A    between atoms: C14_23  and  C15_24
DOCKED: REMARK   18  A    between atoms: C15_24  and  C16_25
DOCKED: REMARK   19  A    between atoms: C16_25  and  O6_27
DOCKED: REMARK   20  A    between atoms: C17_28  and  C18_29
DOCKED: REMARK   21  A    between atoms: C17_28  and  C19_30
DOCKED: REMARK   22  A    between atoms: C20_31  and  O7_32
DOCKED: REMARK   23  A    between atoms: C20_31  and  C21_33
DOCKED: REMARK   24  A    between atoms: C21_33  and  C22_34
DOCKED: REMARK   25  A    between atoms: N6_36  and  C23_37
DOCKED: REMARK   26  A    between atoms: C23_37  and  C24_38
DOCKED: REMARK   27  A    between atoms: C23_37  and  C42_66
DOCKED: REMARK   28  A    between atoms: N7_40  and  C25_41
DOCKED: REMARK   29  A    between atoms: C25_41  and  C26_42
DOCKED: REMARK   30  A    between atoms: C25_41  and  C27_43
DOCKED: REMARK   31  A    between atoms: N8_45  and  C28_46
DOCKED: REMARK   32  A    between atoms: C28_46  and  C29_47
DOCKED: REMARK   33  A    between atoms: C28_46  and  C32_52
DOCKED: REMARK   34  A    between atoms: C29_47  and  C30_48
DOCKED: REMARK   35  A    between atoms: C30_48  and  C31_49
DOCKED: REMARK   36  A    between atoms: C31_49  and  O12_51
DOCKED: REMARK   37  A    between atoms: N9_54  and  C33_55
DOCKED: REMARK   38  A    between atoms: C33_55  and  C34_56
DOCKED: REMARK   39  A    between atoms: C33_55  and  C41_63
DOCKED: REMARK   40  A    between atoms: C34_56  and  C35_57
DOCKED: REMARK   41  A    between atoms: C41_63  and  O15_65
DOCKED: REMARK   42  A    between atoms: C42_66  and  C43_67
DOCKED: REMARK   43  A    between atoms: C42_66  and  C44_68
DOCKED: REMARK                            x       y       z     vdW  Elec       q    Type
DOCKED: REMARK                         _______ _______ _______ _____ _____    ______ ____
DOCKED: USER                              x       y       z     vdW  Elec       q    Type
DOCKED: USER                           _______ _______ _______ _____ _____    ______ ____
DOCKED: ROOT
DOCKED: ATOM      1  C21 UNL     1       4.127   0.556  -2.750 +0.00 +0.00    +0.129 C  
DOCKED: ENDROOT
DOCKED: BRANCH   1   2
DOCKED: ATOM      2  C22 UNL     1       5.238  -0.096  -1.951 +0.00 +0.00    +0.216 C  
DOCKED: ATOM      3  O8  UNL     1       5.547   0.263  -0.818 +0.00 -0.00    -0.276 OA 
DOCKED: ATOM      4  N6  UNL     1       5.827  -1.162  -2.596 +0.00 -0.00    -0.304 N  
DOCKED: ATOM      5  H39 UNL     1       5.728  -1.185  -3.606 +0.00 +0.00    +0.149 HD 
DOCKED: BRANCH   4   6
DOCKED: ATOM      6  C23 UNL     1       7.086  -1.723  -2.101 +0.00 +0.00    +0.161 C  
DOCKED: BRANCH   6   7
DOCKED: ATOM      7  C24 UNL     1       8.001  -1.820  -3.345 +0.00 +0.00    +0.234 C  
DOCKED: ATOM      8  O9  UNL     1       7.812  -1.140  -4.355 +0.00 -0.00    -0.274 OA 
DOCKED: ATOM      9  N7  UNL     1       9.013  -2.740  -3.246 +0.00 -0.00    -0.303 N  
DOCKED: ATOM     10  H41 UNL     1       9.132  -3.288  -2.398 +0.00 +0.00    +0.149 HD 
DOCKED: BRANCH   9  11
DOCKED: ATOM     11  C25 UNL     1       9.981  -2.976  -4.309 +0.00 +0.00    +0.156 C  
DOCKED: ATOM     12  C26 UNL     1      11.189  -3.738  -3.783 +0.00 +0.00    +0.038 C  
DOCKED: BRANCH  11  13
DOCKED: ATOM     13  C27 UNL     1       9.260  -3.769  -5.419 +0.00 +0.00    +0.234 C  
DOCKED: ATOM     14  O10 UNL     1       9.792  -4.725  -5.990 +0.00 -0.00    -0.274 OA 
DOCKED: ATOM     15  N8  UNL     1       7.975  -3.346  -5.702 +0.00 -0.00    -0.302 N  
DOCKED: ATOM     16  H46 UNL     1       7.731  -2.401  -5.424 +0.00 +0.00    +0.150 HD 
DOCKED: BRANCH  15  17
DOCKED: ATOM     17  C28 UNL     1       7.279  -3.838  -6.886 +0.00 +0.00    +0.159 C  
DOCKED: BRANCH  17  18
DOCKED: ATOM     18  C32 UNL     1       7.349  -2.750  -7.980 +0.00 +0.00    +0.234 C  
DOCKED: ATOM     19  O13 UNL     1       7.450  -3.034  -9.173 +0.00 -0.00    -0.274 OA 
DOCKED: ATOM     20  N9  UNL     1       7.347  -1.461  -7.505 +0.00 -0.00    -0.301 N  
DOCKED: ATOM     21  H53 UNL     1       7.421  -1.307  -6.507 +0.00 +0.00    +0.150 HD 
DOCKED: BRANCH  20  22
DOCKED: ATOM     22  C33 UNL     1       7.699  -0.325  -8.366 +0.00 +0.00    +0.186 C  
DOCKED: BRANCH  22  23
DOCKED: ATOM     23  C41 UNL     1       7.726   0.896  -7.453 +0.00 +0.00    +0.326 C  
DOCKED: ATOM     24  O14 UNL     1       8.433   1.879  -7.611 +0.00 -0.00    -0.249 OA 
DOCKED: BRANCH  23  25
DOCKED: ATOM     25  O15 UNL     1       6.909   0.793  -6.388 +0.00 -0.00    -0.479 OA 
DOCKED: ATOM     26  H62 UNL     1       7.387   0.189  -5.782 +0.00 +0.00    +0.295 HD 
DOCKED: ENDBRANCH  23  25
DOCKED: ENDBRANCH  22  23
DOCKED: BRANCH  22  27
DOCKED: ATOM     27  C34 UNL     1       6.659  -0.082  -9.465 +0.00 +0.00    +0.069 C  
DOCKED: BRANCH  27  28
DOCKED: ATOM     28  C35 UNL     1       5.261  -0.500  -9.074 +0.00 -0.00    -0.045 A  
DOCKED: ATOM     29  C36 UNL     1       4.579   0.164  -8.045 +0.00 +0.00    +0.004 A  
DOCKED: ATOM     30  C37 UNL     1       3.285  -0.224  -7.689 +0.00 +0.00    +0.000 A  
DOCKED: ATOM     31  C38 UNL     1       2.664  -1.280  -8.354 +0.00 +0.00    +0.000 A  
DOCKED: ATOM     32  C39 UNL     1       3.332  -1.946  -9.379 +0.00 +0.00    +0.000 A  
DOCKED: ATOM     33  C40 UNL     1       4.625  -1.560  -9.737 +0.00 +0.00    +0.004 A  
DOCKED: ENDBRANCH  27  28
DOCKED: ENDBRANCH  22  27
DOCKED: ENDBRANCH  20  22
DOCKED: ENDBRANCH  17  18
DOCKED: BRANCH  17  34
DOCKED: ATOM     34  C29 UNL     1       5.832  -4.267  -6.580 +0.00 +0.00    +0.043 C  
DOCKED: BRANCH  34  35
DOCKED: ATOM     35  C30 UNL     1       4.773  -3.164  -6.628 +0.00 +0.00    +0.123 C  
DOCKED: BRANCH  35  36
DOCKED: ATOM     36  C31 UNL     1       4.889  -2.214  -5.472 +0.00 +0.00    +0.305 C  
DOCKED: ATOM     37  O11 UNL     1       4.159  -2.180  -4.497 +0.00 -0.00    -0.251 OA 
DOCKED: BRANCH  36  38
DOCKED: ATOM     38  O12 UNL     1       5.879  -1.320  -5.648 +0.00 -0.00    -0.481 OA 
DOCKED: ATOM     39  H52 UNL     1       5.723  -0.644  -4.955 +0.00 +0.00    +0.295 HD 
DOCKED: ENDBRANCH  36  38
DOCKED: ENDBRANCH  35  36
DOCKED: ENDBRANCH  34  35
DOCKED: ENDBRANCH  17  34
DOCKED: ENDBRANCH  15  17
DOCKED: ENDBRANCH  11  13
DOCKED: ENDBRANCH   9  11
DOCKED: ENDBRANCH   6   7
DOCKED: BRANCH   6  40
DOCKED: ATOM     40  C42 UNL     1       6.843  -3.101  -1.443 +0.00 +0.00    +0.012 C  
DOCKED: ATOM     41  C43 UNL     1       6.068  -4.022  -2.395 +0.00 +0.00    +0.009 C  
DOCKED: ATOM     42  C44 UNL     1       6.095  -3.003  -0.114 +0.00 +0.00    +0.009 C  
DOCKED: ENDBRANCH   6  40
DOCKED: ENDBRANCH   4   6
DOCKED: ENDBRANCH   1   2
DOCKED: BRANCH   1  43
DOCKED: ATOM     43  C20 UNL     1       4.709   1.349  -3.920 +0.00 +0.00    +0.143 C  
DOCKED: BRANCH  43  44
DOCKED: ATOM     44  O7  UNL     1       6.028   0.890  -4.209 +0.00 -0.00    -0.389 OA 
DOCKED: ATOM     45  H36 UNL     1       6.557   1.695  -4.390 +0.00 +0.00    +0.210 HD 
DOCKED: ENDBRANCH  43  44
DOCKED: BRANCH  43  46
DOCKED: ATOM     46  C5  UNL     1       4.708   2.887  -3.681 +0.00 +0.00    +0.102 C  
DOCKED: BRANCH  46  47
DOCKED: ATOM     47  N1  UNL     1       5.916   3.342  -2.950 +0.00 -0.00    -0.308 N  
DOCKED: ATOM     48  C6  UNL     1       6.060   4.563  -2.330 +0.00 +0.00    +0.234 C  
DOCKED: ATOM     49  O1  UNL     1       5.128   5.342  -2.157 +0.00 -0.00    -0.274 OA 
DOCKED: ATOM     50  H11 UNL     1       6.763   2.788  -3.096 +0.00 +0.00    +0.149 HD 
DOCKED: BRANCH  48  51
DOCKED: ATOM     51  C7  UNL     1       7.502   4.899  -1.853 +0.00 +0.00    +0.168 C  
DOCKED: BRANCH  51  52
DOCKED: ATOM     52  N3  UNL     1       8.215   3.633  -1.656 +0.00 -0.00    -0.302 N  
DOCKED: ATOM     53  C10 UNL     1       8.668   3.252  -0.411 +0.00 +0.00    +0.234 C  
DOCKED: ATOM     54  O3  UNL     1       8.662   4.016   0.558 +0.00 -0.00    -0.274 OA 
DOCKED: ATOM     55  H17 UNL     1       7.972   2.892  -2.305 +0.00 +0.00    +0.150 HD 
DOCKED: BRANCH  53  56
DOCKED: ATOM     56  C11 UNL     1       9.209   1.802  -0.315 +0.00 +0.00    +0.161 C  
DOCKED: BRANCH  56  57
DOCKED: ATOM     57  N4  UNL     1       9.888   1.493  -1.580 +0.00 -0.00    -0.302 N  
DOCKED: ATOM     58  C12 UNL     1       9.166   1.209  -2.718 +0.00 +0.00    +0.230 C  
DOCKED: ATOM     59  O4  UNL     1       7.938   1.093  -2.731 +0.00 -0.00    -0.274 OA 
DOCKED: ATOM     60  H19 UNL     1      10.802   1.921  -1.702 +0.00 +0.00    +0.150 HD 
DOCKED: BRANCH  58  61
DOCKED: ATOM     61  C13 UNL     1      10.019   0.970  -3.988 +0.00 +0.00    +0.138 C  
DOCKED: BRANCH  61  62
DOCKED: ATOM     62  N5  UNL     1       9.100   0.684  -5.115 +0.00 -0.00    -0.320 NA 
DOCKED: ATOM     63  H21 UNL     1       9.086   1.518  -5.710 +0.00 +0.00    +0.119 HD 
DOCKED: ATOM     64  H22 UNL     1       8.149   0.634  -4.744 +0.00 +0.00    +0.119 HD 
DOCKED: ENDBRANCH  61  62
DOCKED: BRANCH  61  65
DOCKED: ATOM     65  C14 UNL     1      10.867   2.197  -4.352 +0.00 +0.00    +0.039 C  
DOCKED: BRANCH  65  66
DOCKED: ATOM     66  C15 UNL     1      10.107   3.522  -4.333 +0.00 +0.00    +0.122 C  
DOCKED: BRANCH  66  67
DOCKED: ATOM     67  C16 UNL     1       8.848   3.492  -5.152 +0.00 +0.00    +0.305 C  
DOCKED: ATOM     68  O5  UNL     1       8.715   3.975  -6.267 +0.00 -0.00    -0.251 OA 
DOCKED: BRANCH  67  69
DOCKED: ATOM     69  O6  UNL     1       7.819   2.874  -4.540 +0.00 -0.00    -0.481 OA 
DOCKED: ATOM     70  H27 UNL     1       7.895   1.934  -4.805 +0.00 +0.00    +0.295 HD 
DOCKED: ENDBRANCH  67  69
DOCKED: ENDBRANCH  66  67
DOCKED: ENDBRANCH  65  66
DOCKED: ENDBRANCH  61  65
DOCKED: ENDBRANCH  58  61
DOCKED: ENDBRANCH  56  57
DOCKED: BRANCH  56  71
DOCKED: ATOM     71  C17 UNL     1      10.173   1.542   0.865 +0.00 +0.00    +0.012 C  
DOCKED: ATOM     72  C18 UNL     1       9.456   1.524   2.218 +0.00 +0.00    +0.009 C  
DOCKED: ATOM     73  C19 UNL     1      11.363   2.502   0.911 +0.00 +0.00    +0.009 C  
DOCKED: ENDBRANCH  56  71
DOCKED: ENDBRANCH  53  56
DOCKED: ENDBRANCH  51  52
DOCKED: BRANCH  51  74
DOCKED: ATOM     74  C8  UNL     1       8.261   5.759  -2.860 +0.00 +0.00    +0.127 C  
DOCKED: BRANCH  74  75
DOCKED: ATOM     75  C9  UNL     1       7.251   6.462  -3.727 +0.00 +0.00    +0.213 C  
DOCKED: ATOM     76  N2  UNL     1       6.821   5.783  -4.828 +0.00 -0.00    -0.329 N  
DOCKED: ATOM     77  O2  UNL     1       6.891   7.615  -3.511 +0.00 -0.00    -0.276 OA 
DOCKED: ATOM     78  H15 UNL     1       6.213   6.276  -5.472 +0.00 +0.00    +0.145 HD 
DOCKED: ATOM     79  H16 UNL     1       7.233   4.912  -5.137 +0.00 +0.00    +0.145 HD 
DOCKED: ENDBRANCH  74  75
DOCKED: ENDBRANCH  51  74
DOCKED: ENDBRANCH  48  51
DOCKED: ENDBRANCH  46  47
DOCKED: BRANCH  46  80
DOCKED: ATOM     80  C4  UNL     1       4.588   3.768  -4.956 +0.00 +0.00    +0.028 C  
DOCKED: BRANCH  80  82
DOCKED: ATOM     81  C1  UNL     1       5.846   3.779  -7.206 +0.00 +0.00    +0.007 C  
DOCKED: ATOM     82  C2  UNL     1       4.736   3.156  -6.365 +0.00 -0.00    -0.015 C  
DOCKED: ATOM     83  C3  UNL     1       3.423   3.060  -7.139 +0.00 +0.00    +0.007 C  
DOCKED: ENDBRANCH  80  82
DOCKED: ENDBRANCH  46  80
DOCKED: ENDBRANCH  43  46
DOCKED: ENDBRANCH   1  43
DOCKED: TORSDOF 36
DOCKED: TER
DOCKED: ENDMDL
________________________________________________________________________________


    FINAL DOCKED STATE:
    ________________________


Run:   18 / 20
Time taken for this run:   7.478s

DOCKED: MODEL        18
DOCKED: USER    Run = 18
DOCKED: USER
DOCKED: USER    Estimated Free Energy of Binding    = +10.74 kcal/mol  [=(1)+(2)+(3)-(4)]
DOCKED: USER
DOCKED: USER    (1) Final Intermolecular Energy     =  +0.00 kcal/mol
DOCKED: USER        vdW + Hbond + desolv Energy     =  +0.00 kcal/mol
DOCKED: USER        Electrostatic Energy            =  +0.00 kcal/mol
DOCKED: USER        Moving Ligand-Fixed Receptor    =  +0.00 kcal/mol
DOCKED: USER        Moving Ligand-Moving Receptor   =  +0.00 kcal/mol
DOCKED: USER    (2) Final Total Internal Energy     = -32.67 kcal/mol
DOCKED: USER    (3) Torsional Free Energy           = +10.74 kcal/mol
DOCKED: USER    (4) Unbound System's Energy         = -32.67 kcal/mol
DOCKED: USER
DOCKED: USER
DOCKED: REMARK  Name = ligands/ligand_10.pdb
DOCKED: REMARK  43 active torsions:
DOCKED: REMARK  status: ('A' for Active; 'I' for Inactive)
DOCKED: REMARK    1  A    between atoms: C1_1  and  C2_2
DOCKED: REMARK    2  A    between atoms: C2_2  and  C3_3
DOCKED: REMARK    3  A    between atoms: C2_2  and  C4_4
DOCKED: REMARK    4  A    between atoms: C4_4  and  C5_5
DOCKED: REMARK    5  A    between atoms: C5_5  and  N1_6
DOCKED: REMARK    6  A    between atoms: C5_5  and  C20_31
DOCKED: REMARK    7  A    between atoms: C6_7  and  C7_9
DOCKED: REMARK    8  A    between atoms: C7_9  and  C8_10
DOCKED: REMARK    9  A    between atoms: C7_9  and  N3_14
DOCKED: REMARK   10  A    between atoms: C8_10  and  C9_11
DOCKED: REMARK   11  A    between atoms: C10_15  and  C11_17
DOCKED: REMARK   12  A    between atoms: C11_17  and  N4_18
DOCKED: REMARK   13  A    between atoms: C11_17  and  C17_28
DOCKED: REMARK   14  A    between atoms: C12_19  and  C13_21
DOCKED: REMARK   15  A    between atoms: C13_21  and  N5_22
DOCKED: REMARK   16  A    between atoms: C13_21  and  C14_23
DOCKED: REMARK   17  A    between atoms: C14_23  and  C15_24
DOCKED: REMARK   18  A    between atoms: C15_24  and  C16_25
DOCKED: REMARK   19  A    between atoms: C16_25  and  O6_27
DOCKED: REMARK   20  A    between atoms: C17_28  and  C18_29
DOCKED: REMARK   21  A    between atoms: C17_28  and  C19_30
DOCKED: REMARK   22  A    between atoms: C20_31  and  O7_32
DOCKED: REMARK   23  A    between atoms: C20_31  and  C21_33
DOCKED: REMARK   24  A    between atoms: C21_33  and  C22_34
DOCKED: REMARK   25  A    between atoms: N6_36  and  C23_37
DOCKED: REMARK   26  A    between atoms: C23_37  and  C24_38
DOCKED: REMARK   27  A    between atoms: C23_37  and  C42_66
DOCKED: REMARK   28  A    between atoms: N7_40  and  C25_41
DOCKED: REMARK   29  A    between atoms: C25_41  and  C26_42
DOCKED: REMARK   30  A    between atoms: C25_41  and  C27_43
DOCKED: REMARK   31  A    between atoms: N8_45  and  C28_46
DOCKED: REMARK   32  A    between atoms: C28_46  and  C29_47
DOCKED: REMARK   33  A    between atoms: C28_46  and  C32_52
DOCKED: REMARK   34  A    between atoms: C29_47  and  C30_48
DOCKED: REMARK   35  A    between atoms: C30_48  and  C31_49
DOCKED: REMARK   36  A    between atoms: C31_49  and  O12_51
DOCKED: REMARK   37  A    between atoms: N9_54  and  C33_55
DOCKED: REMARK   38  A    between atoms: C33_55  and  C34_56
DOCKED: REMARK   39  A    between atoms: C33_55  and  C41_63
DOCKED: REMARK   40  A    between atoms: C34_56  and  C35_57
DOCKED: REMARK   41  A    between atoms: C41_63  and  O15_65
DOCKED: REMARK   42  A    between atoms: C42_66  and  C43_67
DOCKED: REMARK   43  A    between atoms: C42_66  and  C44_68
DOCKED: REMARK                            x       y       z     vdW  Elec       q    Type
DOCKED: REMARK                         _______ _______ _______ _____ _____    ______ ____
DOCKED: USER                              x       y       z     vdW  Elec       q    Type
DOCKED: USER                           _______ _______ _______ _____ _____    ______ ____
DOCKED: ROOT
DOCKED: ATOM      1  C21 UNL     1       9.191  -3.662   2.599 +0.00 +0.00    +0.129 C  
DOCKED: ENDROOT
DOCKED: BRANCH   1   2
DOCKED: ATOM      2  C22 UNL     1       8.494  -4.614   3.551 +0.00 +0.00    +0.216 C  
DOCKED: ATOM      3  O8  UNL     1       7.385  -5.092   3.327 +0.00 -0.00    -0.276 OA 
DOCKED: ATOM      4  N6  UNL     1       9.247  -4.932   4.660 +0.00 -0.00    -0.304 N  
DOCKED: ATOM      5  H39 UNL     1       9.982  -4.277   4.907 +0.00 +0.00    +0.149 HD 
DOCKED: BRANCH   4   6
DOCKED: ATOM      6  C23 UNL     1       8.630  -5.605   5.806 +0.00 +0.00    +0.161 C  
DOCKED: BRANCH   6   7
DOCKED: ATOM      7  C24 UNL     1       9.744  -5.679   6.877 +0.00 +0.00    +0.234 C  
DOCKED: ATOM      8  O9  UNL     1      10.792  -5.038   6.782 +0.00 -0.00    -0.274 OA 
DOCKED: ATOM      9  N7  UNL     1       9.486  -6.534   7.918 +0.00 -0.00    -0.303 N  
DOCKED: ATOM     10  H41 UNL     1       8.613  -7.052   7.957 +0.00 +0.00    +0.149 HD 
DOCKED: BRANCH   9  11
DOCKED: ATOM     11  C25 UNL     1      10.410  -6.740   9.026 +0.00 +0.00    +0.156 C  
DOCKED: ATOM     12  C26 UNL     1      11.802  -7.085   8.514 +0.00 +0.00    +0.038 C  
DOCKED: BRANCH  11  13
DOCKED: ATOM     13  C27 UNL     1      10.427  -5.439   9.857 +0.00 +0.00    +0.234 C  
DOCKED: ATOM     14  O10 UNL     1       9.602  -5.222  10.748 +0.00 -0.00    -0.274 OA 
DOCKED: ATOM     15  N8  UNL     1      11.443  -4.557   9.543 +0.00 -0.00    -0.302 N  
DOCKED: ATOM     16  H46 UNL     1      11.874  -4.658   8.630 +0.00 +0.00    +0.150 HD 
DOCKED: BRANCH  15  17
DOCKED: ATOM     17  C28 UNL     1      11.430  -3.196  10.069 +0.00 +0.00    +0.159 C  
DOCKED: BRANCH  17  18
DOCKED: ATOM     18  C32 UNL     1      10.640  -2.301   9.088 +0.00 +0.00    +0.234 C  
DOCKED: ATOM     19  O13 UNL     1       9.732  -1.565   9.468 +0.00 -0.00    -0.274 OA 
DOCKED: ATOM     20  N9  UNL     1      11.000  -2.445   7.770 +0.00 -0.00    -0.301 N  
DOCKED: ATOM     21  H53 UNL     1      11.644  -3.183   7.516 +0.00 +0.00    +0.150 HD 
DOCKED: BRANCH  20  22
DOCKED: ATOM     22  C33 UNL     1      10.172  -1.903   6.685 +0.00 +0.00    +0.186 C  
DOCKED: BRANCH  22  23
DOCKED: ATOM     23  C41 UNL     1      10.830  -2.363   5.390 +0.00 +0.00    +0.326 C  
DOCKED: ATOM     24  O14 UNL     1      10.515  -1.994   4.268 +0.00 -0.00    -0.249 OA 
DOCKED: BRANCH  23  25
DOCKED: ATOM     25  O15 UNL     1      11.801  -3.278   5.571 +0.00 -0.00    -0.479 OA 
DOCKED: ATOM     26  H62 UNL     1      11.522  -4.031   5.011 +0.00 +0.00    +0.295 HD 
DOCKED: ENDBRANCH  23  25
DOCKED: ENDBRANCH  22  23
DOCKED: BRANCH  22  27
DOCKED: ATOM     27  C34 UNL     1      10.136  -0.370   6.689 +0.00 +0.00    +0.069 C  
DOCKED: BRANCH  27  28
DOCKED: ATOM     28  C35 UNL     1      11.290   0.261   5.947 +0.00 -0.00    -0.045 A  
DOCKED: ATOM     29  C36 UNL     1      11.099   0.825   4.677 +0.00 +0.00    +0.004 A  
DOCKED: ATOM     30  C37 UNL     1      12.169   1.410   3.996 +0.00 +0.00    +0.000 A  
DOCKED: ATOM     31  C38 UNL     1      13.437   1.434   4.573 +0.00 +0.00    +0.000 A  
DOCKED: ATOM     32  C39 UNL     1      13.638   0.879   5.834 +0.00 +0.00    +0.000 A  
DOCKED: ATOM     33  C40 UNL     1      12.570   0.293   6.518 +0.00 +0.00    +0.004 A  
DOCKED: ENDBRANCH  27  28
DOCKED: ENDBRANCH  22  27
DOCKED: ENDBRANCH  20  22
DOCKED: ENDBRANCH  17  18
DOCKED: BRANCH  17  34
DOCKED: ATOM     34  C29 UNL     1      12.846  -2.658  10.342 +0.00 +0.00    +0.043 C  
DOCKED: BRANCH  34  35
DOCKED: ATOM     35  C30 UNL     1      13.920  -3.025   9.315 +0.00 +0.00    +0.123 C  
DOCKED: BRANCH  35  36
DOCKED: ATOM     36  C31 UNL     1      14.104  -1.956   8.278 +0.00 +0.00    +0.305 C  
DOCKED: ATOM     37  O11 UNL     1      14.578  -0.850   8.467 +0.00 -0.00    -0.251 OA 
DOCKED: BRANCH  36  38
DOCKED: ATOM     38  O12 UNL     1      13.617  -2.323   7.079 +0.00 -0.00    -0.481 OA 
DOCKED: ATOM     39  H52 UNL     1      13.099  -3.135   7.264 +0.00 +0.00    +0.295 HD 
DOCKED: ENDBRANCH  36  38
DOCKED: ENDBRANCH  35  36
DOCKED: ENDBRANCH  34  35
DOCKED: ENDBRANCH  17  34
DOCKED: ENDBRANCH  15  17
DOCKED: ENDBRANCH  11  13
DOCKED: ENDBRANCH   9  11
DOCKED: ENDBRANCH   6   7
DOCKED: BRANCH   6  40
DOCKED: ATOM     40  C42 UNL     1       8.113  -7.004   5.398 +0.00 +0.00    +0.012 C  
DOCKED: ATOM     41  C43 UNL     1       6.990  -7.459   6.341 +0.00 +0.00    +0.009 C  
DOCKED: ATOM     42  C44 UNL     1       9.215  -8.063   5.376 +0.00 +0.00    +0.009 C  
DOCKED: ENDBRANCH   6  40
DOCKED: ENDBRANCH   4   6
DOCKED: ENDBRANCH   1   2
DOCKED: BRANCH   1  43
DOCKED: ATOM     43  C20 UNL     1      10.572  -4.200   2.227 +0.00 +0.00    +0.143 C  
DOCKED: BRANCH  43  44
DOCKED: ATOM     44  O7  UNL     1      11.396  -4.269   3.389 +0.00 -0.00    -0.389 OA 
DOCKED: ATOM     45  H36 UNL     1      11.889  -3.422   3.418 +0.00 +0.00    +0.210 HD 
DOCKED: ENDBRANCH  43  44
DOCKED: BRANCH  43  46
DOCKED: ATOM     46  C5  UNL     1      11.274  -3.371   1.111 +0.00 +0.00    +0.102 C  
DOCKED: BRANCH  46  47
DOCKED: ATOM     47  N1  UNL     1      12.042  -2.228   1.661 +0.00 -0.00    -0.308 N  
DOCKED: ATOM     48  C6  UNL     1      12.919  -1.441   0.948 +0.00 +0.00    +0.234 C  
DOCKED: ATOM     49  O1  UNL     1      13.021  -1.486  -0.273 +0.00 -0.00    -0.274 OA 
DOCKED: ATOM     50  H11 UNL     1      12.070  -2.156   2.681 +0.00 +0.00    +0.149 HD 
DOCKED: BRANCH  48  51
DOCKED: ATOM     51  C7  UNL     1      13.786  -0.472   1.802 +0.00 +0.00    +0.168 C  
DOCKED: BRANCH  51  52
DOCKED: ATOM     52  N3  UNL     1      14.746  -1.281   2.561 +0.00 -0.00    -0.302 N  
DOCKED: ATOM     53  C10 UNL     1      14.353  -2.016   3.659 +0.00 +0.00    +0.234 C  
DOCKED: ATOM     54  O3  UNL     1      13.234  -1.899   4.168 +0.00 -0.00    -0.274 OA 
DOCKED: ATOM     55  H17 UNL     1      15.534  -1.634   2.029 +0.00 +0.00    +0.150 HD 
DOCKED: BRANCH  53  56
DOCKED: ATOM     56  C11 UNL     1      15.421  -2.985   4.228 +0.00 +0.00    +0.161 C  
DOCKED: BRANCH  56  57
DOCKED: ATOM     57  N4  UNL     1      14.756  -3.863   5.200 +0.00 -0.00    -0.302 N  
DOCKED: ATOM     58  C12 UNL     1      15.461  -4.423   6.243 +0.00 +0.00    +0.230 C  
DOCKED: ATOM     59  O4  UNL     1      16.683  -4.317   6.372 +0.00 -0.00    -0.274 OA 
DOCKED: ATOM     60  H19 UNL     1      13.768  -3.681   5.350 +0.00 +0.00    +0.150 HD 
DOCKED: BRANCH  58  61
DOCKED: ATOM     61  C13 UNL     1      14.612  -5.269   7.223 +0.00 +0.00    +0.138 C  
DOCKED: BRANCH  61  62
DOCKED: ATOM     62  N5  UNL     1      13.195  -4.851   7.088 +0.00 -0.00    -0.320 NA 
DOCKED: ATOM     63  H21 UNL     1      12.669  -5.674   6.777 +0.00 +0.00    +0.119 HD 
DOCKED: ATOM     64  H22 UNL     1      13.129  -4.207   6.297 +0.00 +0.00    +0.119 HD 
DOCKED: ENDBRANCH  61  62
DOCKED: BRANCH  61  65
DOCKED: ATOM     65  C14 UNL     1      14.706  -6.771   6.920 +0.00 +0.00    +0.039 C  
DOCKED: BRANCH  65  66
DOCKED: ATOM     66  C15 UNL     1      14.479  -7.138   5.455 +0.00 +0.00    +0.122 C  
DOCKED: BRANCH  66  67
DOCKED: ATOM     67  C16 UNL     1      13.088  -6.830   4.978 +0.00 +0.00    +0.305 C  
DOCKED: ATOM     68  O5  UNL     1      12.171  -7.634   4.898 +0.00 -0.00    -0.251 OA 
DOCKED: BRANCH  67  69
DOCKED: ATOM     69  O6  UNL     1      12.912  -5.544   4.619 +0.00 -0.00    -0.481 OA 
DOCKED: ATOM     70  H27 UNL     1      12.188  -5.218   5.191 +0.00 +0.00    +0.295 HD 
DOCKED: ENDBRANCH  67  69
DOCKED: ENDBRANCH  66  67
DOCKED: ENDBRANCH  65  66
DOCKED: ENDBRANCH  61  65
DOCKED: ENDBRANCH  58  61
DOCKED: ENDBRANCH  56  57
DOCKED: BRANCH  56  71
DOCKED: ATOM     71  C17 UNL     1      16.150  -3.845   3.171 +0.00 +0.00    +0.012 C  
DOCKED: ATOM     72  C18 UNL     1      15.701  -5.308   3.190 +0.00 +0.00    +0.009 C  
DOCKED: ATOM     73  C19 UNL     1      17.675  -3.759   3.253 +0.00 +0.00    +0.009 C  
DOCKED: ENDBRANCH  56  71
DOCKED: ENDBRANCH  53  56
DOCKED: ENDBRANCH  51  52
DOCKED: BRANCH  51  74
DOCKED: ATOM     74  C8  UNL     1      14.541   0.540   0.944 +0.00 +0.00    +0.127 C  
DOCKED: BRANCH  74  75
DOCKED: ATOM     75  C9  UNL     1      15.707  -0.167   0.307 +0.00 +0.00    +0.213 C  
DOCKED: ATOM     76  N2  UNL     1      15.516  -0.629  -0.961 +0.00 -0.00    -0.329 N  
DOCKED: ATOM     77  O2  UNL     1      16.748  -0.395   0.916 +0.00 -0.00    -0.276 OA 
DOCKED: ATOM     78  H15 UNL     1      16.256  -1.187  -1.371 +0.00 +0.00    +0.145 HD 
DOCKED: ATOM     79  H16 UNL     1      14.615  -0.623  -1.423 +0.00 +0.00    +0.145 HD 
DOCKED: ENDBRANCH  74  75
DOCKED: ENDBRANCH  51  74
DOCKED: ENDBRANCH  48  51
DOCKED: ENDBRANCH  46  47
DOCKED: BRANCH  46  80
DOCKED: ATOM     80  C4  UNL     1      12.239  -4.166   0.187 +0.00 +0.00    +0.028 C  
DOCKED: BRANCH  80  82
DOCKED: ATOM     81  C1  UNL     1      14.790  -4.471  -0.028 +0.00 +0.00    +0.007 C  
DOCKED: ATOM     82  C2  UNL     1      13.522  -4.818   0.746 +0.00 -0.00    -0.015 C  
DOCKED: ATOM     83  C3  UNL     1      13.397  -6.321   0.986 +0.00 +0.00    +0.007 C  
DOCKED: ENDBRANCH  80  82
DOCKED: ENDBRANCH  46  80
DOCKED: ENDBRANCH  43  46
DOCKED: ENDBRANCH   1  43
DOCKED: TORSDOF 36
DOCKED: TER
DOCKED: ENDMDL
________________________________________________________________________________


    FINAL DOCKED STATE:
    ________________________


Run:   19 / 20
Time taken for this run:   7.478s

DOCKED: MODEL        19
DOCKED: USER    Run = 19
DOCKED: USER
DOCKED: USER    Estimated Free Energy of Binding    = +10.74 kcal/mol  [=(1)+(2)+(3)-(4)]
DOCKED: USER
DOCKED: USER    (1) Final Intermolecular Energy     =  +0.00 kcal/mol
DOCKED: USER        vdW + Hbond + desolv Energy     =  +0.00 kcal/mol
DOCKED: USER        Electrostatic Energy            =  +0.00 kcal/mol
DOCKED: USER        Moving Ligand-Fixed Receptor    =  +0.00 kcal/mol
DOCKED: USER        Moving Ligand-Moving Receptor   =  +0.00 kcal/mol
DOCKED: USER    (2) Final Total Internal Energy     = -32.06 kcal/mol
DOCKED: USER    (3) Torsional Free Energy           = +10.74 kcal/mol
DOCKED: USER    (4) Unbound System's Energy         = -32.06 kcal/mol
DOCKED: USER
DOCKED: USER
DOCKED: REMARK  Name = ligands/ligand_10.pdb
DOCKED: REMARK  43 active torsions:
DOCKED: REMARK  status: ('A' for Active; 'I' for Inactive)
DOCKED: REMARK    1  A    between atoms: C1_1  and  C2_2
DOCKED: REMARK    2  A    between atoms: C2_2  and  C3_3
DOCKED: REMARK    3  A    between atoms: C2_2  and  C4_4
DOCKED: REMARK    4  A    between atoms: C4_4  and  C5_5
DOCKED: REMARK    5  A    between atoms: C5_5  and  N1_6
DOCKED: REMARK    6  A    between atoms: C5_5  and  C20_31
DOCKED: REMARK    7  A    between atoms: C6_7  and  C7_9
DOCKED: REMARK    8  A    between atoms: C7_9  and  C8_10
DOCKED: REMARK    9  A    between atoms: C7_9  and  N3_14
DOCKED: REMARK   10  A    between atoms: C8_10  and  C9_11
DOCKED: REMARK   11  A    between atoms: C10_15  and  C11_17
DOCKED: REMARK   12  A    between atoms: C11_17  and  N4_18
DOCKED: REMARK   13  A    between atoms: C11_17  and  C17_28
DOCKED: REMARK   14  A    between atoms: C12_19  and  C13_21
DOCKED: REMARK   15  A    between atoms: C13_21  and  N5_22
DOCKED: REMARK   16  A    between atoms: C13_21  and  C14_23
DOCKED: REMARK   17  A    between atoms: C14_23  and  C15_24
DOCKED: REMARK   18  A    between atoms: C15_24  and  C16_25
DOCKED: REMARK   19  A    between atoms: C16_25  and  O6_27
DOCKED: REMARK   20  A    between atoms: C17_28  and  C18_29
DOCKED: REMARK   21  A    between atoms: C17_28  and  C19_30
DOCKED: REMARK   22  A    between atoms: C20_31  and  O7_32
DOCKED: REMARK   23  A    between atoms: C20_31  and  C21_33
DOCKED: REMARK   24  A    between atoms: C21_33  and  C22_34
DOCKED: REMARK   25  A    between atoms: N6_36  and  C23_37
DOCKED: REMARK   26  A    between atoms: C23_37  and  C24_38
DOCKED: REMARK   27  A    between atoms: C23_37  and  C42_66
DOCKED: REMARK   28  A    between atoms: N7_40  and  C25_41
DOCKED: REMARK   29  A    between atoms: C25_41  and  C26_42
DOCKED: REMARK   30  A    between atoms: C25_41  and  C27_43
DOCKED: REMARK   31  A    between atoms: N8_45  and  C28_46
DOCKED: REMARK   32  A    between atoms: C28_46  and  C29_47
DOCKED: REMARK   33  A    between atoms: C28_46  and  C32_52
DOCKED: REMARK   34  A    between atoms: C29_47  and  C30_48
DOCKED: REMARK   35  A    between atoms: C30_48  and  C31_49
DOCKED: REMARK   36  A    between atoms: C31_49  and  O12_51
DOCKED: REMARK   37  A    between atoms: N9_54  and  C33_55
DOCKED: REMARK   38  A    between atoms: C33_55  and  C34_56
DOCKED: REMARK   39  A    between atoms: C33_55  and  C41_63
DOCKED: REMARK   40  A    between atoms: C34_56  and  C35_57
DOCKED: REMARK   41  A    between atoms: C41_63  and  O15_65
DOCKED: REMARK   42  A    between atoms: C42_66  and  C43_67
DOCKED: REMARK   43  A    between atoms: C42_66  and  C44_68
DOCKED: REMARK                            x       y       z     vdW  Elec       q    Type
DOCKED: REMARK                         _______ _______ _______ _____ _____    ______ ____
DOCKED: USER                              x       y       z     vdW  Elec       q    Type
DOCKED: USER                           _______ _______ _______ _____ _____    ______ ____
DOCKED: ROOT
DOCKED: ATOM      1  C21 UNL     1      14.181  -3.979  -7.323 +0.00 +0.00    +0.129 C  
DOCKED: ENDROOT
DOCKED: BRANCH   1   2
DOCKED: ATOM      2  C22 UNL     1      13.224  -4.524  -6.281 +0.00 +0.00    +0.216 C  
DOCKED: ATOM      3  O8  UNL     1      13.592  -4.927  -5.180 +0.00 -0.00    -0.276 OA 
DOCKED: ATOM      4  N6  UNL     1      11.903  -4.472  -6.667 +0.00 -0.00    -0.304 N  
DOCKED: ATOM      5  H39 UNL     1      11.729  -4.423  -7.666 +0.00 +0.00    +0.149 HD 
DOCKED: BRANCH   4   6
DOCKED: ATOM      6  C23 UNL     1      10.882  -5.205  -5.913 +0.00 +0.00    +0.161 C  
DOCKED: BRANCH   6   7
DOCKED: ATOM      7  C24 UNL     1      11.268  -6.696  -6.058 +0.00 +0.00    +0.234 C  
DOCKED: ATOM      8  O9  UNL     1      12.087  -7.239  -5.314 +0.00 -0.00    -0.274 OA 
DOCKED: ATOM      9  N7  UNL     1      10.653  -7.353  -7.092 +0.00 -0.00    -0.303 N  
DOCKED: ATOM     10  H41 UNL     1       9.988  -6.869  -7.689 +0.00 +0.00    +0.149 HD 
DOCKED: BRANCH   9  11
DOCKED: ATOM     11  C25 UNL     1      10.881  -8.761  -7.389 +0.00 +0.00    +0.156 C  
DOCKED: ATOM     12  C26 UNL     1      12.267  -8.971  -7.986 +0.00 +0.00    +0.038 C  
DOCKED: BRANCH  11  13
DOCKED: ATOM     13  C27 UNL     1      10.719  -9.541  -6.067 +0.00 +0.00    +0.234 C  
DOCKED: ATOM     14  O10 UNL     1       9.614  -9.895  -5.649 +0.00 -0.00    -0.274 OA 
DOCKED: ATOM     15  N8  UNL     1      11.899  -9.831  -5.409 +0.00 -0.00    -0.302 N  
DOCKED: ATOM     16  H46 UNL     1      12.707  -9.263  -5.642 +0.00 +0.00    +0.150 HD 
DOCKED: BRANCH  15  17
DOCKED: ATOM     17  C28 UNL     1      11.877 -10.337  -4.041 +0.00 +0.00    +0.159 C  
DOCKED: BRANCH  17  18
DOCKED: ATOM     18  C32 UNL     1      11.092  -9.337  -3.163 +0.00 +0.00    +0.234 C  
DOCKED: ATOM     19  O13 UNL     1       9.987  -9.610  -2.697 +0.00 -0.00    -0.274 OA 
DOCKED: ATOM     20  N9  UNL     1      11.703  -8.117  -3.003 +0.00 -0.00    -0.301 N  
DOCKED: ATOM     21  H53 UNL     1      12.533  -7.910  -3.544 +0.00 +0.00    +0.150 HD 
DOCKED: BRANCH  20  22
DOCKED: ATOM     22  C33 UNL     1      10.980  -6.962  -2.455 +0.00 +0.00    +0.186 C  
DOCKED: BRANCH  22  23
DOCKED: ATOM     23  C41 UNL     1      11.829  -5.742  -2.789 +0.00 +0.00    +0.326 C  
DOCKED: ATOM     24  O14 UNL     1      11.431  -4.587  -2.803 +0.00 -0.00    -0.249 OA 
DOCKED: BRANCH  23  25
DOCKED: ATOM     25  O15 UNL     1      13.099  -6.042  -3.125 +0.00 -0.00    -0.479 OA 
DOCKED: ATOM     26  H62 UNL     1      13.004  -6.603  -3.923 +0.00 +0.00    +0.295 HD 
DOCKED: ENDBRANCH  23  25
DOCKED: ENDBRANCH  22  23
DOCKED: BRANCH  22  27
DOCKED: ATOM     27  C34 UNL     1      10.827  -7.039  -0.931 +0.00 +0.00    +0.069 C  
DOCKED: BRANCH  27  28
DOCKED: ATOM     28  C35 UNL     1      12.123  -6.831  -0.185 +0.00 -0.00    -0.045 A  
DOCKED: ATOM     29  C36 UNL     1      12.267  -5.762   0.711 +0.00 +0.00    +0.004 A  
DOCKED: ATOM     30  C37 UNL     1      13.466  -5.575   1.401 +0.00 +0.00    +0.000 A  
DOCKED: ATOM     31  C38 UNL     1      14.533  -6.449   1.201 +0.00 +0.00    +0.000 A  
DOCKED: ATOM     32  C39 UNL     1      14.401  -7.515   0.314 +0.00 +0.00    +0.000 A  
DOCKED: ATOM     33  C40 UNL     1      13.203  -7.705  -0.377 +0.00 +0.00    +0.004 A  
DOCKED: ENDBRANCH  27  28
DOCKED: ENDBRANCH  22  27
DOCKED: ENDBRANCH  20  22
DOCKED: ENDBRANCH  17  18
DOCKED: BRANCH  17  34
DOCKED: ATOM     34  C29 UNL     1      13.290 -10.611  -3.494 +0.00 +0.00    +0.043 C  
DOCKED: BRANCH  34  35
DOCKED: ATOM     35  C30 UNL     1      14.448  -9.952  -4.247 +0.00 +0.00    +0.123 C  
DOCKED: BRANCH  35  36
DOCKED: ATOM     36  C31 UNL     1      14.505  -8.470  -4.016 +0.00 +0.00    +0.305 C  
DOCKED: ATOM     37  O11 UNL     1      14.618  -7.918  -2.936 +0.00 -0.00    -0.251 OA 
DOCKED: BRANCH  36  38
DOCKED: ATOM     38  O12 UNL     1      14.350  -7.773  -5.156 +0.00 -0.00    -0.481 OA 
DOCKED: ATOM     39  H52 UNL     1      14.171  -6.857  -4.859 +0.00 +0.00    +0.295 HD 
DOCKED: ENDBRANCH  36  38
DOCKED: ENDBRANCH  35  36
DOCKED: ENDBRANCH  34  35
DOCKED: ENDBRANCH  17  34
DOCKED: ENDBRANCH  15  17
DOCKED: ENDBRANCH  11  13
DOCKED: ENDBRANCH   9  11
DOCKED: ENDBRANCH   6   7
DOCKED: BRANCH   6  40
DOCKED: ATOM     40  C42 UNL     1       9.475  -4.906  -6.478 +0.00 +0.00    +0.012 C  
DOCKED: ATOM     41  C43 UNL     1       9.237  -3.391  -6.558 +0.00 +0.00    +0.009 C  
DOCKED: ATOM     42  C44 UNL     1       8.355  -5.551  -5.663 +0.00 +0.00    +0.009 C  
DOCKED: ENDBRANCH   6  40
DOCKED: ENDBRANCH   4   6
DOCKED: ENDBRANCH   1   2
DOCKED: BRANCH   1  43
DOCKED: ATOM     43  C20 UNL     1      14.611  -5.089  -8.282 +0.00 +0.00    +0.143 C  
DOCKED: BRANCH  43  44
DOCKED: ATOM     44  O7  UNL     1      14.240  -6.360  -7.751 +0.00 -0.00    -0.389 OA 
DOCKED: ATOM     45  H36 UNL     1      14.332  -6.280  -6.778 +0.00 +0.00    +0.210 HD 
DOCKED: ENDBRANCH  43  44
DOCKED: BRANCH  43  46
DOCKED: ATOM     46  C5  UNL     1      16.132  -5.060  -8.613 +0.00 +0.00    +0.102 C  
DOCKED: BRANCH  46  47
DOCKED: ATOM     47  N1  UNL     1      16.957  -4.724  -7.428 +0.00 -0.00    -0.308 N  
DOCKED: ATOM     48  C6  UNL     1      16.674  -5.087  -6.130 +0.00 +0.00    +0.234 C  
DOCKED: ATOM     49  O1  UNL     1      15.795  -5.890  -5.834 +0.00 -0.00    -0.274 OA 
DOCKED: ATOM     50  H11 UNL     1      17.671  -4.006  -7.569 +0.00 +0.00    +0.149 HD 
DOCKED: BRANCH  48  51
DOCKED: ATOM     51  C7  UNL     1      17.552  -4.404  -5.043 +0.00 +0.00    +0.168 C  
DOCKED: BRANCH  51  52
DOCKED: ATOM     52  N3  UNL     1      16.898  -3.146  -4.664 +0.00 -0.00    -0.302 N  
DOCKED: ATOM     53  C10 UNL     1      16.713  -2.131  -5.578 +0.00 +0.00    +0.234 C  
DOCKED: ATOM     54  O3  UNL     1      17.235  -2.144  -6.696 +0.00 -0.00    -0.274 OA 
DOCKED: ATOM     55  H17 UNL     1      16.221  -3.218  -3.911 +0.00 +0.00    +0.150 HD 
DOCKED: BRANCH  53  56
DOCKED: ATOM     56  C11 UNL     1      15.821  -0.957  -5.097 +0.00 +0.00    +0.161 C  
DOCKED: BRANCH  56  57
DOCKED: ATOM     57  N4  UNL     1      14.548  -1.523  -4.633 +0.00 -0.00    -0.302 N  
DOCKED: ATOM     58  C12 UNL     1      13.493  -0.705  -4.296 +0.00 +0.00    +0.230 C  
DOCKED: ATOM     59  O4  UNL     1      13.573   0.526  -4.258 +0.00 -0.00    -0.274 OA 
DOCKED: ATOM     60  H19 UNL     1      14.325  -2.448  -4.990 +0.00 +0.00    +0.150 HD 
DOCKED: BRANCH  58  61
DOCKED: ATOM     61  C13 UNL     1      12.196  -1.447  -3.891 +0.00 +0.00    +0.138 C  
DOCKED: BRANCH  61  62
DOCKED: ATOM     62  N5  UNL     1      12.239  -2.808  -4.478 +0.00 -0.00    -0.320 NA 
DOCKED: ATOM     63  H21 UNL     1      12.247  -3.470  -3.696 +0.00 +0.00    +0.119 HD 
DOCKED: ATOM     64  H22 UNL     1      13.154  -2.936  -4.915 +0.00 +0.00    +0.119 HD 
DOCKED: ENDBRANCH  61  62
DOCKED: BRANCH  61  65
DOCKED: ATOM     65  C14 UNL     1      12.058  -1.579  -2.368 +0.00 +0.00    +0.039 C  
DOCKED: BRANCH  65  66
DOCKED: ATOM     66  C15 UNL     1      13.377  -1.787  -1.627 +0.00 +0.00    +0.122 C  
DOCKED: BRANCH  66  67
DOCKED: ATOM     67  C16 UNL     1      13.943  -3.167  -1.807 +0.00 +0.00    +0.305 C  
DOCKED: ATOM     68  O5  UNL     1      14.184  -3.958  -0.907 +0.00 -0.00    -0.251 OA 
DOCKED: BRANCH  67  69
DOCKED: ATOM     69  O6  UNL     1      14.188  -3.488  -3.092 +0.00 -0.00    -0.481 OA 
DOCKED: ATOM     70  H27 UNL     1      13.494  -4.136  -3.328 +0.00 +0.00    +0.295 HD 
DOCKED: ENDBRANCH  67  69
DOCKED: ENDBRANCH  66  67
DOCKED: ENDBRANCH  65  66
DOCKED: ENDBRANCH  61  65
DOCKED: ENDBRANCH  58  61
DOCKED: ENDBRANCH  56  57
DOCKED: BRANCH  56  71
DOCKED: ATOM     71  C17 UNL     1      16.437  -0.087  -3.978 +0.00 +0.00    +0.012 C  
DOCKED: ATOM     72  C18 UNL     1      17.806   0.482  -4.361 +0.00 +0.00    +0.009 C  
DOCKED: ATOM     73  C19 UNL     1      16.518  -0.793  -2.624 +0.00 +0.00    +0.009 C  
DOCKED: ENDBRANCH  56  71
DOCKED: ENDBRANCH  53  56
DOCKED: ENDBRANCH  51  52
DOCKED: BRANCH  51  74
DOCKED: ATOM     74  C8  UNL     1      17.727  -5.279  -3.805 +0.00 +0.00    +0.127 C  
DOCKED: BRANCH  74  75
DOCKED: ATOM     75  C9  UNL     1      16.600  -4.975  -2.856 +0.00 +0.00    +0.213 C  
DOCKED: ATOM     76  N2  UNL     1      15.418  -5.610  -3.094 +0.00 -0.00    -0.329 N  
DOCKED: ATOM     77  O2  UNL     1      16.703  -4.139  -1.963 +0.00 -0.00    -0.276 OA 
DOCKED: ATOM     78  H15 UNL     1      14.623  -5.347  -2.523 +0.00 +0.00    +0.145 HD 
DOCKED: ATOM     79  H16 UNL     1      15.243  -6.160  -3.925 +0.00 +0.00    +0.145 HD 
DOCKED: ENDBRANCH  74  75
DOCKED: ENDBRANCH  51  74
DOCKED: ENDBRANCH  48  51
DOCKED: ENDBRANCH  46  47
DOCKED: BRANCH  46  80
DOCKED: ATOM     80  C4  UNL     1      16.715  -6.369  -9.218 +0.00 +0.00    +0.028 C  
DOCKED: BRANCH  80  82
DOCKED: ATOM     81  C1  UNL     1      18.327  -8.127  -8.240 +0.00 +0.00    +0.007 C  
DOCKED: ATOM     82  C2  UNL     1      16.886  -7.638  -8.356 +0.00 -0.00    -0.015 C  
DOCKED: ATOM     83  C3  UNL     1      15.930  -8.770  -8.726 +0.00 +0.00    +0.007 C  
DOCKED: ENDBRANCH  80  82
DOCKED: ENDBRANCH  46  80
DOCKED: ENDBRANCH  43  46
DOCKED: ENDBRANCH   1  43
DOCKED: TORSDOF 36
DOCKED: TER
DOCKED: ENDMDL
________________________________________________________________________________


    FINAL DOCKED STATE:
    ________________________


Run:   20 / 20
Time taken for this run:   7.478s

DOCKED: MODEL        20
DOCKED: USER    Run = 20
DOCKED: USER
DOCKED: USER    Estimated Free Energy of Binding    = +10.74 kcal/mol  [=(1)+(2)+(3)-(4)]
DOCKED: USER
DOCKED: USER    (1) Final Intermolecular Energy     =  +0.00 kcal/mol
DOCKED: USER        vdW + Hbond + desolv Energy     =  +0.00 kcal/mol
DOCKED: USER        Electrostatic Energy            =  +0.00 kcal/mol
DOCKED: USER        Moving Ligand-Fixed Receptor    =  +0.00 kcal/mol
DOCKED: USER        Moving Ligand-Moving Receptor   =  +0.00 kcal/mol
DOCKED: USER    (2) Final Total Internal Energy     = -31.80 kcal/mol
DOCKED: USER    (3) Torsional Free Energy           = +10.74 kcal/mol
DOCKED: USER    (4) Unbound System's Energy         = -31.80 kcal/mol
DOCKED: USER
DOCKED: USER
DOCKED: REMARK  Name = ligands/ligand_10.pdb
DOCKED: REMARK  43 active torsions:
DOCKED: REMARK  status: ('A' for Active; 'I' for Inactive)
DOCKED: REMARK    1  A    between atoms: C1_1  and  C2_2
DOCKED: REMARK    2  A    between atoms: C2_2  and  C3_3
DOCKED: REMARK    3  A    between atoms: C2_2  and  C4_4
DOCKED: REMARK    4  A    between atoms: C4_4  and  C5_5
DOCKED: REMARK    5  A    between atoms: C5_5  and  N1_6
DOCKED: REMARK    6  A    between atoms: C5_5  and  C20_31
DOCKED: REMARK    7  A    between atoms: C6_7  and  C7_9
DOCKED: REMARK    8  A    between atoms: C7_9  and  C8_10
DOCKED: REMARK    9  A    between atoms: C7_9  and  N3_14
DOCKED: REMARK   10  A    between atoms: C8_10  and  C9_11
DOCKED: REMARK   11  A    between atoms: C10_15  and  C11_17
DOCKED: REMARK   12  A    between atoms: C11_17  and  N4_18
DOCKED: REMARK   13  A    between atoms: C11_17  and  C17_28
DOCKED: REMARK   14  A    between atoms: C12_19  and  C13_21
DOCKED: REMARK   15  A    between atoms: C13_21  and  N5_22
DOCKED: REMARK   16  A    between atoms: C13_21  and  C14_23
DOCKED: REMARK   17  A    between atoms: C14_23  and  C15_24
DOCKED: REMARK   18  A    between atoms: C15_24  and  C16_25
DOCKED: REMARK   19  A    between atoms: C16_25  and  O6_27
DOCKED: REMARK   20  A    between atoms: C17_28  and  C18_29
DOCKED: REMARK   21  A    between atoms: C17_28  and  C19_30
DOCKED: REMARK   22  A    between atoms: C20_31  and  O7_32
DOCKED: REMARK   23  A    between atoms: C20_31  and  C21_33
DOCKED: REMARK   24  A    between atoms: C21_33  and  C22_34
DOCKED: REMARK   25  A    between atoms: N6_36  and  C23_37
DOCKED: REMARK   26  A    between atoms: C23_37  and  C24_38
DOCKED: REMARK   27  A    between atoms: C23_37  and  C42_66
DOCKED: REMARK   28  A    between atoms: N7_40  and  C25_41
DOCKED: REMARK   29  A    between atoms: C25_41  and  C26_42
DOCKED: REMARK   30  A    between atoms: C25_41  and  C27_43
DOCKED: REMARK   31  A    between atoms: N8_45  and  C28_46
DOCKED: REMARK   32  A    between atoms: C28_46  and  C29_47
DOCKED: REMARK   33  A    between atoms: C28_46  and  C32_52
DOCKED: REMARK   34  A    between atoms: C29_47  and  C30_48
DOCKED: REMARK   35  A    between atoms: C30_48  and  C31_49
DOCKED: REMARK   36  A    between atoms: C31_49  and  O12_51
DOCKED: REMARK   37  A    between atoms: N9_54  and  C33_55
DOCKED: REMARK   38  A    between atoms: C33_55  and  C34_56
DOCKED: REMARK   39  A    between atoms: C33_55  and  C41_63
DOCKED: REMARK   40  A    between atoms: C34_56  and  C35_57
DOCKED: REMARK   41  A    between atoms: C41_63  and  O15_65
DOCKED: REMARK   42  A    between atoms: C42_66  and  C43_67
DOCKED: REMARK   43  A    between atoms: C42_66  and  C44_68
DOCKED: REMARK                            x       y       z     vdW  Elec       q    Type
DOCKED: REMARK                         _______ _______ _______ _____ _____    ______ ____
DOCKED: USER                              x       y       z     vdW  Elec       q    Type
DOCKED: USER                           _______ _______ _______ _____ _____    ______ ____
DOCKED: ROOT
DOCKED: ATOM      1  C21 UNL     1      19.462  -9.592  -3.316 +0.00 +0.00    +0.129 C  
DOCKED: ENDROOT
DOCKED: BRANCH   1   2
DOCKED: ATOM      2  C22 UNL     1      19.512  -8.217  -3.954 +0.00 +0.00    +0.216 C  
DOCKED: ATOM      3  O8  UNL     1      19.826  -7.204  -3.335 +0.00 -0.00    -0.276 OA 
DOCKED: ATOM      4  N6  UNL     1      19.228  -8.226  -5.302 +0.00 -0.00    -0.304 N  
DOCKED: ATOM      5  H39 UNL     1      18.697  -9.020  -5.644 +0.00 +0.00    +0.149 HD 
DOCKED: BRANCH   4   6
DOCKED: ATOM      6  C23 UNL     1      18.958  -6.971  -6.009 +0.00 +0.00    +0.161 C  
DOCKED: BRANCH   6   7
DOCKED: ATOM      7  C24 UNL     1      17.820  -7.306  -7.003 +0.00 +0.00    +0.234 C  
DOCKED: ATOM      8  O9  UNL     1      16.685  -7.604  -6.626 +0.00 -0.00    -0.274 OA 
DOCKED: ATOM      9  N7  UNL     1      18.181  -7.276  -8.325 +0.00 -0.00    -0.303 N  
DOCKED: ATOM     10  H41 UNL     1      19.130  -7.033  -8.596 +0.00 +0.00    +0.149 HD 
DOCKED: BRANCH   9  11
DOCKED: ATOM     11  C25 UNL     1      17.252  -7.558  -9.411 +0.00 +0.00    +0.156 C  
DOCKED: ATOM     12  C26 UNL     1      17.883  -7.244 -10.760 +0.00 +0.00    +0.038 C  
DOCKED: BRANCH  11  13
DOCKED: ATOM     13  C27 UNL     1      16.864  -9.048  -9.309 +0.00 +0.00    +0.234 C  
DOCKED: ATOM     14  O10 UNL     1      17.319  -9.896 -10.081 +0.00 -0.00    -0.274 OA 
DOCKED: ATOM     15  N8  UNL     1      15.997  -9.359  -8.279 +0.00 -0.00    -0.302 N  
DOCKED: ATOM     16  H46 UNL     1      15.445  -8.598  -7.897 +0.00 +0.00    +0.150 HD 
DOCKED: BRANCH  15  17
DOCKED: ATOM     17  C28 UNL     1      15.358 -10.669  -8.221 +0.00 +0.00    +0.159 C  
DOCKED: BRANCH  17  18
DOCKED: ATOM     18  C32 UNL     1      14.069 -10.623  -9.071 +0.00 +0.00    +0.234 C  
DOCKED: ATOM     19  O13 UNL     1      13.803 -11.494  -9.897 +0.00 -0.00    -0.274 OA 
DOCKED: ATOM     20  N9  UNL     1      13.290  -9.510  -8.865 +0.00 -0.00    -0.301 N  
DOCKED: ATOM     21  H53 UNL     1      13.650  -8.760  -8.288 +0.00 +0.00    +0.150 HD 
DOCKED: BRANCH  20  22
DOCKED: ATOM     22  C33 UNL     1      12.198  -9.157  -9.781 +0.00 +0.00    +0.186 C  
DOCKED: BRANCH  22  23
DOCKED: ATOM     23  C41 UNL     1      11.781  -7.740  -9.406 +0.00 +0.00    +0.326 C  
DOCKED: ATOM     24  O14 UNL     1      11.491  -6.856 -10.198 +0.00 -0.00    -0.249 OA 
DOCKED: BRANCH  23  25
DOCKED: ATOM     25  O15 UNL     1      11.794  -7.505  -8.079 +0.00 -0.00    -0.479 OA 
DOCKED: ATOM     26  H62 UNL     1      12.718  -7.697  -7.816 +0.00 +0.00    +0.295 HD 
DOCKED: ENDBRANCH  23  25
DOCKED: ENDBRANCH  22  23
DOCKED: BRANCH  22  27
DOCKED: ATOM     27  C34 UNL     1      10.982 -10.076  -9.619 +0.00 +0.00    +0.069 C  
DOCKED: BRANCH  27  28
DOCKED: ATOM     28  C35 UNL     1      10.886 -10.714  -8.254 +0.00 -0.00    -0.045 A  
DOCKED: ATOM     29  C36 UNL     1      11.188 -12.071  -8.077 +0.00 +0.00    +0.004 A  
DOCKED: ATOM     30  C37 UNL     1      11.100 -12.656  -6.812 +0.00 +0.00    +0.000 A  
DOCKED: ATOM     31  C38 UNL     1      10.708 -11.893  -5.714 +0.00 +0.00    +0.000 A  
DOCKED: ATOM     32  C39 UNL     1      10.407 -10.543  -5.877 +0.00 +0.00    +0.000 A  
DOCKED: ATOM     33  C40 UNL     1      10.493  -9.955  -7.141 +0.00 +0.00    +0.004 A  
DOCKED: ENDBRANCH  27  28
DOCKED: ENDBRANCH  22  27
DOCKED: ENDBRANCH  20  22
DOCKED: ENDBRANCH  17  18
DOCKED: BRANCH  17  34
DOCKED: ATOM     34  C29 UNL     1      15.090 -11.128  -6.776 +0.00 +0.00    +0.043 C  
DOCKED: BRANCH  34  35
DOCKED: ATOM     35  C30 UNL     1      13.900 -10.476  -6.068 +0.00 +0.00    +0.123 C  
DOCKED: BRANCH  35  36
DOCKED: ATOM     36  C31 UNL     1      14.140  -9.024  -5.774 +0.00 +0.00    +0.305 C  
DOCKED: ATOM     37  O11 UNL     1      13.840  -8.088  -6.495 +0.00 -0.00    -0.251 OA 
DOCKED: BRANCH  36  38
DOCKED: ATOM     38  O12 UNL     1      14.803  -8.843  -4.618 +0.00 -0.00    -0.481 OA 
DOCKED: ATOM     39  H52 UNL     1      15.670  -8.474  -4.889 +0.00 +0.00    +0.295 HD 
DOCKED: ENDBRANCH  36  38
DOCKED: ENDBRANCH  35  36
DOCKED: ENDBRANCH  34  35
DOCKED: ENDBRANCH  17  34
DOCKED: ENDBRANCH  15  17
DOCKED: ENDBRANCH  11  13
DOCKED: ENDBRANCH   9  11
DOCKED: ENDBRANCH   6   7
DOCKED: BRANCH   6  40
DOCKED: ATOM     40  C42 UNL     1      20.232  -6.469  -6.726 +0.00 +0.00    +0.012 C  
DOCKED: ATOM     41  C43 UNL     1      21.227  -7.621  -6.925 +0.00 +0.00    +0.009 C  
DOCKED: ATOM     42  C44 UNL     1      20.923  -5.327  -5.983 +0.00 +0.00    +0.009 C  
DOCKED: ENDBRANCH   6  40
DOCKED: ENDBRANCH   4   6
DOCKED: ENDBRANCH   1   2
DOCKED: BRANCH   1  43
DOCKED: ATOM     43  C20 UNL     1      18.014 -10.062  -3.182 +0.00 +0.00    +0.143 C  
DOCKED: BRANCH  43  44
DOCKED: ATOM     44  O7  UNL     1      17.268  -9.670  -4.333 +0.00 -0.00    -0.389 OA 
DOCKED: ATOM     45  H36 UNL     1      16.931  -8.770  -4.140 +0.00 +0.00    +0.210 HD 
DOCKED: ENDBRANCH  43  44
DOCKED: BRANCH  43  46
DOCKED: ATOM     46  C5  UNL     1      17.320  -9.553  -1.885 +0.00 +0.00    +0.102 C  
DOCKED: BRANCH  46  47
DOCKED: ATOM     47  N1  UNL     1      16.489  -8.349  -2.129 +0.00 -0.00    -0.308 N  
DOCKED: ATOM     48  C6  UNL     1      16.609  -7.150  -1.462 +0.00 +0.00    +0.234 C  
DOCKED: ATOM     49  O1  UNL     1      17.546  -6.888  -0.715 +0.00 -0.00    -0.274 OA 
DOCKED: ATOM     50  H11 UNL     1      15.644  -8.493  -2.686 +0.00 +0.00    +0.149 HD 
DOCKED: BRANCH  48  51
DOCKED: ATOM     51  C7  UNL     1      15.464  -6.129  -1.721 +0.00 +0.00    +0.168 C  
DOCKED: BRANCH  51  52
DOCKED: ATOM     52  N3  UNL     1      15.864  -5.285  -2.853 +0.00 -0.00    -0.302 N  
DOCKED: ATOM     53  C10 UNL     1      16.101  -5.824  -4.099 +0.00 +0.00    +0.234 C  
DOCKED: ATOM     54  O3  UNL     1      16.168  -7.041  -4.292 +0.00 -0.00    -0.274 OA 
DOCKED: ATOM     55  H17 UNL     1      15.530  -4.327  -2.820 +0.00 +0.00    +0.150 HD 
DOCKED: BRANCH  53  56
DOCKED: ATOM     56  C11 UNL     1      16.303  -4.795  -5.241 +0.00 +0.00    +0.161 C  
DOCKED: BRANCH  56  57
DOCKED: ATOM     57  N4  UNL     1      15.529  -5.255  -6.401 +0.00 -0.00    -0.302 N  
DOCKED: ATOM     58  C12 UNL     1      15.821  -4.805  -7.669 +0.00 +0.00    +0.230 C  
DOCKED: ATOM     59  O4  UNL     1      16.658  -3.929  -7.903 +0.00 -0.00    -0.274 OA 
DOCKED: ATOM     60  H19 UNL     1      15.127  -6.185  -6.317 +0.00 +0.00    +0.150 HD 
DOCKED: BRANCH  58  61
DOCKED: ATOM     61  C13 UNL     1      14.964  -5.431  -8.797 +0.00 +0.00    +0.138 C  
DOCKED: BRANCH  61  62
DOCKED: ATOM     62  N5  UNL     1      14.604  -6.811  -8.393 +0.00 -0.00    -0.320 NA 
DOCKED: ATOM     63  H21 UNL     1      13.584  -6.882  -8.444 +0.00 +0.00    +0.119 HD 
DOCKED: ATOM     64  H22 UNL     1      14.806  -6.912  -7.396 +0.00 +0.00    +0.119 HD 
DOCKED: ENDBRANCH  61  62
DOCKED: BRANCH  61  65
DOCKED: ATOM     65  C14 UNL     1      13.669  -4.643  -9.041 +0.00 +0.00    +0.039 C  
DOCKED: BRANCH  65  66
DOCKED: ATOM     66  C15 UNL     1      13.194  -3.816  -7.848 +0.00 +0.00    +0.122 C  
DOCKED: BRANCH  66  67
DOCKED: ATOM     67  C16 UNL     1      12.517  -4.639  -6.791 +0.00 +0.00    +0.305 C  
DOCKED: ATOM     68  O5  UNL     1      11.564  -4.282  -6.114 +0.00 -0.00    -0.251 OA 
DOCKED: BRANCH  67  69
DOCKED: ATOM     69  O6  UNL     1      13.063  -5.859  -6.623 +0.00 -0.00    -0.481 OA 
DOCKED: ATOM     70  H27 UNL     1      12.735  -6.390  -7.377 +0.00 +0.00    +0.295 HD 
DOCKED: ENDBRANCH  67  69
DOCKED: ENDBRANCH  66  67
DOCKED: ENDBRANCH  65  66
DOCKED: ENDBRANCH  61  65
DOCKED: ENDBRANCH  58  61
DOCKED: ENDBRANCH  56  57
DOCKED: BRANCH  56  71
DOCKED: ATOM     71  C17 UNL     1      15.897  -3.345  -4.892 +0.00 +0.00    +0.012 C  
DOCKED: ATOM     72  C18 UNL     1      16.815  -2.713  -3.842 +0.00 +0.00    +0.009 C  
DOCKED: ATOM     73  C19 UNL     1      14.434  -3.201  -4.470 +0.00 +0.00    +0.009 C  
DOCKED: ENDBRANCH  56  71
DOCKED: ENDBRANCH  53  56
DOCKED: ENDBRANCH  51  52
DOCKED: BRANCH  51  74
DOCKED: ATOM     74  C8  UNL     1      14.138  -6.813  -2.041 +0.00 +0.00    +0.127 C  
DOCKED: BRANCH  74  75
DOCKED: ATOM     75  C9  UNL     1      13.330  -5.883  -2.904 +0.00 +0.00    +0.213 C  
DOCKED: ATOM     76  N2  UNL     1      13.276  -6.182  -4.233 +0.00 -0.00    -0.329 N  
DOCKED: ATOM     77  O2  UNL     1      12.813  -4.861  -2.462 +0.00 -0.00    -0.276 OA 
DOCKED: ATOM     78  H15 UNL     1      12.815  -5.517  -4.843 +0.00 +0.00    +0.145 HD 
DOCKED: ATOM     79  H16 UNL     1      13.839  -6.906  -4.661 +0.00 +0.00    +0.145 HD 
DOCKED: ENDBRANCH  74  75
DOCKED: ENDBRANCH  51  74
DOCKED: ENDBRANCH  48  51
DOCKED: ENDBRANCH  46  47
DOCKED: BRANCH  46  80
DOCKED: ATOM     80  C4  UNL     1      16.420 -10.586  -1.151 +0.00 +0.00    +0.028 C  
DOCKED: BRANCH  80  82
DOCKED: ATOM     81  C1  UNL     1      15.346 -11.782  -3.167 +0.00 +0.00    +0.007 C  
DOCKED: ATOM     82  C2  UNL     1      15.130 -11.127  -1.807 +0.00 -0.00    -0.015 C  
DOCKED: ATOM     83  C3  UNL     1      13.982 -10.120  -1.836 +0.00 +0.00    +0.007 C  
DOCKED: ENDBRANCH  80  82
DOCKED: ENDBRANCH  46  80
DOCKED: ENDBRANCH  43  46
DOCKED: ENDBRANCH   1  43
DOCKED: TORSDOF 36
DOCKED: TER
DOCKED: ENDMDL
________________________________________________________________________________


    CLUSTERING HISTOGRAM
    ____________________


________________________________________________________________________________
     |           |     |           |     |
Clus | Lowest    | Run | Mean      | Num | Histogram
-ter | Binding   |     | Binding   | in  |
Rank | Energy    |     | Energy    | Clus|    5    10   15   20   25   30   35
_____|___________|_____|___________|_____|____:____|____:____|____:____|____:___
   1 |    +10.74 |   1 |    +10.74 |   1 |#
   2 |    +10.74 |   2 |    +10.74 |   1 |#
   3 |    +10.74 |   3 |    +10.74 |   1 |#
   4 |    +10.74 |   4 |    +10.74 |   1 |#
   5 |    +10.74 |   5 |    +10.74 |   1 |#
   6 |    +10.74 |   6 |    +10.74 |   1 |#
   7 |    +10.74 |   7 |    +10.74 |   1 |#
   8 |    +10.74 |   8 |    +10.74 |   1 |#
   9 |    +10.74 |   9 |    +10.74 |   1 |#
  10 |    +10.74 |  10 |    +10.74 |   1 |#
  11 |    +10.74 |  11 |    +10.74 |   1 |#
  12 |    +10.74 |  12 |    +10.74 |   1 |#
  13 |    +10.74 |  13 |    +10.74 |   1 |#
  14 |    +10.74 |  14 |    +10.74 |   1 |#
  15 |    +10.74 |  15 |    +10.74 |   1 |#
  16 |    +10.74 |  16 |    +10.74 |   1 |#
  17 |    +10.74 |  17 |    +10.74 |   1 |#
  18 |    +10.74 |  18 |    +10.74 |   1 |#
  19 |    +10.74 |  19 |    +10.74 |   1 |#
  20 |    +10.74 |  20 |    +10.74 |   1 |#
_____|___________|_____|___________|_____|______________________________________


    RMSD TABLE
    __________


_______________________________________________________________________
     |      |      |           |         |                 |
Rank | Sub- | Run  | Binding   | Cluster | Reference       | Grep
     | Rank |      | Energy    | RMSD    | RMSD            | Pattern
_____|______|______|___________|_________|_________________|___________
   1      1      1      +10.74      0.00      7.78           RANKING
   2      1      2      +10.74      0.00      7.20           RANKING
   3      1      3      +10.74      0.00      9.08           RANKING
   4      1      4      +10.74      0.00      9.95           RANKING
   5      1      5      +10.74      0.00      6.96           RANKING
   6      1      6      +10.74      0.00      7.42           RANKING
   7      1      7      +10.74      0.00     10.91           RANKING
   8      1      8      +10.74      0.00      5.58           RANKING
   9      1      9      +10.74      0.00      6.57           RANKING
  10      1     10      +10.74      0.00     13.04           RANKING
  11      1     11      +10.74      0.00      8.26           RANKING
  12      1     12      +10.74      0.00      9.47           RANKING
  13      1     13      +10.74      0.00      8.36           RANKING
  14      1     14      +10.74      0.00      7.40           RANKING
  15      1     15      +10.74      0.00      6.95           RANKING
  16      1     16      +10.74      0.00      8.23           RANKING
  17      1     17      +10.74      0.00      6.02           RANKING
  18      1     18      +10.74      0.00     10.35           RANKING
  19      1     19      +10.74      0.00     11.02           RANKING
  20      1     20      +10.74      0.00     13.49           RANKING

Run time 150.581 sec
Idle time 0.282 sec
