AutoDock-GPU version: v1.6

**********************************************************
**    AutoDock-GPU AUTODOCKTOOLS-COMPATIBLE DLG FILE    **
**********************************************************


    DOCKING PARAMETERS
    ________________________


Ligand file:                               ligands/ligand_2.pdbqt
Grid fld file:                             protein.maps.fld

Random seed:                               1770972684, 28033
Number of runs:                            20
Number of energy evaluations:              8735288
Number of generations:                     42000
Size of population:                        150
Rate of crossover:                         80.000000%
Tournament selection probability limit:    60.000000%
Rate of mutation:                          2.000000%
Maximal allowed delta movement:            +/- 6.000000A
Maximal allowed delta angle:               +/- 90.000000

Rate of local search:                      100.000000%
Maximal number of local search iterations: 300
Rho lower bound:                           0.010000
Spread of local search delta movement:     2.000000A
Spread of local search delta angle:        74.999999
Limit of consecutive successes/failures:   4

Handle symmetry during clustering:         YES
RMSD tolerance:                            2.000000A

Program call in command line was:          ./autodock-gpu --ffile protein.maps.fld --lfile ligands/ligand_2.pdbqt --nrun 20 


    GRID PARAMETERS
    ________________________


Receptor name:                             #MACROMOLECULE
Number of grid points (x, y, z):           61, 61, 61
Grid center (x, y, z):                     10.261000, -3.492000, -0.127000A
Grid size (x, y, z):                       22.500000, 22.500000, 22.500000A
Grid spacing:                              0.375000A


    LIGAND PARAMETERS
    ________________________


Ligand name:                               ligands/ligand_2
Number of atoms:                           59
Number of rotatable bonds:                 19
Number of atom types:                      6


    DUMMY DATA (only for ADT-compatibility)
    ________________________


DPF> outlev 1
DPF> ga_run 20
DPF> fld protein.maps.fld
DPF> move ligands/ligand_2.pdbqt


    COUNTER STATES
    ________________________


Number of energy evaluations performed:    2855455
Number of generations used:                130


    INPUT LIGAND PDBQT FILE:
    ________________________


INPUT-LIGAND-PDBQT: REMARK  Name = ligands/ligand_2.pdb
INPUT-LIGAND-PDBQT: REMARK  21 active torsions:
INPUT-LIGAND-PDBQT: REMARK  status: ('A' for Active; 'I' for Inactive)
INPUT-LIGAND-PDBQT: REMARK    1  A    between atoms: C1_1  and  C2_2
INPUT-LIGAND-PDBQT: REMARK    2  A    between atoms: C2_2  and  C3_3
INPUT-LIGAND-PDBQT: REMARK    3  A    between atoms: C2_2  and  C4_4
INPUT-LIGAND-PDBQT: REMARK    4  A    between atoms: C4_4  and  N1_5
INPUT-LIGAND-PDBQT: REMARK    5  A    between atoms: C4_4  and  C30_38
INPUT-LIGAND-PDBQT: REMARK    6  A    between atoms: C5_6  and  C6_8
INPUT-LIGAND-PDBQT: REMARK    7  A    between atoms: C6_8  and  C7_9
INPUT-LIGAND-PDBQT: REMARK    8  A    between atoms: C7_9  and  O2_10
INPUT-LIGAND-PDBQT: REMARK    9  A    between atoms: C7_9  and  C8_11
INPUT-LIGAND-PDBQT: REMARK   10  A    between atoms: C8_11  and  C9_12
INPUT-LIGAND-PDBQT: REMARK   11  A    between atoms: C8_11  and  N2_21
INPUT-LIGAND-PDBQT: REMARK   12  A    between atoms: C9_12  and  C10_13
INPUT-LIGAND-PDBQT: REMARK   13  A    between atoms: C16_22  and  C17_24
INPUT-LIGAND-PDBQT: REMARK   14  A    between atoms: C17_24  and  O4_25
INPUT-LIGAND-PDBQT: REMARK   15  A    between atoms: C17_24  and  C18_26
INPUT-LIGAND-PDBQT: REMARK   16  A    between atoms: C23_31  and  C24_32
INPUT-LIGAND-PDBQT: REMARK   17  A    between atoms: N3_40  and  C31_41
INPUT-LIGAND-PDBQT: REMARK   18  A    between atoms: C33_43  and  C34_44
INPUT-LIGAND-PDBQT: REMARK   19  A    between atoms: C34_44  and  O7_46
INPUT-LIGAND-PDBQT: REMARK   20  A    between atoms: C36_48  and  C37_49
INPUT-LIGAND-PDBQT: REMARK   21  A    between atoms: C37_49  and  O9_51
INPUT-LIGAND-PDBQT: REMARK                            x       y       z     vdW  Elec       q    Type
INPUT-LIGAND-PDBQT: REMARK                         _______ _______ _______ _____ _____    ______ ____
INPUT-LIGAND-PDBQT: ROOT
INPUT-LIGAND-PDBQT: ATOM      1  C7  UNL     1       0.012   2.602   1.070  0.00  0.00    +0.144 C 
INPUT-LIGAND-PDBQT: ENDROOT
INPUT-LIGAND-PDBQT: BRANCH   1   2
INPUT-LIGAND-PDBQT: ATOM      2  O2  UNL     1      -0.252   4.014   1.067  0.00  0.00    -0.389 OA
INPUT-LIGAND-PDBQT: ATOM      3  H13 UNL     1       0.446   4.433   0.527  0.00  0.00    +0.210 HD
INPUT-LIGAND-PDBQT: ENDBRANCH   1   2
INPUT-LIGAND-PDBQT: BRANCH   1   4
INPUT-LIGAND-PDBQT: ATOM      4  C8  UNL     1      -0.092   2.039  -0.385  0.00  0.00    +0.106 C 
INPUT-LIGAND-PDBQT: BRANCH   4   5
INPUT-LIGAND-PDBQT: ATOM      5  N2  UNL     1       0.851   0.932  -0.576  0.00  0.00    -0.307 N 
INPUT-LIGAND-PDBQT: ATOM      6  C16 UNL     1       2.129   1.144  -1.073  0.00  0.00    +0.247 C 
INPUT-LIGAND-PDBQT: ATOM      7  O3  UNL     1       2.502   2.240  -1.483  0.00  0.00    -0.273 OA
INPUT-LIGAND-PDBQT: ATOM      8  H20 UNL     1       0.771   0.145   0.078  0.00  0.00    +0.149 HD
INPUT-LIGAND-PDBQT: BRANCH   6   9
INPUT-LIGAND-PDBQT: ATOM      9  C17 UNL     1       3.011  -0.136  -1.064  0.00  0.00    +0.230 C 
INPUT-LIGAND-PDBQT: BRANCH   9  10
INPUT-LIGAND-PDBQT: ATOM     10  C18 UNL     1       3.746  -0.338  -2.382  0.00  0.00    -0.003 A 
INPUT-LIGAND-PDBQT: ATOM     11  C19 UNL     1       3.039  -0.803  -3.513  0.00  0.00    +0.007 A 
INPUT-LIGAND-PDBQT: ATOM     12  C20 UNL     1       3.680  -0.996  -4.738  0.00  0.00    +0.000 A 
INPUT-LIGAND-PDBQT: ATOM     13  C21 UNL     1       5.035  -0.717  -4.866  0.00  0.00    +0.001 A 
INPUT-LIGAND-PDBQT: ATOM     14  C22 UNL     1       5.747  -0.240  -3.765  0.00  0.00    +0.009 A 
INPUT-LIGAND-PDBQT: ATOM     15  C23 UNL     1       5.123  -0.035  -2.519  0.00  0.00    -0.012 A 
INPUT-LIGAND-PDBQT: BRANCH  15  16
INPUT-LIGAND-PDBQT: ATOM     16  C24 UNL     1       5.932   0.511  -1.421  0.00  0.00    -0.018 A 
INPUT-LIGAND-PDBQT: ATOM     17  C25 UNL     1       5.883   1.877  -1.111  0.00  0.00    +0.008 A 
INPUT-LIGAND-PDBQT: ATOM     18  C26 UNL     1       6.655   2.401  -0.072  0.00  0.00    +0.001 A 
INPUT-LIGAND-PDBQT: ATOM     19  C27 UNL     1       7.488   1.563   0.667  0.00  0.00    +0.000 A 
INPUT-LIGAND-PDBQT: ATOM     20  C28 UNL     1       7.552   0.204   0.366  0.00  0.00    +0.001 A 
INPUT-LIGAND-PDBQT: ATOM     21  C29 UNL     1       6.778  -0.320  -0.671  0.00  0.00    +0.008 A 
INPUT-LIGAND-PDBQT: ENDBRANCH  15  16
INPUT-LIGAND-PDBQT: ENDBRANCH   9  10
INPUT-LIGAND-PDBQT: BRANCH   9  22
INPUT-LIGAND-PDBQT: ATOM     22  O4  UNL     1       2.255  -1.315  -0.754  0.00  0.00    -0.378 OA
INPUT-LIGAND-PDBQT: ATOM     23  H22 UNL     1       1.507  -1.331  -1.375  0.00  0.00    +0.211 HD
INPUT-LIGAND-PDBQT: ENDBRANCH   9  22
INPUT-LIGAND-PDBQT: ENDBRANCH   6   9
INPUT-LIGAND-PDBQT: ENDBRANCH   4   5
INPUT-LIGAND-PDBQT: BRANCH   4  24
INPUT-LIGAND-PDBQT: ATOM     24  C9  UNL     1      -1.496   1.606  -0.863  0.00  0.00    +0.060 C 
INPUT-LIGAND-PDBQT: BRANCH  24  25
INPUT-LIGAND-PDBQT: ATOM     25  C10 UNL     1      -2.517   2.712  -1.007  0.00  0.00    -0.040 A 
INPUT-LIGAND-PDBQT: ATOM     26  C11 UNL     1      -2.279   3.819  -1.835  0.00  0.00    +0.042 A 
INPUT-LIGAND-PDBQT: ATOM     27  C12 UNL     1      -3.242   4.818  -1.971  0.00  0.00    +0.126 A 
INPUT-LIGAND-PDBQT: ATOM     28  F1  UNL     1      -2.994   5.865  -2.769  0.00  0.00    -0.205 F 
INPUT-LIGAND-PDBQT: ATOM     29  C13 UNL     1      -4.455   4.745  -1.301  0.00  0.00    +0.076 A 
INPUT-LIGAND-PDBQT: ATOM     30  C14 UNL     1      -4.702   3.640  -0.500  0.00  0.00    +0.126 A 
INPUT-LIGAND-PDBQT: ATOM     31  F2  UNL     1      -5.872   3.544   0.150  0.00  0.00    -0.205 F 
INPUT-LIGAND-PDBQT: ATOM     32  C15 UNL     1      -3.757   2.624  -0.355  0.00  0.00    +0.042 A 
INPUT-LIGAND-PDBQT: ENDBRANCH  24  25
INPUT-LIGAND-PDBQT: ENDBRANCH   4  24
INPUT-LIGAND-PDBQT: ENDBRANCH   1   4
INPUT-LIGAND-PDBQT: BRANCH   1  33
INPUT-LIGAND-PDBQT: ATOM     33  C6  UNL     1      -0.914   1.979   2.117  0.00  0.00    +0.129 C 
INPUT-LIGAND-PDBQT: BRANCH  33  35
INPUT-LIGAND-PDBQT: ATOM     34  N1  UNL     1      -1.758  -0.116   2.980  0.00  0.00    -0.304 N 
INPUT-LIGAND-PDBQT: ATOM     35  C5  UNL     1      -0.731   0.488   2.284  0.00  0.00    +0.216 C 
INPUT-LIGAND-PDBQT: ATOM     36  O1  UNL     1       0.238  -0.128   1.851  0.00  0.00    -0.276 OA
INPUT-LIGAND-PDBQT: ATOM     37  H9  UNL     1      -2.646   0.373   2.964  0.00  0.00    +0.149 HD
INPUT-LIGAND-PDBQT: BRANCH  34  38
INPUT-LIGAND-PDBQT: ATOM     38  C4  UNL     1      -1.843  -1.573   3.009  0.00  0.00    +0.162 C 
INPUT-LIGAND-PDBQT: BRANCH  38  39
INPUT-LIGAND-PDBQT: ATOM     39  C30 UNL     1      -2.502  -2.060   1.691  0.00  0.00    +0.238 C 
INPUT-LIGAND-PDBQT: ATOM     40  O5  UNL     1      -3.218  -1.314   1.025  0.00  0.00    -0.273 OA
INPUT-LIGAND-PDBQT: ATOM     41  N3  UNL     1      -2.207  -3.385   1.402  0.00  0.00    -0.284 N 
INPUT-LIGAND-PDBQT: ATOM     42  H32 UNL     1      -1.508  -3.829   1.988  0.00  0.00    +0.155 HD
INPUT-LIGAND-PDBQT: BRANCH  41  43
INPUT-LIGAND-PDBQT: ATOM     43  C31 UNL     1      -2.661  -4.148   0.305  0.00  0.00    +0.035 A 
INPUT-LIGAND-PDBQT: ATOM     44  C32 UNL     1      -3.637  -3.719  -0.597  0.00  0.00    +0.038 A 
INPUT-LIGAND-PDBQT: ATOM     45  C33 UNL     1      -4.022  -4.539  -1.671  0.00  0.00    +0.061 A 
INPUT-LIGAND-PDBQT: ATOM     46  C35 UNL     1      -3.429  -5.793  -1.841  0.00  0.00    +0.030 A 
INPUT-LIGAND-PDBQT: ATOM     47  C36 UNL     1      -2.459  -6.235  -0.937  0.00  0.00    +0.061 A 
INPUT-LIGAND-PDBQT: ATOM     48  C38 UNL     1      -2.083  -5.414   0.135  0.00  0.00    +0.038 A 
INPUT-LIGAND-PDBQT: BRANCH  47  49
INPUT-LIGAND-PDBQT: ATOM     49  C37 UNL     1      -1.850  -7.569  -1.155  0.00  0.00    +0.337 C 
INPUT-LIGAND-PDBQT: ATOM     50  O8  UNL     1      -2.065  -8.307  -2.097  0.00  0.00    -0.245 OA
INPUT-LIGAND-PDBQT: BRANCH  49  51
INPUT-LIGAND-PDBQT: ATOM     51  O9  UNL     1      -0.994  -7.914  -0.178  0.00  0.00    -0.477 OA
INPUT-LIGAND-PDBQT: ATOM     52  H36 UNL     1      -0.668  -8.796  -0.458  0.00  0.00    +0.295 HD
INPUT-LIGAND-PDBQT: ENDBRANCH  49  51
INPUT-LIGAND-PDBQT: ENDBRANCH  47  49
INPUT-LIGAND-PDBQT: BRANCH  45  53
INPUT-LIGAND-PDBQT: ATOM     53  C34 UNL     1      -5.054  -4.118  -2.654  0.00  0.00    +0.337 C 
INPUT-LIGAND-PDBQT: ATOM     54  O6  UNL     1      -5.368  -4.727  -3.659  0.00  0.00    -0.245 OA
INPUT-LIGAND-PDBQT: BRANCH  53  55
INPUT-LIGAND-PDBQT: ATOM     55  O7  UNL     1      -5.655  -2.966  -2.314  0.00  0.00    -0.477 OA
INPUT-LIGAND-PDBQT: ATOM     56  H34 UNL     1      -6.304  -2.810  -3.032  0.00  0.00    +0.295 HD
INPUT-LIGAND-PDBQT: ENDBRANCH  53  55
INPUT-LIGAND-PDBQT: ENDBRANCH  45  53
INPUT-LIGAND-PDBQT: ENDBRANCH  41  43
INPUT-LIGAND-PDBQT: ENDBRANCH  38  39
INPUT-LIGAND-PDBQT: BRANCH  38  58
INPUT-LIGAND-PDBQT: ATOM     57  C1  UNL     1      -4.034  -1.577   4.357  0.00  0.00    +0.009 C 
INPUT-LIGAND-PDBQT: ATOM     58  C2  UNL     1      -2.603  -2.110   4.242  0.00  0.00    +0.012 C 
INPUT-LIGAND-PDBQT: ATOM     59  C3  UNL     1      -1.835  -1.813   5.532  0.00  0.00    +0.009 C 
INPUT-LIGAND-PDBQT: ENDBRANCH  38  58
INPUT-LIGAND-PDBQT: ENDBRANCH  34  38
INPUT-LIGAND-PDBQT: ENDBRANCH  33  35
INPUT-LIGAND-PDBQT: ENDBRANCH   1  33
INPUT-LIGAND-PDBQT: TORSDOF 19


    FINAL DOCKED STATE:
    ________________________


Run:   1 / 20
Time taken for this run:   0.900s

DOCKED: MODEL        1
DOCKED: USER    Run = 1
DOCKED: USER
DOCKED: USER    Estimated Free Energy of Binding    =  +5.67 kcal/mol  [=(1)+(2)+(3)-(4)]
DOCKED: USER
DOCKED: USER    (1) Final Intermolecular Energy     =  +0.00 kcal/mol
DOCKED: USER        vdW + Hbond + desolv Energy     =  +0.00 kcal/mol
DOCKED: USER        Electrostatic Energy            =  +0.00 kcal/mol
DOCKED: USER        Moving Ligand-Fixed Receptor    =  +0.00 kcal/mol
DOCKED: USER        Moving Ligand-Moving Receptor   =  +0.00 kcal/mol
DOCKED: USER    (2) Final Total Internal Energy     = -11.89 kcal/mol
DOCKED: USER    (3) Torsional Free Energy           =  +5.67 kcal/mol
DOCKED: USER    (4) Unbound System's Energy         = -11.89 kcal/mol
DOCKED: USER
DOCKED: USER
DOCKED: REMARK  Name = ligands/ligand_2.pdb
DOCKED: REMARK  21 active torsions:
DOCKED: REMARK  status: ('A' for Active; 'I' for Inactive)
DOCKED: REMARK    1  A    between atoms: C1_1  and  C2_2
DOCKED: REMARK    2  A    between atoms: C2_2  and  C3_3
DOCKED: REMARK    3  A    between atoms: C2_2  and  C4_4
DOCKED: REMARK    4  A    between atoms: C4_4  and  N1_5
DOCKED: REMARK    5  A    between atoms: C4_4  and  C30_38
DOCKED: REMARK    6  A    between atoms: C5_6  and  C6_8
DOCKED: REMARK    7  A    between atoms: C6_8  and  C7_9
DOCKED: REMARK    8  A    between atoms: C7_9  and  O2_10
DOCKED: REMARK    9  A    between atoms: C7_9  and  C8_11
DOCKED: REMARK   10  A    between atoms: C8_11  and  C9_12
DOCKED: REMARK   11  A    between atoms: C8_11  and  N2_21
DOCKED: REMARK   12  A    between atoms: C9_12  and  C10_13
DOCKED: REMARK   13  A    between atoms: C16_22  and  C17_24
DOCKED: REMARK   14  A    between atoms: C17_24  and  O4_25
DOCKED: REMARK   15  A    between atoms: C17_24  and  C18_26
DOCKED: REMARK   16  A    between atoms: C23_31  and  C24_32
DOCKED: REMARK   17  A    between atoms: N3_40  and  C31_41
DOCKED: REMARK   18  A    between atoms: C33_43  and  C34_44
DOCKED: REMARK   19  A    between atoms: C34_44  and  O7_46
DOCKED: REMARK   20  A    between atoms: C36_48  and  C37_49
DOCKED: REMARK   21  A    between atoms: C37_49  and  O9_51
DOCKED: REMARK                            x       y       z     vdW  Elec       q    Type
DOCKED: REMARK                         _______ _______ _______ _____ _____    ______ ____
DOCKED: USER                              x       y       z     vdW  Elec       q    Type
DOCKED: USER                           _______ _______ _______ _____ _____    ______ ____
DOCKED: ROOT
DOCKED: ATOM      1  C7  UNL     1      14.163  -1.915   1.239 +0.00 +0.00    +0.144 C  
DOCKED: ENDROOT
DOCKED: BRANCH   1   2
DOCKED: ATOM      2  O2  UNL     1      15.272  -2.222   2.098 +0.00 -0.00    -0.389 OA 
DOCKED: ATOM      3  H13 UNL     1      14.946  -2.851   2.771 +0.00 +0.00    +0.210 HD 
DOCKED: ENDBRANCH   1   2
DOCKED: BRANCH   1   4
DOCKED: ATOM      4  C8  UNL     1      13.761  -3.183   0.417 +0.00 +0.00    +0.106 C  
DOCKED: BRANCH   4   5
DOCKED: ATOM      5  N2  UNL     1      14.438  -4.373   0.944 +0.00 -0.00    -0.307 N  
DOCKED: ATOM      6  C16 UNL     1      14.165  -5.641   0.453 +0.00 +0.00    +0.247 C  
DOCKED: ATOM      7  O3  UNL     1      13.271  -5.853  -0.362 +0.00 -0.00    -0.273 OA 
DOCKED: ATOM      8  H20 UNL     1      15.400  -4.241   1.279 +0.00 +0.00    +0.149 HD 
DOCKED: BRANCH   6   9
DOCKED: ATOM      9  C17 UNL     1      15.090  -6.741   1.046 +0.00 +0.00    +0.230 C  
DOCKED: BRANCH   9  10
DOCKED: ATOM     10  C18 UNL     1      16.428  -6.819   0.325 +0.00 -0.00    -0.003 A  
DOCKED: ATOM     11  C19 UNL     1      16.556  -7.627  -0.827 +0.00 +0.00    +0.007 A  
DOCKED: ATOM     12  C20 UNL     1      17.767  -7.719  -1.515 +0.00 +0.00    +0.000 A  
DOCKED: ATOM     13  C21 UNL     1      18.872  -6.999  -1.080 +0.00 +0.00    +0.001 A  
DOCKED: ATOM     14  C22 UNL     1      18.761  -6.181   0.046 +0.00 +0.00    +0.009 A  
DOCKED: ATOM     15  C23 UNL     1      17.550  -6.069   0.756 +0.00 -0.00    -0.012 A  
DOCKED: BRANCH  15  16
DOCKED: ATOM     16  C24 UNL     1      17.503  -5.154   1.905 +0.00 -0.00    -0.018 A  
DOCKED: ATOM     17  C25 UNL     1      17.979  -3.841   1.789 +0.00 +0.00    +0.008 A  
DOCKED: ATOM     18  C26 UNL     1      17.942  -2.970   2.880 +0.00 +0.00    +0.001 A  
DOCKED: ATOM     19  C27 UNL     1      17.429  -3.405   4.100 +0.00 +0.00    +0.000 A  
DOCKED: ATOM     20  C28 UNL     1      16.958  -4.709   4.232 +0.00 +0.00    +0.001 A  
DOCKED: ATOM     21  C29 UNL     1      16.993  -5.579   3.141 +0.00 +0.00    +0.008 A  
DOCKED: ENDBRANCH  15  16
DOCKED: ENDBRANCH   9  10
DOCKED: BRANCH   9  22
DOCKED: ATOM     22  O4  UNL     1      14.469  -8.034   1.041 +0.00 -0.00    -0.378 OA 
DOCKED: ATOM     23  H22 UNL     1      13.653  -7.944   0.519 +0.00 +0.00    +0.211 HD 
DOCKED: ENDBRANCH   9  22
DOCKED: ENDBRANCH   6   9
DOCKED: ENDBRANCH   4   5
DOCKED: BRANCH   4  24
DOCKED: ATOM     24  C9  UNL     1      12.250  -3.471   0.279 +0.00 +0.00    +0.060 C  
DOCKED: BRANCH  24  25
DOCKED: ATOM     25  C10 UNL     1      11.630  -3.132  -1.058 +0.00 -0.00    -0.040 A  
DOCKED: ATOM     26  C11 UNL     1      11.979  -1.960  -1.745 +0.00 +0.00    +0.042 A  
DOCKED: ATOM     27  C12 UNL     1      11.412  -1.675  -2.987 +0.00 +0.00    +0.126 A  
DOCKED: ATOM     28  F1  UNL     1      11.762  -0.552  -3.627 +0.00 -0.00    -0.205 F  
DOCKED: ATOM     29  C13 UNL     1      10.497  -2.537  -3.575 +0.00 +0.00    +0.076 A  
DOCKED: ATOM     30  C14 UNL     1      10.168  -3.708  -2.908 +0.00 +0.00    +0.126 A  
DOCKED: ATOM     31  F2  UNL     1       9.293  -4.560  -3.463 +0.00 -0.00    -0.205 F  
DOCKED: ATOM     32  C15 UNL     1      10.729  -4.018  -1.669 +0.00 +0.00    +0.042 A  
DOCKED: ENDBRANCH  24  25
DOCKED: ENDBRANCH   4  24
DOCKED: ENDBRANCH   1   4
DOCKED: BRANCH   1  33
DOCKED: ATOM     33  C6  UNL     1      14.551  -0.670   0.439 +0.00 +0.00    +0.129 C  
DOCKED: BRANCH  33  35
DOCKED: ATOM     34  N1  UNL     1      16.495  -1.729  -0.535 +0.00 -0.00    -0.304 N  
DOCKED: ATOM     35  C5  UNL     1      15.373  -0.969  -0.794 +0.00 +0.00    +0.216 C  
DOCKED: ATOM     36  O1  UNL     1      15.078  -0.570  -1.917 +0.00 -0.00    -0.276 OA 
DOCKED: ATOM     37  H9  UNL     1      16.454  -2.300   0.302 +0.00 +0.00    +0.149 HD 
DOCKED: BRANCH  34  38
DOCKED: ATOM     38  C4  UNL     1      17.247  -2.298  -1.649 +0.00 +0.00    +0.162 C  
DOCKED: BRANCH  38  39
DOCKED: ATOM     39  C30 UNL     1      16.548  -3.605  -2.106 +0.00 +0.00    +0.238 C  
DOCKED: ATOM     40  O5  UNL     1      17.069  -4.704  -1.919 +0.00 -0.00    -0.273 OA 
DOCKED: ATOM     41  N3  UNL     1      15.336  -3.371  -2.741 +0.00 -0.00    -0.284 N  
DOCKED: ATOM     42  H32 UNL     1      14.990  -2.418  -2.713 +0.00 +0.00    +0.155 HD 
DOCKED: BRANCH  41  43
DOCKED: ATOM     43  C31 UNL     1      14.461  -4.325  -3.303 +0.00 +0.00    +0.035 A  
DOCKED: ATOM     44  C32 UNL     1      13.513  -4.035  -4.286 +0.00 +0.00    +0.038 A  
DOCKED: ATOM     45  C33 UNL     1      12.688  -5.050  -4.800 +0.00 +0.00    +0.061 A  
DOCKED: ATOM     46  C35 UNL     1      12.812  -6.359  -4.326 +0.00 +0.00    +0.030 A  
DOCKED: ATOM     47  C36 UNL     1      13.751  -6.656  -3.334 +0.00 +0.00    +0.061 A  
DOCKED: ATOM     48  C38 UNL     1      14.567  -5.638  -2.822 +0.00 +0.00    +0.038 A  
DOCKED: BRANCH  47  49
DOCKED: ATOM     49  C37 UNL     1      13.855  -8.058  -2.862 +0.00 +0.00    +0.337 C  
DOCKED: ATOM     50  O8  UNL     1      14.298  -8.995  -3.497 +0.00 -0.00    -0.245 OA 
DOCKED: BRANCH  49  51
DOCKED: ATOM     51  O9  UNL     1      13.399  -8.218  -1.608 +0.00 -0.00    -0.477 OA 
DOCKED: ATOM     52  H36 UNL     1      14.045  -7.720  -1.062 +0.00 +0.00    +0.295 HD 
DOCKED: ENDBRANCH  49  51
DOCKED: ENDBRANCH  47  49
DOCKED: BRANCH  45  53
DOCKED: ATOM     53  C34 UNL     1      11.669  -4.783  -5.848 +0.00 +0.00    +0.337 C  
DOCKED: ATOM     54  O6  UNL     1      11.685  -3.854  -6.633 +0.00 -0.00    -0.245 OA 
DOCKED: BRANCH  53  55
DOCKED: ATOM     55  O7  UNL     1      10.695  -5.708  -5.873 +0.00 -0.00    -0.477 OA 
DOCKED: ATOM     56  H34 UNL     1      10.004  -5.347  -5.279 +0.00 +0.00    +0.295 HD 
DOCKED: ENDBRANCH  53  55
DOCKED: ENDBRANCH  45  53
DOCKED: ENDBRANCH  41  43
DOCKED: ENDBRANCH  38  39
DOCKED: BRANCH  38  58
DOCKED: ATOM     57  C1  UNL     1      19.369  -1.432  -0.479 +0.00 +0.00    +0.009 C  
DOCKED: ATOM     58  C2  UNL     1      18.733  -2.551  -1.309 +0.00 +0.00    +0.012 C  
DOCKED: ATOM     59  C3  UNL     1      19.554  -2.784  -2.579 +0.00 +0.00    +0.009 C  
DOCKED: ENDBRANCH  38  58
DOCKED: ENDBRANCH  34  38
DOCKED: ENDBRANCH  33  35
DOCKED: ENDBRANCH   1  33
DOCKED: TORSDOF 19
DOCKED: TER
DOCKED: ENDMDL
________________________________________________________________________________


    FINAL DOCKED STATE:
    ________________________


Run:   2 / 20
Time taken for this run:   0.900s

DOCKED: MODEL        2
DOCKED: USER    Run = 2
DOCKED: USER
DOCKED: USER    Estimated Free Energy of Binding    =  +5.67 kcal/mol  [=(1)+(2)+(3)-(4)]
DOCKED: USER
DOCKED: USER    (1) Final Intermolecular Energy     =  +0.00 kcal/mol
DOCKED: USER        vdW + Hbond + desolv Energy     =  +0.00 kcal/mol
DOCKED: USER        Electrostatic Energy            =  +0.00 kcal/mol
DOCKED: USER        Moving Ligand-Fixed Receptor    =  +0.00 kcal/mol
DOCKED: USER        Moving Ligand-Moving Receptor   =  +0.00 kcal/mol
DOCKED: USER    (2) Final Total Internal Energy     = -11.68 kcal/mol
DOCKED: USER    (3) Torsional Free Energy           =  +5.67 kcal/mol
DOCKED: USER    (4) Unbound System's Energy         = -11.68 kcal/mol
DOCKED: USER
DOCKED: USER
DOCKED: REMARK  Name = ligands/ligand_2.pdb
DOCKED: REMARK  21 active torsions:
DOCKED: REMARK  status: ('A' for Active; 'I' for Inactive)
DOCKED: REMARK    1  A    between atoms: C1_1  and  C2_2
DOCKED: REMARK    2  A    between atoms: C2_2  and  C3_3
DOCKED: REMARK    3  A    between atoms: C2_2  and  C4_4
DOCKED: REMARK    4  A    between atoms: C4_4  and  N1_5
DOCKED: REMARK    5  A    between atoms: C4_4  and  C30_38
DOCKED: REMARK    6  A    between atoms: C5_6  and  C6_8
DOCKED: REMARK    7  A    between atoms: C6_8  and  C7_9
DOCKED: REMARK    8  A    between atoms: C7_9  and  O2_10
DOCKED: REMARK    9  A    between atoms: C7_9  and  C8_11
DOCKED: REMARK   10  A    between atoms: C8_11  and  C9_12
DOCKED: REMARK   11  A    between atoms: C8_11  and  N2_21
DOCKED: REMARK   12  A    between atoms: C9_12  and  C10_13
DOCKED: REMARK   13  A    between atoms: C16_22  and  C17_24
DOCKED: REMARK   14  A    between atoms: C17_24  and  O4_25
DOCKED: REMARK   15  A    between atoms: C17_24  and  C18_26
DOCKED: REMARK   16  A    between atoms: C23_31  and  C24_32
DOCKED: REMARK   17  A    between atoms: N3_40  and  C31_41
DOCKED: REMARK   18  A    between atoms: C33_43  and  C34_44
DOCKED: REMARK   19  A    between atoms: C34_44  and  O7_46
DOCKED: REMARK   20  A    between atoms: C36_48  and  C37_49
DOCKED: REMARK   21  A    between atoms: C37_49  and  O9_51
DOCKED: REMARK                            x       y       z     vdW  Elec       q    Type
DOCKED: REMARK                         _______ _______ _______ _____ _____    ______ ____
DOCKED: USER                              x       y       z     vdW  Elec       q    Type
DOCKED: USER                           _______ _______ _______ _____ _____    ______ ____
DOCKED: ROOT
DOCKED: ATOM      1  C7  UNL     1       6.647  -8.744   1.045 +0.00 +0.00    +0.144 C  
DOCKED: ENDROOT
DOCKED: BRANCH   1   2
DOCKED: ATOM      2  O2  UNL     1       6.935 -10.151   1.027 +0.00 -0.00    -0.389 OA 
DOCKED: ATOM      3  H13 UNL     1       7.889 -10.249   1.213 +0.00 +0.00    +0.210 HD 
DOCKED: ENDBRANCH   1   2
DOCKED: BRANCH   1   4
DOCKED: ATOM      4  C8  UNL     1       6.745  -8.163  -0.403 +0.00 +0.00    +0.106 C  
DOCKED: BRANCH   4   5
DOCKED: ATOM      5  N2  UNL     1       7.847  -8.795  -1.137 +0.00 -0.00    -0.307 N  
DOCKED: ATOM      6  C16 UNL     1       8.591  -8.094  -2.075 +0.00 +0.00    +0.247 C  
DOCKED: ATOM      7  O3  UNL     1       8.302  -6.953  -2.425 +0.00 -0.00    -0.273 OA 
DOCKED: ATOM      8  H20 UNL     1       8.366  -9.528  -0.640 +0.00 +0.00    +0.149 HD 
DOCKED: BRANCH   6   9
DOCKED: ATOM      9  C17 UNL     1       9.796  -8.903  -2.631 +0.00 +0.00    +0.230 C  
DOCKED: BRANCH   9  10
DOCKED: ATOM     10  C18 UNL     1       9.361  -9.981  -3.615 +0.00 -0.00    -0.003 A  
DOCKED: ATOM     11  C19 UNL     1       9.085 -11.285  -3.146 +0.00 +0.00    +0.007 A  
DOCKED: ATOM     12  C20 UNL     1       8.681 -12.297  -4.019 +0.00 +0.00    +0.000 A  
DOCKED: ATOM     13  C21 UNL     1       8.530 -12.028  -5.373 +0.00 +0.00    +0.001 A  
DOCKED: ATOM     14  C22 UNL     1       8.781 -10.742  -5.853 +0.00 +0.00    +0.009 A  
DOCKED: ATOM     15  C23 UNL     1       9.188  -9.704  -4.993 +0.00 -0.00    -0.012 A  
DOCKED: BRANCH  15  16
DOCKED: ATOM     16  C24 UNL     1       9.390  -8.367  -5.568 +0.00 -0.00    -0.018 A  
DOCKED: ATOM     17  C25 UNL     1       8.413  -7.373  -5.420 +0.00 +0.00    +0.008 A  
DOCKED: ATOM     18  C26 UNL     1       8.599  -6.103  -5.971 +0.00 +0.00    +0.001 A  
DOCKED: ATOM     19  C27 UNL     1       9.764  -5.815  -6.680 +0.00 +0.00    +0.000 A  
DOCKED: ATOM     20  C28 UNL     1      10.740  -6.796  -6.841 +0.00 +0.00    +0.001 A  
DOCKED: ATOM     21  C29 UNL     1      10.556  -8.065  -6.288 +0.00 +0.00    +0.008 A  
DOCKED: ENDBRANCH  15  16
DOCKED: ENDBRANCH   9  10
DOCKED: BRANCH   9  22
DOCKED: ATOM     22  O4  UNL     1      10.580  -9.498  -1.587 +0.00 -0.00    -0.378 OA 
DOCKED: ATOM     23  H22 UNL     1      10.139  -9.270  -0.751 +0.00 +0.00    +0.211 HD 
DOCKED: ENDBRANCH   9  22
DOCKED: ENDBRANCH   6   9
DOCKED: ENDBRANCH   4   5
DOCKED: BRANCH   4  24
DOCKED: ATOM     24  C9  UNL     1       5.461  -8.215  -1.261 +0.00 +0.00    +0.060 C  
DOCKED: BRANCH  24  25
DOCKED: ATOM     25  C10 UNL     1       5.510  -9.119  -2.472 +0.00 -0.00    -0.040 A  
DOCKED: ATOM     26  C11 UNL     1       5.417 -10.513  -2.345 +0.00 +0.00    +0.042 A  
DOCKED: ATOM     27  C12 UNL     1       5.443 -11.327  -3.476 +0.00 +0.00    +0.126 A  
DOCKED: ATOM     28  F1  UNL     1       5.351 -12.656  -3.331 +0.00 -0.00    -0.205 F  
DOCKED: ATOM     29  C13 UNL     1       5.555 -10.788  -4.750 +0.00 +0.00    +0.076 A  
DOCKED: ATOM     30  C14 UNL     1       5.623  -9.409  -4.880 +0.00 +0.00    +0.126 A  
DOCKED: ATOM     31  F2  UNL     1       5.722  -8.865  -6.102 +0.00 -0.00    -0.205 F  
DOCKED: ATOM     32  C15 UNL     1       5.591  -8.573  -3.763 +0.00 +0.00    +0.042 A  
DOCKED: ENDBRANCH  24  25
DOCKED: ENDBRANCH   4  24
DOCKED: ENDBRANCH   1   4
DOCKED: BRANCH   1  33
DOCKED: ATOM     33  C6  UNL     1       7.560  -8.117   2.101 +0.00 +0.00    +0.129 C  
DOCKED: BRANCH  33  35
DOCKED: ATOM     34  N1  UNL     1       9.771  -7.191   2.417 +0.00 -0.00    -0.304 N  
DOCKED: ATOM     35  C5  UNL     1       9.023  -8.119   1.722 +0.00 +0.00    +0.216 C  
DOCKED: ATOM     36  O1  UNL     1       9.502  -8.866   0.874 +0.00 -0.00    -0.276 OA 
DOCKED: ATOM     37  H9  UNL     1       9.393  -6.905   3.313 +0.00 +0.00    +0.149 HD 
DOCKED: BRANCH  34  38
DOCKED: ATOM     38  C4  UNL     1      11.228  -7.241   2.338 +0.00 +0.00    +0.162 C  
DOCKED: BRANCH  38  39
DOCKED: ATOM     39  C30 UNL     1      11.686  -6.446   1.086 +0.00 +0.00    +0.238 C  
DOCKED: ATOM     40  O5  UNL     1      12.285  -5.378   1.196 +0.00 -0.00    -0.273 OA 
DOCKED: ATOM     41  N3  UNL     1      11.323  -7.063  -0.103 +0.00 -0.00    -0.284 N  
DOCKED: ATOM     42  H32 UNL     1      10.936  -7.998  -0.026 +0.00 +0.00    +0.155 HD 
DOCKED: BRANCH  41  43
DOCKED: ATOM     43  C31 UNL     1      11.554  -6.602  -1.417 +0.00 +0.00    +0.035 A  
DOCKED: ATOM     44  C32 UNL     1      12.494  -7.158  -2.288 +0.00 +0.00    +0.038 A  
DOCKED: ATOM     45  C33 UNL     1      12.651  -6.644  -3.586 +0.00 +0.00    +0.061 A  
DOCKED: ATOM     46  C35 UNL     1      11.866  -5.570  -4.013 +0.00 +0.00    +0.030 A  
DOCKED: ATOM     47  C36 UNL     1      10.930  -5.000  -3.144 +0.00 +0.00    +0.061 A  
DOCKED: ATOM     48  C38 UNL     1      10.782  -5.515  -1.849 +0.00 +0.00    +0.038 A  
DOCKED: BRANCH  47  49
DOCKED: ATOM     49  C37 UNL     1      10.113  -3.866  -3.637 +0.00 +0.00    +0.337 C  
DOCKED: ATOM     50  O8  UNL     1      10.531  -2.884  -4.219 +0.00 -0.00    -0.245 OA 
DOCKED: BRANCH  49  51
DOCKED: ATOM     51  O9  UNL     1       8.803  -4.019  -3.376 +0.00 -0.00    -0.477 OA 
DOCKED: ATOM     52  H36 UNL     1       8.715  -4.978  -3.193 +0.00 +0.00    +0.295 HD 
DOCKED: ENDBRANCH  49  51
DOCKED: ENDBRANCH  47  49
DOCKED: BRANCH  45  53
DOCKED: ATOM     53  C34 UNL     1      13.637  -7.209  -4.544 +0.00 +0.00    +0.337 C  
DOCKED: ATOM     54  O6  UNL     1      13.745  -8.383  -4.842 +0.00 -0.00    -0.245 OA 
DOCKED: BRANCH  53  55
DOCKED: ATOM     55  O7  UNL     1      14.422  -6.269  -5.095 +0.00 -0.00    -0.477 OA 
DOCKED: ATOM     56  H34 UNL     1      15.282  -6.721  -5.232 +0.00 +0.00    +0.295 HD 
DOCKED: ENDBRANCH  53  55
DOCKED: ENDBRANCH  45  53
DOCKED: ENDBRANCH  41  43
DOCKED: ENDBRANCH  38  39
DOCKED: BRANCH  38  58
DOCKED: ATOM     57  C1  UNL     1      11.683  -9.397   3.665 +0.00 +0.00    +0.009 C  
DOCKED: ATOM     58  C2  UNL     1      11.783  -8.683   2.314 +0.00 +0.00    +0.012 C  
DOCKED: ATOM     59  C3  UNL     1      13.233  -8.705   1.824 +0.00 +0.00    +0.009 C  
DOCKED: ENDBRANCH  38  58
DOCKED: ENDBRANCH  34  38
DOCKED: ENDBRANCH  33  35
DOCKED: ENDBRANCH   1  33
DOCKED: TORSDOF 19
DOCKED: TER
DOCKED: ENDMDL
________________________________________________________________________________


    FINAL DOCKED STATE:
    ________________________


Run:   3 / 20
Time taken for this run:   0.900s

DOCKED: MODEL        3
DOCKED: USER    Run = 3
DOCKED: USER
DOCKED: USER    Estimated Free Energy of Binding    =  +5.67 kcal/mol  [=(1)+(2)+(3)-(4)]
DOCKED: USER
DOCKED: USER    (1) Final Intermolecular Energy     =  +0.00 kcal/mol
DOCKED: USER        vdW + Hbond + desolv Energy     =  +0.00 kcal/mol
DOCKED: USER        Electrostatic Energy            =  +0.00 kcal/mol
DOCKED: USER        Moving Ligand-Fixed Receptor    =  +0.00 kcal/mol
DOCKED: USER        Moving Ligand-Moving Receptor   =  +0.00 kcal/mol
DOCKED: USER    (2) Final Total Internal Energy     = -12.10 kcal/mol
DOCKED: USER    (3) Torsional Free Energy           =  +5.67 kcal/mol
DOCKED: USER    (4) Unbound System's Energy         = -12.10 kcal/mol
DOCKED: USER
DOCKED: USER
DOCKED: REMARK  Name = ligands/ligand_2.pdb
DOCKED: REMARK  21 active torsions:
DOCKED: REMARK  status: ('A' for Active; 'I' for Inactive)
DOCKED: REMARK    1  A    between atoms: C1_1  and  C2_2
DOCKED: REMARK    2  A    between atoms: C2_2  and  C3_3
DOCKED: REMARK    3  A    between atoms: C2_2  and  C4_4
DOCKED: REMARK    4  A    between atoms: C4_4  and  N1_5
DOCKED: REMARK    5  A    between atoms: C4_4  and  C30_38
DOCKED: REMARK    6  A    between atoms: C5_6  and  C6_8
DOCKED: REMARK    7  A    between atoms: C6_8  and  C7_9
DOCKED: REMARK    8  A    between atoms: C7_9  and  O2_10
DOCKED: REMARK    9  A    between atoms: C7_9  and  C8_11
DOCKED: REMARK   10  A    between atoms: C8_11  and  C9_12
DOCKED: REMARK   11  A    between atoms: C8_11  and  N2_21
DOCKED: REMARK   12  A    between atoms: C9_12  and  C10_13
DOCKED: REMARK   13  A    between atoms: C16_22  and  C17_24
DOCKED: REMARK   14  A    between atoms: C17_24  and  O4_25
DOCKED: REMARK   15  A    between atoms: C17_24  and  C18_26
DOCKED: REMARK   16  A    between atoms: C23_31  and  C24_32
DOCKED: REMARK   17  A    between atoms: N3_40  and  C31_41
DOCKED: REMARK   18  A    between atoms: C33_43  and  C34_44
DOCKED: REMARK   19  A    between atoms: C34_44  and  O7_46
DOCKED: REMARK   20  A    between atoms: C36_48  and  C37_49
DOCKED: REMARK   21  A    between atoms: C37_49  and  O9_51
DOCKED: REMARK                            x       y       z     vdW  Elec       q    Type
DOCKED: REMARK                         _______ _______ _______ _____ _____    ______ ____
DOCKED: USER                              x       y       z     vdW  Elec       q    Type
DOCKED: USER                           _______ _______ _______ _____ _____    ______ ____
DOCKED: ROOT
DOCKED: ATOM      1  C7  UNL     1      12.305  -7.498   3.358 +0.00 +0.00    +0.144 C  
DOCKED: ENDROOT
DOCKED: BRANCH   1   2
DOCKED: ATOM      2  O2  UNL     1      12.967  -6.429   4.052 +0.00 -0.00    -0.389 OA 
DOCKED: ATOM      3  H13 UNL     1      13.312  -5.819   3.372 +0.00 +0.00    +0.210 HD 
DOCKED: ENDBRANCH   1   2
DOCKED: BRANCH   1   4
DOCKED: ATOM      4  C8  UNL     1      13.273  -8.127   2.304 +0.00 +0.00    +0.106 C  
DOCKED: BRANCH   4   5
DOCKED: ATOM      5  N2  UNL     1      13.652  -7.132   1.295 +0.00 -0.00    -0.307 N  
DOCKED: ATOM      6  C16 UNL     1      14.180  -7.506   0.068 +0.00 +0.00    +0.247 C  
DOCKED: ATOM      7  O3  UNL     1      14.463  -8.670  -0.199 +0.00 -0.00    -0.273 OA 
DOCKED: ATOM      8  H20 UNL     1      13.101  -6.266   1.279 +0.00 +0.00    +0.149 HD 
DOCKED: BRANCH   6   9
DOCKED: ATOM      9  C17 UNL     1      14.379  -6.309  -0.904 +0.00 +0.00    +0.230 C  
DOCKED: BRANCH   9  10
DOCKED: ATOM     10  C18 UNL     1      15.731  -5.634  -0.717 +0.00 -0.00    -0.003 A  
DOCKED: ATOM     11  C19 UNL     1      15.940  -4.783   0.391 +0.00 +0.00    +0.007 A  
DOCKED: ATOM     12  C20 UNL     1      17.168  -4.151   0.596 +0.00 +0.00    +0.000 A  
DOCKED: ATOM     13  C21 UNL     1      18.217  -4.363  -0.289 +0.00 +0.00    +0.001 A  
DOCKED: ATOM     14  C22 UNL     1      18.035  -5.214  -1.380 +0.00 +0.00    +0.009 A  
DOCKED: ATOM     15  C23 UNL     1      16.807  -5.866  -1.608 +0.00 -0.00    -0.012 A  
DOCKED: BRANCH  15  16
DOCKED: ATOM     16  C24 UNL     1      16.711  -6.780  -2.754 +0.00 -0.00    -0.018 A  
DOCKED: ATOM     17  C25 UNL     1      16.864  -8.162  -2.577 +0.00 +0.00    +0.008 A  
DOCKED: ATOM     18  C26 UNL     1      16.778  -9.034  -3.665 +0.00 +0.00    +0.001 A  
DOCKED: ATOM     19  C27 UNL     1      16.542  -8.531  -4.943 +0.00 +0.00    +0.000 A  
DOCKED: ATOM     20  C28 UNL     1      16.395  -7.159  -5.135 +0.00 +0.00    +0.001 A  
DOCKED: ATOM     21  C29 UNL     1      16.477  -6.288  -4.047 +0.00 +0.00    +0.008 A  
DOCKED: ENDBRANCH  15  16
DOCKED: ENDBRANCH   9  10
DOCKED: BRANCH   9  22
DOCKED: ATOM     22  O4  UNL     1      13.337  -5.331  -0.784 +0.00 -0.00    -0.378 OA 
DOCKED: ATOM     23  H22 UNL     1      13.105  -5.294   0.160 +0.00 +0.00    +0.211 HD 
DOCKED: ENDBRANCH   9  22
DOCKED: ENDBRANCH   6   9
DOCKED: ENDBRANCH   4   5
DOCKED: BRANCH   4  24
DOCKED: ATOM     24  C9  UNL     1      14.545  -8.812   2.852 +0.00 +0.00    +0.060 C  
DOCKED: BRANCH  24  25
DOCKED: ATOM     25  C10 UNL     1      15.818  -7.999   2.781 +0.00 -0.00    -0.040 A  
DOCKED: ATOM     26  C11 UNL     1      16.851  -8.341   1.896 +0.00 +0.00    +0.042 A  
DOCKED: ATOM     27  C12 UNL     1      18.009  -7.566   1.830 +0.00 +0.00    +0.126 A  
DOCKED: ATOM     28  F1  UNL     1      18.982  -7.910   0.976 +0.00 -0.00    -0.205 F  
DOCKED: ATOM     29  C13 UNL     1      18.169  -6.442   2.628 +0.00 +0.00    +0.076 A  
DOCKED: ATOM     30  C14 UNL     1      17.139  -6.089   3.487 +0.00 +0.00    +0.126 A  
DOCKED: ATOM     31  F2  UNL     1      17.268  -5.001   4.261 +0.00 -0.00    -0.205 F  
DOCKED: ATOM     32  C15 UNL     1      15.968  -6.844   3.564 +0.00 +0.00    +0.042 A  
DOCKED: ENDBRANCH  24  25
DOCKED: ENDBRANCH   4  24
DOCKED: ENDBRANCH   1   4
DOCKED: BRANCH   1  33
DOCKED: ATOM     33  C6  UNL     1      10.984  -6.934   2.829 +0.00 +0.00    +0.129 C  
DOCKED: BRANCH  33  35
DOCKED: ATOM     34  N1  UNL     1      11.208  -4.542   3.095 +0.00 -0.00    -0.304 N  
DOCKED: ATOM     35  C5  UNL     1      11.116  -5.574   2.184 +0.00 +0.00    +0.216 C  
DOCKED: ATOM     36  O1  UNL     1      11.133  -5.399   0.970 +0.00 -0.00    -0.276 OA 
DOCKED: ATOM     37  H9  UNL     1      11.553  -4.797   4.014 +0.00 +0.00    +0.149 HD 
DOCKED: BRANCH  34  38
DOCKED: ATOM     38  C4  UNL     1      11.582  -3.209   2.632 +0.00 +0.00    +0.162 C  
DOCKED: BRANCH  38  39
DOCKED: ATOM     39  C30 UNL     1      12.877  -3.321   1.784 +0.00 +0.00    +0.238 C  
DOCKED: ATOM     40  O5  UNL     1      13.642  -4.275   1.915 +0.00 -0.00    -0.273 OA 
DOCKED: ATOM     41  N3  UNL     1      13.051  -2.244   0.927 +0.00 -0.00    -0.284 N  
DOCKED: ATOM     42  H32 UNL     1      12.274  -1.597   0.852 +0.00 +0.00    +0.155 HD 
DOCKED: BRANCH  41  43
DOCKED: ATOM     43  C31 UNL     1      14.127  -2.013   0.042 +0.00 +0.00    +0.035 A  
DOCKED: ATOM     44  C32 UNL     1      15.222  -1.198   0.336 +0.00 +0.00    +0.038 A  
DOCKED: ATOM     45  C33 UNL     1      16.257  -1.033  -0.600 +0.00 +0.00    +0.061 A  
DOCKED: ATOM     46  C35 UNL     1      16.194  -1.686  -1.834 +0.00 +0.00    +0.030 A  
DOCKED: ATOM     47  C36 UNL     1      15.097  -2.496  -2.141 +0.00 +0.00    +0.061 A  
DOCKED: ATOM     48  C38 UNL     1      14.065  -2.652  -1.205 +0.00 +0.00    +0.038 A  
DOCKED: BRANCH  47  49
DOCKED: ATOM     49  C37 UNL     1      15.070  -3.175  -3.458 +0.00 +0.00    +0.337 C  
DOCKED: ATOM     50  O8  UNL     1      15.808  -2.943  -4.397 +0.00 -0.00    -0.245 OA 
DOCKED: BRANCH  49  51
DOCKED: ATOM     51  O9  UNL     1      14.117  -4.119  -3.536 +0.00 -0.00    -0.477 OA 
DOCKED: ATOM     52  H36 UNL     1      14.071  -4.476  -2.623 +0.00 +0.00    +0.295 HD 
DOCKED: ENDBRANCH  49  51
DOCKED: ENDBRANCH  47  49
DOCKED: BRANCH  45  53
DOCKED: ATOM     53  C34 UNL     1      17.440  -0.177  -0.325 +0.00 +0.00    +0.337 C  
DOCKED: ATOM     54  O6  UNL     1      18.329  -0.427   0.466 +0.00 -0.00    -0.245 OA 
DOCKED: BRANCH  53  55
DOCKED: ATOM     55  O7  UNL     1      17.458   0.939  -1.073 +0.00 -0.00    -0.477 OA 
DOCKED: ATOM     56  H34 UNL     1      18.024   1.560  -0.568 +0.00 +0.00    +0.295 HD 
DOCKED: ENDBRANCH  53  55
DOCKED: ENDBRANCH  45  53
DOCKED: ENDBRANCH  41  43
DOCKED: ENDBRANCH  38  39
DOCKED: BRANCH  38  58
DOCKED: ATOM     57  C1  UNL     1      11.537  -0.741   3.357 +0.00 +0.00    +0.009 C  
DOCKED: ATOM     58  C2  UNL     1      11.758  -2.195   3.784 +0.00 +0.00    +0.012 C  
DOCKED: ATOM     59  C3  UNL     1      13.135  -2.340   4.436 +0.00 +0.00    +0.009 C  
DOCKED: ENDBRANCH  38  58
DOCKED: ENDBRANCH  34  38
DOCKED: ENDBRANCH  33  35
DOCKED: ENDBRANCH   1  33
DOCKED: TORSDOF 19
DOCKED: TER
DOCKED: ENDMDL
________________________________________________________________________________


    FINAL DOCKED STATE:
    ________________________


Run:   4 / 20
Time taken for this run:   0.900s

DOCKED: MODEL        4
DOCKED: USER    Run = 4
DOCKED: USER
DOCKED: USER    Estimated Free Energy of Binding    =  +5.67 kcal/mol  [=(1)+(2)+(3)-(4)]
DOCKED: USER
DOCKED: USER    (1) Final Intermolecular Energy     =  +0.00 kcal/mol
DOCKED: USER        vdW + Hbond + desolv Energy     =  +0.00 kcal/mol
DOCKED: USER        Electrostatic Energy            =  +0.00 kcal/mol
DOCKED: USER        Moving Ligand-Fixed Receptor    =  +0.00 kcal/mol
DOCKED: USER        Moving Ligand-Moving Receptor   =  +0.00 kcal/mol
DOCKED: USER    (2) Final Total Internal Energy     = -11.90 kcal/mol
DOCKED: USER    (3) Torsional Free Energy           =  +5.67 kcal/mol
DOCKED: USER    (4) Unbound System's Energy         = -11.90 kcal/mol
DOCKED: USER
DOCKED: USER
DOCKED: REMARK  Name = ligands/ligand_2.pdb
DOCKED: REMARK  21 active torsions:
DOCKED: REMARK  status: ('A' for Active; 'I' for Inactive)
DOCKED: REMARK    1  A    between atoms: C1_1  and  C2_2
DOCKED: REMARK    2  A    between atoms: C2_2  and  C3_3
DOCKED: REMARK    3  A    between atoms: C2_2  and  C4_4
DOCKED: REMARK    4  A    between atoms: C4_4  and  N1_5
DOCKED: REMARK    5  A    between atoms: C4_4  and  C30_38
DOCKED: REMARK    6  A    between atoms: C5_6  and  C6_8
DOCKED: REMARK    7  A    between atoms: C6_8  and  C7_9
DOCKED: REMARK    8  A    between atoms: C7_9  and  O2_10
DOCKED: REMARK    9  A    between atoms: C7_9  and  C8_11
DOCKED: REMARK   10  A    between atoms: C8_11  and  C9_12
DOCKED: REMARK   11  A    between atoms: C8_11  and  N2_21
DOCKED: REMARK   12  A    between atoms: C9_12  and  C10_13
DOCKED: REMARK   13  A    between atoms: C16_22  and  C17_24
DOCKED: REMARK   14  A    between atoms: C17_24  and  O4_25
DOCKED: REMARK   15  A    between atoms: C17_24  and  C18_26
DOCKED: REMARK   16  A    between atoms: C23_31  and  C24_32
DOCKED: REMARK   17  A    between atoms: N3_40  and  C31_41
DOCKED: REMARK   18  A    between atoms: C33_43  and  C34_44
DOCKED: REMARK   19  A    between atoms: C34_44  and  O7_46
DOCKED: REMARK   20  A    between atoms: C36_48  and  C37_49
DOCKED: REMARK   21  A    between atoms: C37_49  and  O9_51
DOCKED: REMARK                            x       y       z     vdW  Elec       q    Type
DOCKED: REMARK                         _______ _______ _______ _____ _____    ______ ____
DOCKED: USER                              x       y       z     vdW  Elec       q    Type
DOCKED: USER                           _______ _______ _______ _____ _____    ______ ____
DOCKED: ROOT
DOCKED: ATOM      1  C7  UNL     1       3.451  -3.885  -0.252 +0.00 +0.00    +0.144 C  
DOCKED: ENDROOT
DOCKED: BRANCH   1   2
DOCKED: ATOM      2  O2  UNL     1       2.740  -4.746   0.652 +0.00 -0.00    -0.389 OA 
DOCKED: ATOM      3  H13 UNL     1       2.795  -5.650   0.286 +0.00 +0.00    +0.210 HD 
DOCKED: ENDBRANCH   1   2
DOCKED: BRANCH   1   4
DOCKED: ATOM      4  C8  UNL     1       4.967  -3.852   0.127 +0.00 +0.00    +0.106 C  
DOCKED: BRANCH   4   5
DOCKED: ATOM      5  N2  UNL     1       5.275  -4.898   1.108 +0.00 -0.00    -0.307 N  
DOCKED: ATOM      6  C16 UNL     1       6.571  -5.121   1.550 +0.00 +0.00    +0.247 C  
DOCKED: ATOM      7  O3  UNL     1       7.539  -4.539   1.069 +0.00 -0.00    -0.273 OA 
DOCKED: ATOM      8  H20 UNL     1       4.545  -5.106   1.798 +0.00 +0.00    +0.149 HD 
DOCKED: BRANCH   6   9
DOCKED: ATOM      9  C17 UNL     1       6.657  -6.176   2.689 +0.00 +0.00    +0.230 C  
DOCKED: BRANCH   9  10
DOCKED: ATOM     10  C18 UNL     1       6.378  -5.570   4.057 +0.00 -0.00    -0.003 A  
DOCKED: ATOM     11  C19 UNL     1       7.435  -4.996   4.798 +0.00 +0.00    +0.007 A  
DOCKED: ATOM     12  C20 UNL     1       7.215  -4.429   6.054 +0.00 +0.00    +0.000 A  
DOCKED: ATOM     13  C21 UNL     1       5.934  -4.408   6.593 +0.00 +0.00    +0.001 A  
DOCKED: ATOM     14  C22 UNL     1       4.874  -4.954   5.869 +0.00 +0.00    +0.009 A  
DOCKED: ATOM     15  C23 UNL     1       5.070  -5.530   4.599 +0.00 -0.00    -0.012 A  
DOCKED: BRANCH  15  16
DOCKED: ATOM     16  C24 UNL     1       3.894  -6.044   3.883 +0.00 -0.00    -0.018 A  
DOCKED: ATOM     17  C25 UNL     1       2.741  -5.259   3.751 +0.00 +0.00    +0.008 A  
DOCKED: ATOM     18  C26 UNL     1       1.620  -5.745   3.077 +0.00 +0.00    +0.001 A  
DOCKED: ATOM     19  C27 UNL     1       1.639  -7.027   2.528 +0.00 +0.00    +0.000 A  
DOCKED: ATOM     20  C28 UNL     1       2.776  -7.821   2.657 +0.00 +0.00    +0.001 A  
DOCKED: ATOM     21  C29 UNL     1       3.898  -7.333   3.329 +0.00 +0.00    +0.008 A  
DOCKED: ENDBRANCH  15  16
DOCKED: ENDBRANCH   9  10
DOCKED: BRANCH   9  22
DOCKED: ATOM     22  O4  UNL     1       7.926  -6.846   2.714 +0.00 -0.00    -0.378 OA 
DOCKED: ATOM     23  H22 UNL     1       8.501  -6.364   2.096 +0.00 +0.00    +0.211 HD 
DOCKED: ENDBRANCH   9  22
DOCKED: ENDBRANCH   6   9
DOCKED: ENDBRANCH   4   5
DOCKED: BRANCH   4  24
DOCKED: ATOM     24  C9  UNL     1       5.977  -3.929  -1.040 +0.00 +0.00    +0.060 C  
DOCKED: BRANCH  24  25
DOCKED: ATOM     25  C10 UNL     1       6.695  -2.643  -1.381 +0.00 -0.00    -0.040 A  
DOCKED: ATOM     26  C11 UNL     1       6.009  -1.421  -1.442 +0.00 +0.00    +0.042 A  
DOCKED: ATOM     27  C12 UNL     1       6.694  -0.242  -1.738 +0.00 +0.00    +0.126 A  
DOCKED: ATOM     28  F1  UNL     1       6.019   0.914  -1.788 +0.00 -0.00    -0.205 F  
DOCKED: ATOM     29  C13 UNL     1       8.061  -0.244  -1.974 +0.00 +0.00    +0.076 A  
DOCKED: ATOM     30  C14 UNL     1       8.745  -1.447  -1.891 +0.00 +0.00    +0.126 A  
DOCKED: ATOM     31  F2  UNL     1      10.069  -1.471  -2.106 +0.00 -0.00    -0.205 F  
DOCKED: ATOM     32  C15 UNL     1       8.083  -2.638  -1.589 +0.00 +0.00    +0.042 A  
DOCKED: ENDBRANCH  24  25
DOCKED: ENDBRANCH   4  24
DOCKED: ENDBRANCH   1   4
DOCKED: BRANCH   1  33
DOCKED: ATOM     33  C6  UNL     1       2.714  -2.544  -0.260 +0.00 +0.00    +0.129 C  
DOCKED: BRANCH  33  35
DOCKED: ATOM     34  N1  UNL     1       2.949  -2.194   2.121 +0.00 -0.00    -0.304 N  
DOCKED: ATOM     35  C5  UNL     1       3.106  -1.625   0.874 +0.00 +0.00    +0.216 C  
DOCKED: ATOM     36  O1  UNL     1       3.517  -0.481   0.707 +0.00 -0.00    -0.276 OA 
DOCKED: ATOM     37  H9  UNL     1       2.971  -3.208   2.146 +0.00 +0.00    +0.149 HD 
DOCKED: BRANCH  34  38
DOCKED: ATOM     38  C4  UNL     1       3.511  -1.524   3.289 +0.00 +0.00    +0.162 C  
DOCKED: BRANCH  38  39
DOCKED: ATOM     39  C30 UNL     1       5.031  -1.832   3.357 +0.00 +0.00    +0.238 C  
DOCKED: ATOM     40  O5  UNL     1       5.490  -2.583   4.216 +0.00 -0.00    -0.273 OA 
DOCKED: ATOM     41  N3  UNL     1       5.758  -1.159   2.385 +0.00 -0.00    -0.284 N  
DOCKED: ATOM     42  H32 UNL     1       5.220  -0.668   1.679 +0.00 +0.00    +0.155 HD 
DOCKED: BRANCH  41  43
DOCKED: ATOM     43  C31 UNL     1       7.154  -1.187   2.181 +0.00 +0.00    +0.035 A  
DOCKED: ATOM     44  C32 UNL     1       7.865  -0.205   1.488 +0.00 +0.00    +0.038 A  
DOCKED: ATOM     45  C33 UNL     1       9.259  -0.306   1.342 +0.00 +0.00    +0.061 A  
DOCKED: ATOM     46  C35 UNL     1       9.942  -1.394   1.890 +0.00 +0.00    +0.030 A  
DOCKED: ATOM     47  C36 UNL     1       9.238  -2.387   2.577 +0.00 +0.00    +0.061 A  
DOCKED: ATOM     48  C38 UNL     1       7.847  -2.283   2.715 +0.00 +0.00    +0.038 A  
DOCKED: BRANCH  47  49
DOCKED: ATOM     49  C37 UNL     1      10.001  -3.523   3.148 +0.00 +0.00    +0.337 C  
DOCKED: ATOM     50  O8  UNL     1      10.754  -3.470   4.101 +0.00 -0.00    -0.245 OA 
DOCKED: BRANCH  49  51
DOCKED: ATOM     51  O9  UNL     1       9.778  -4.677   2.497 +0.00 -0.00    -0.477 OA 
DOCKED: ATOM     52  H36 UNL     1       8.849  -4.895   2.725 +0.00 +0.00    +0.295 HD 
DOCKED: ENDBRANCH  49  51
DOCKED: ENDBRANCH  47  49
DOCKED: BRANCH  45  53
DOCKED: ATOM     53  C34 UNL     1      10.051   0.719   0.614 +0.00 +0.00    +0.337 C  
DOCKED: ATOM     54  O6  UNL     1       9.665   1.832   0.311 +0.00 -0.00    -0.245 OA 
DOCKED: BRANCH  53  55
DOCKED: ATOM     55  O7  UNL     1      11.295   0.304   0.324 +0.00 -0.00    -0.477 OA 
DOCKED: ATOM     56  H34 UNL     1      11.207  -0.131  -0.550 +0.00 +0.00    +0.295 HD 
DOCKED: ENDBRANCH  53  55
DOCKED: ENDBRANCH  45  53
DOCKED: ENDBRANCH  41  43
DOCKED: ENDBRANCH  38  39
DOCKED: BRANCH  38  58
DOCKED: ATOM     57  C1  UNL     1       1.288  -2.058   4.468 +0.00 +0.00    +0.009 C  
DOCKED: ATOM     58  C2  UNL     1       2.806  -1.914   4.607 +0.00 +0.00    +0.012 C  
DOCKED: ATOM     59  C3  UNL     1       3.131  -0.914   5.719 +0.00 +0.00    +0.009 C  
DOCKED: ENDBRANCH  38  58
DOCKED: ENDBRANCH  34  38
DOCKED: ENDBRANCH  33  35
DOCKED: ENDBRANCH   1  33
DOCKED: TORSDOF 19
DOCKED: TER
DOCKED: ENDMDL
________________________________________________________________________________


    FINAL DOCKED STATE:
    ________________________


Run:   5 / 20
Time taken for this run:   0.900s

DOCKED: MODEL        5
DOCKED: USER    Run = 5
DOCKED: USER
DOCKED: USER    Estimated Free Energy of Binding    =  +5.67 kcal/mol  [=(1)+(2)+(3)-(4)]
DOCKED: USER
DOCKED: USER    (1) Final Intermolecular Energy     =  +0.00 kcal/mol
DOCKED: USER        vdW + Hbond + desolv Energy     =  +0.00 kcal/mol
DOCKED: USER        Electrostatic Energy            =  +0.00 kcal/mol
DOCKED: USER        Moving Ligand-Fixed Receptor    =  +0.00 kcal/mol
DOCKED: USER        Moving Ligand-Moving Receptor   =  +0.00 kcal/mol
DOCKED: USER    (2) Final Total Internal Energy     = -12.09 kcal/mol
DOCKED: USER    (3) Torsional Free Energy           =  +5.67 kcal/mol
DOCKED: USER    (4) Unbound System's Energy         = -12.09 kcal/mol
DOCKED: USER
DOCKED: USER
DOCKED: REMARK  Name = ligands/ligand_2.pdb
DOCKED: REMARK  21 active torsions:
DOCKED: REMARK  status: ('A' for Active; 'I' for Inactive)
DOCKED: REMARK    1  A    between atoms: C1_1  and  C2_2
DOCKED: REMARK    2  A    between atoms: C2_2  and  C3_3
DOCKED: REMARK    3  A    between atoms: C2_2  and  C4_4
DOCKED: REMARK    4  A    between atoms: C4_4  and  N1_5
DOCKED: REMARK    5  A    between atoms: C4_4  and  C30_38
DOCKED: REMARK    6  A    between atoms: C5_6  and  C6_8
DOCKED: REMARK    7  A    between atoms: C6_8  and  C7_9
DOCKED: REMARK    8  A    between atoms: C7_9  and  O2_10
DOCKED: REMARK    9  A    between atoms: C7_9  and  C8_11
DOCKED: REMARK   10  A    between atoms: C8_11  and  C9_12
DOCKED: REMARK   11  A    between atoms: C8_11  and  N2_21
DOCKED: REMARK   12  A    between atoms: C9_12  and  C10_13
DOCKED: REMARK   13  A    between atoms: C16_22  and  C17_24
DOCKED: REMARK   14  A    between atoms: C17_24  and  O4_25
DOCKED: REMARK   15  A    between atoms: C17_24  and  C18_26
DOCKED: REMARK   16  A    between atoms: C23_31  and  C24_32
DOCKED: REMARK   17  A    between atoms: N3_40  and  C31_41
DOCKED: REMARK   18  A    between atoms: C33_43  and  C34_44
DOCKED: REMARK   19  A    between atoms: C34_44  and  O7_46
DOCKED: REMARK   20  A    between atoms: C36_48  and  C37_49
DOCKED: REMARK   21  A    between atoms: C37_49  and  O9_51
DOCKED: REMARK                            x       y       z     vdW  Elec       q    Type
DOCKED: REMARK                         _______ _______ _______ _____ _____    ______ ____
DOCKED: USER                              x       y       z     vdW  Elec       q    Type
DOCKED: USER                           _______ _______ _______ _____ _____    ______ ____
DOCKED: ROOT
DOCKED: ATOM      1  C7  UNL     1       3.116  -7.117   2.063 +0.00 +0.00    +0.144 C  
DOCKED: ENDROOT
DOCKED: BRANCH   1   2
DOCKED: ATOM      2  O2  UNL     1       4.489  -6.906   2.430 +0.00 -0.00    -0.389 OA 
DOCKED: ATOM      3  H13 UNL     1       4.902  -6.397   1.705 +0.00 +0.00    +0.210 HD 
DOCKED: ENDBRANCH   1   2
DOCKED: BRANCH   1   4
DOCKED: ATOM      4  C8  UNL     1       3.038  -7.743   0.632 +0.00 +0.00    +0.106 C  
DOCKED: BRANCH   4   5
DOCKED: ATOM      5  N2  UNL     1       3.626  -6.835  -0.358 +0.00 -0.00    -0.307 N  
DOCKED: ATOM      6  C16 UNL     1       3.381  -6.985  -1.716 +0.00 +0.00    +0.247 C  
DOCKED: ATOM      7  O3  UNL     1       2.759  -7.941  -2.171 +0.00 -0.00    -0.273 OA 
DOCKED: ATOM      8  H20 UNL     1       3.781  -5.866  -0.055 +0.00 +0.00    +0.149 HD 
DOCKED: BRANCH   6   9
DOCKED: ATOM      9  C17 UNL     1       3.981  -5.838  -2.577 +0.00 +0.00    +0.230 C  
DOCKED: BRANCH   9  10
DOCKED: ATOM     10  C18 UNL     1       5.413  -6.129  -3.007 +0.00 -0.00    -0.003 A  
DOCKED: ATOM     11  C19 UNL     1       6.467  -5.976  -2.080 +0.00 +0.00    +0.007 A  
DOCKED: ATOM     12  C20 UNL     1       7.790  -6.238  -2.438 +0.00 +0.00    +0.000 A  
DOCKED: ATOM     13  C21 UNL     1       8.090  -6.671  -3.724 +0.00 +0.00    +0.001 A  
DOCKED: ATOM     14  C22 UNL     1       7.061  -6.845  -4.650 +0.00 +0.00    +0.009 A  
DOCKED: ATOM     15  C23 UNL     1       5.717  -6.590  -4.312 +0.00 -0.00    -0.012 A  
DOCKED: BRANCH  15  16
DOCKED: ATOM     16  C24 UNL     1       4.688  -6.840  -5.330 +0.00 -0.00    -0.018 A  
DOCKED: ATOM     17  C25 UNL     1       4.070  -8.094  -5.424 +0.00 +0.00    +0.008 A  
DOCKED: ATOM     18  C26 UNL     1       3.095  -8.338  -6.394 +0.00 +0.00    +0.001 A  
DOCKED: ATOM     19  C27 UNL     1       2.731  -7.328  -7.283 +0.00 +0.00    +0.000 A  
DOCKED: ATOM     20  C28 UNL     1       3.342  -6.078  -7.206 +0.00 +0.00    +0.001 A  
DOCKED: ATOM     21  C29 UNL     1       4.314  -5.834  -6.234 +0.00 +0.00    +0.008 A  
DOCKED: ENDBRANCH  15  16
DOCKED: ENDBRANCH   9  10
DOCKED: BRANCH   9  22
DOCKED: ATOM     22  O4  UNL     1       3.934  -4.571  -1.906 +0.00 -0.00    -0.378 OA 
DOCKED: ATOM     23  H22 UNL     1       4.038  -4.761  -0.958 +0.00 +0.00    +0.211 HD 
DOCKED: ENDBRANCH   9  22
DOCKED: ENDBRANCH   6   9
DOCKED: ENDBRANCH   4   5
DOCKED: BRANCH   4  24
DOCKED: ATOM     24  C9  UNL     1       3.643  -9.154   0.458 +0.00 +0.00    +0.060 C  
DOCKED: BRANCH  24  25
DOCKED: ATOM     25  C10 UNL     1       5.031  -9.210  -0.138 +0.00 -0.00    -0.040 A  
DOCKED: ATOM     26  C11 UNL     1       5.254  -9.750  -1.414 +0.00 +0.00    +0.042 A  
DOCKED: ATOM     27  C12 UNL     1       6.539  -9.774  -1.955 +0.00 +0.00    +0.126 A  
DOCKED: ATOM     28  F1  UNL     1       6.728 -10.292  -3.176 +0.00 -0.00    -0.205 F  
DOCKED: ATOM     29  C13 UNL     1       7.624  -9.264  -1.256 +0.00 +0.00    +0.076 A  
DOCKED: ATOM     30  C14 UNL     1       7.403  -8.708  -0.005 +0.00 +0.00    +0.126 A  
DOCKED: ATOM     31  F2  UNL     1       8.436  -8.201   0.684 +0.00 -0.00    -0.205 F  
DOCKED: ATOM     32  C15 UNL     1       6.125  -8.666   0.554 +0.00 +0.00    +0.042 A  
DOCKED: ENDBRANCH  24  25
DOCKED: ENDBRANCH   4  24
DOCKED: ENDBRANCH   1   4
DOCKED: BRANCH   1  33
DOCKED: ATOM     33  C6  UNL     1       2.391  -5.786   2.272 +0.00 +0.00    +0.129 C  
DOCKED: BRANCH  33  35
DOCKED: ATOM     34  N1  UNL     1       4.171  -4.179   2.576 +0.00 -0.00    -0.304 N  
DOCKED: ATOM     35  C5  UNL     1       3.148  -4.588   1.746 +0.00 +0.00    +0.216 C  
DOCKED: ATOM     36  O1  UNL     1       2.879  -4.028   0.688 +0.00 -0.00    -0.276 OA 
DOCKED: ATOM     37  H9  UNL     1       4.544  -4.889   3.197 +0.00 +0.00    +0.149 HD 
DOCKED: BRANCH  34  38
DOCKED: ATOM     38  C4  UNL     1       5.138  -3.198   2.091 +0.00 +0.00    +0.162 C  
DOCKED: BRANCH  38  39
DOCKED: ATOM     39  C30 UNL     1       5.704  -3.687   0.732 +0.00 +0.00    +0.238 C  
DOCKED: ATOM     40  O5  UNL     1       5.650  -4.873   0.410 +0.00 -0.00    -0.273 OA 
DOCKED: ATOM     41  N3  UNL     1       6.270  -2.662  -0.014 +0.00 -0.00    -0.284 N  
DOCKED: ATOM     42  H32 UNL     1       6.131  -1.720   0.337 +0.00 +0.00    +0.155 HD 
DOCKED: BRANCH  41  43
DOCKED: ATOM     43  C31 UNL     1       6.897  -2.760  -1.274 +0.00 +0.00    +0.035 A  
DOCKED: ATOM     44  C32 UNL     1       8.280  -2.826  -1.458 +0.00 +0.00    +0.038 A  
DOCKED: ATOM     45  C33 UNL     1       8.821  -2.935  -2.750 +0.00 +0.00    +0.061 A  
DOCKED: ATOM     46  C35 UNL     1       7.975  -2.975  -3.861 +0.00 +0.00    +0.030 A  
DOCKED: ATOM     47  C36 UNL     1       6.590  -2.898  -3.688 +0.00 +0.00    +0.061 A  
DOCKED: ATOM     48  C38 UNL     1       6.057  -2.785  -2.396 +0.00 +0.00    +0.038 A  
DOCKED: BRANCH  47  49
DOCKED: ATOM     49  C37 UNL     1       5.726  -2.949  -4.892 +0.00 +0.00    +0.337 C  
DOCKED: ATOM     50  O8  UNL     1       6.104  -2.879  -6.045 +0.00 -0.00    -0.245 OA 
DOCKED: BRANCH  49  51
DOCKED: ATOM     51  O9  UNL     1       4.424  -3.089  -4.590 +0.00 -0.00    -0.477 OA 
DOCKED: ATOM     52  H36 UNL     1       4.432  -3.672  -3.800 +0.00 +0.00    +0.295 HD 
DOCKED: ENDBRANCH  49  51
DOCKED: ENDBRANCH  47  49
DOCKED: BRANCH  45  53
DOCKED: ATOM     53  C34 UNL     1      10.286  -3.011  -2.987 +0.00 +0.00    +0.337 C  
DOCKED: ATOM     54  O6  UNL     1      10.924  -4.031  -3.168 +0.00 -0.00    -0.245 OA 
DOCKED: BRANCH  53  55
DOCKED: ATOM     55  O7  UNL     1      10.872  -1.803  -3.007 +0.00 -0.00    -0.477 OA 
DOCKED: ATOM     56  H34 UNL     1      11.717  -1.935  -2.527 +0.00 +0.00    +0.295 HD 
DOCKED: ENDBRANCH  53  55
DOCKED: ENDBRANCH  45  53
DOCKED: ENDBRANCH  41  43
DOCKED: ENDBRANCH  38  39
DOCKED: BRANCH  38  58
DOCKED: ATOM     57  C1  UNL     1       6.853  -1.505   2.990 +0.00 +0.00    +0.009 C  
DOCKED: ATOM     58  C2  UNL     1       6.274  -2.919   3.099 +0.00 +0.00    +0.012 C  
DOCKED: ATOM     59  C3  UNL     1       7.396  -3.950   2.960 +0.00 +0.00    +0.009 C  
DOCKED: ENDBRANCH  38  58
DOCKED: ENDBRANCH  34  38
DOCKED: ENDBRANCH  33  35
DOCKED: ENDBRANCH   1  33
DOCKED: TORSDOF 19
DOCKED: TER
DOCKED: ENDMDL
________________________________________________________________________________


    FINAL DOCKED STATE:
    ________________________


Run:   6 / 20
Time taken for this run:   0.900s

DOCKED: MODEL        6
DOCKED: USER    Run = 6
DOCKED: USER
DOCKED: USER    Estimated Free Energy of Binding    =  +5.67 kcal/mol  [=(1)+(2)+(3)-(4)]
DOCKED: USER
DOCKED: USER    (1) Final Intermolecular Energy     =  +0.00 kcal/mol
DOCKED: USER        vdW + Hbond + desolv Energy     =  +0.00 kcal/mol
DOCKED: USER        Electrostatic Energy            =  +0.00 kcal/mol
DOCKED: USER        Moving Ligand-Fixed Receptor    =  +0.00 kcal/mol
DOCKED: USER        Moving Ligand-Moving Receptor   =  +0.00 kcal/mol
DOCKED: USER    (2) Final Total Internal Energy     = -12.11 kcal/mol
DOCKED: USER    (3) Torsional Free Energy           =  +5.67 kcal/mol
DOCKED: USER    (4) Unbound System's Energy         = -12.11 kcal/mol
DOCKED: USER
DOCKED: USER
DOCKED: REMARK  Name = ligands/ligand_2.pdb
DOCKED: REMARK  21 active torsions:
DOCKED: REMARK  status: ('A' for Active; 'I' for Inactive)
DOCKED: REMARK    1  A    between atoms: C1_1  and  C2_2
DOCKED: REMARK    2  A    between atoms: C2_2  and  C3_3
DOCKED: REMARK    3  A    between atoms: C2_2  and  C4_4
DOCKED: REMARK    4  A    between atoms: C4_4  and  N1_5
DOCKED: REMARK    5  A    between atoms: C4_4  and  C30_38
DOCKED: REMARK    6  A    between atoms: C5_6  and  C6_8
DOCKED: REMARK    7  A    between atoms: C6_8  and  C7_9
DOCKED: REMARK    8  A    between atoms: C7_9  and  O2_10
DOCKED: REMARK    9  A    between atoms: C7_9  and  C8_11
DOCKED: REMARK   10  A    between atoms: C8_11  and  C9_12
DOCKED: REMARK   11  A    between atoms: C8_11  and  N2_21
DOCKED: REMARK   12  A    between atoms: C9_12  and  C10_13
DOCKED: REMARK   13  A    between atoms: C16_22  and  C17_24
DOCKED: REMARK   14  A    between atoms: C17_24  and  O4_25
DOCKED: REMARK   15  A    between atoms: C17_24  and  C18_26
DOCKED: REMARK   16  A    between atoms: C23_31  and  C24_32
DOCKED: REMARK   17  A    between atoms: N3_40  and  C31_41
DOCKED: REMARK   18  A    between atoms: C33_43  and  C34_44
DOCKED: REMARK   19  A    between atoms: C34_44  and  O7_46
DOCKED: REMARK   20  A    between atoms: C36_48  and  C37_49
DOCKED: REMARK   21  A    between atoms: C37_49  and  O9_51
DOCKED: REMARK                            x       y       z     vdW  Elec       q    Type
DOCKED: REMARK                         _______ _______ _______ _____ _____    ______ ____
DOCKED: USER                              x       y       z     vdW  Elec       q    Type
DOCKED: USER                           _______ _______ _______ _____ _____    ______ ____
DOCKED: ROOT
DOCKED: ATOM      1  C7  UNL     1       4.663  -7.590  -5.252 +0.00 +0.00    +0.144 C  
DOCKED: ENDROOT
DOCKED: BRANCH   1   2
DOCKED: ATOM      2  O2  UNL     1       4.125  -6.316  -5.640 +0.00 -0.00    -0.389 OA 
DOCKED: ATOM      3  H13 UNL     1       4.852  -5.816  -6.060 +0.00 +0.00    +0.210 HD 
DOCKED: ENDBRANCH   1   2
DOCKED: BRANCH   1   4
DOCKED: ATOM      4  C8  UNL     1       5.968  -7.384  -4.416 +0.00 +0.00    +0.106 C  
DOCKED: BRANCH   4   5
DOCKED: ATOM      5  N2  UNL     1       6.990  -6.703  -5.218 +0.00 -0.00    -0.307 N  
DOCKED: ATOM      6  C16 UNL     1       8.331  -6.735  -4.865 +0.00 +0.00    +0.247 C  
DOCKED: ATOM      7  O3  UNL     1       8.723  -7.233  -3.813 +0.00 -0.00    -0.273 OA 
DOCKED: ATOM      8  H20 UNL     1       6.814  -6.644  -6.228 +0.00 +0.00    +0.149 HD 
DOCKED: BRANCH   6   9
DOCKED: ATOM      9  C17 UNL     1       9.260  -6.074  -5.922 +0.00 +0.00    +0.230 C  
DOCKED: BRANCH   9  10
DOCKED: ATOM     10  C18 UNL     1       9.420  -4.577  -5.691 +0.00 -0.00    -0.003 A  
DOCKED: ATOM     11  C19 UNL     1       8.385  -3.696  -6.076 +0.00 +0.00    +0.007 A  
DOCKED: ATOM     12  C20 UNL     1       8.496  -2.319  -5.876 +0.00 +0.00    +0.000 A  
DOCKED: ATOM     13  C21 UNL     1       9.634  -1.792  -5.277 +0.00 +0.00    +0.001 A  
DOCKED: ATOM     14  C22 UNL     1      10.659  -2.648  -4.875 +0.00 +0.00    +0.009 A  
DOCKED: ATOM     15  C23 UNL     1      10.571  -4.041  -5.063 +0.00 -0.00    -0.012 A  
DOCKED: BRANCH  15  16
DOCKED: ATOM     16  C24 UNL     1      11.674  -4.878  -4.572 +0.00 -0.00    -0.018 A  
DOCKED: ATOM     17  C25 UNL     1      12.773  -5.162  -5.394 +0.00 +0.00    +0.008 A  
DOCKED: ATOM     18  C26 UNL     1      13.820  -5.962  -4.933 +0.00 +0.00    +0.001 A  
DOCKED: ATOM     19  C27 UNL     1      13.778  -6.489  -3.644 +0.00 +0.00    +0.000 A  
DOCKED: ATOM     20  C28 UNL     1      12.689  -6.220  -2.817 +0.00 +0.00    +0.001 A  
DOCKED: ATOM     21  C29 UNL     1      11.643  -5.418  -3.278 +0.00 +0.00    +0.008 A  
DOCKED: ENDBRANCH  15  16
DOCKED: ENDBRANCH   9  10
DOCKED: BRANCH   9  22
DOCKED: ATOM     22  O4  UNL     1       8.808  -6.304  -7.263 +0.00 -0.00    -0.378 OA 
DOCKED: ATOM     23  H22 UNL     1       7.836  -6.298  -7.229 +0.00 +0.00    +0.211 HD 
DOCKED: ENDBRANCH   9  22
DOCKED: ENDBRANCH   6   9
DOCKED: ENDBRANCH   4   5
DOCKED: BRANCH   4  24
DOCKED: ATOM     24  C9  UNL     1       5.815  -6.661  -3.059 +0.00 +0.00    +0.060 C  
DOCKED: BRANCH  24  25
DOCKED: ATOM     25  C10 UNL     1       6.188  -5.196  -3.042 +0.00 -0.00    -0.040 A  
DOCKED: ATOM     26  C11 UNL     1       7.333  -4.744  -2.370 +0.00 +0.00    +0.042 A  
DOCKED: ATOM     27  C12 UNL     1       7.672  -3.391  -2.384 +0.00 +0.00    +0.126 A  
DOCKED: ATOM     28  F1  UNL     1       8.771  -2.982  -1.737 +0.00 -0.00    -0.205 F  
DOCKED: ATOM     29  C13 UNL     1       6.896  -2.462  -3.062 +0.00 +0.00    +0.076 A  
DOCKED: ATOM     30  C14 UNL     1       5.776  -2.910  -3.748 +0.00 +0.00    +0.126 A  
DOCKED: ATOM     31  F2  UNL     1       5.016  -2.030  -4.418 +0.00 -0.00    -0.205 F  
DOCKED: ATOM     32  C15 UNL     1       5.422  -4.260  -3.754 +0.00 +0.00    +0.042 A  
DOCKED: ENDBRANCH  24  25
DOCKED: ENDBRANCH   4  24
DOCKED: ENDBRANCH   1   4
DOCKED: BRANCH   1  33
DOCKED: ATOM     33  C6  UNL     1       4.788  -8.426  -6.528 +0.00 +0.00    +0.129 C  
DOCKED: BRANCH  33  35
DOCKED: ATOM     34  N1  UNL     1       4.482  -6.830  -8.318 +0.00 -0.00    -0.304 N  
DOCKED: ATOM     35  C5  UNL     1       5.381  -7.673  -7.696 +0.00 +0.00    +0.216 C  
DOCKED: ATOM     36  O1  UNL     1       6.544  -7.801  -8.064 +0.00 -0.00    -0.276 OA 
DOCKED: ATOM     37  H9  UNL     1       3.705  -6.519  -7.746 +0.00 +0.00    +0.149 HD 
DOCKED: BRANCH  34  38
DOCKED: ATOM     38  C4  UNL     1       4.968  -5.864  -9.298 +0.00 +0.00    +0.162 C  
DOCKED: BRANCH  38  39
DOCKED: ATOM     39  C30 UNL     1       6.125  -5.047  -8.663 +0.00 +0.00    +0.238 C  
DOCKED: ATOM     40  O5  UNL     1       6.226  -4.933  -7.442 +0.00 -0.00    -0.273 OA 
DOCKED: ATOM     41  N3  UNL     1       6.963  -4.478  -9.611 +0.00 -0.00    -0.284 N  
DOCKED: ATOM     42  H32 UNL     1       6.813  -4.762 -10.573 +0.00 +0.00    +0.155 HD 
DOCKED: BRANCH  41  43
DOCKED: ATOM     43  C31 UNL     1       8.087  -3.656  -9.383 +0.00 +0.00    +0.035 A  
DOCKED: ATOM     44  C32 UNL     1       8.054  -2.260  -9.401 +0.00 +0.00    +0.038 A  
DOCKED: ATOM     45  C33 UNL     1       9.220  -1.517  -9.151 +0.00 +0.00    +0.061 A  
DOCKED: ATOM     46  C35 UNL     1      10.423  -2.175  -8.883 +0.00 +0.00    +0.030 A  
DOCKED: ATOM     47  C36 UNL     1      10.469  -3.572  -8.872 +0.00 +0.00    +0.061 A  
DOCKED: ATOM     48  C38 UNL     1       9.303  -4.307  -9.128 +0.00 +0.00    +0.038 A  
DOCKED: BRANCH  47  49
DOCKED: ATOM     49  C37 UNL     1      11.763  -4.232  -8.578 +0.00 +0.00    +0.337 C  
DOCKED: ATOM     50  O8  UNL     1      12.847  -3.684  -8.521 +0.00 -0.00    -0.245 OA 
DOCKED: BRANCH  49  51
DOCKED: ATOM     51  O9  UNL     1      11.635  -5.553  -8.367 +0.00 -0.00    -0.477 OA 
DOCKED: ATOM     52  H36 UNL     1      10.753  -5.635  -7.946 +0.00 +0.00    +0.295 HD 
DOCKED: ENDBRANCH  49  51
DOCKED: ENDBRANCH  47  49
DOCKED: BRANCH  45  53
DOCKED: ATOM     53  C34 UNL     1       9.225  -0.031  -9.158 +0.00 +0.00    +0.337 C  
DOCKED: ATOM     54  O6  UNL     1       9.299   0.684  -8.177 +0.00 -0.00    -0.245 OA 
DOCKED: BRANCH  53  55
DOCKED: ATOM     55  O7  UNL     1       9.161   0.481 -10.398 +0.00 -0.00    -0.477 OA 
DOCKED: ATOM     56  H34 UNL     1       8.937   1.426 -10.258 +0.00 +0.00    +0.295 HD 
DOCKED: ENDBRANCH  53  55
DOCKED: ENDBRANCH  45  53
DOCKED: ENDBRANCH  41  43
DOCKED: ENDBRANCH  38  39
DOCKED: BRANCH  38  58
DOCKED: ATOM     57  C1  UNL     1       4.145  -4.375 -11.228 +0.00 +0.00    +0.009 C  
DOCKED: ATOM     58  C2  UNL     1       3.857  -4.932  -9.831 +0.00 +0.00    +0.012 C  
DOCKED: ATOM     59  C3  UNL     1       3.595  -3.780  -8.858 +0.00 +0.00    +0.009 C  
DOCKED: ENDBRANCH  38  58
DOCKED: ENDBRANCH  34  38
DOCKED: ENDBRANCH  33  35
DOCKED: ENDBRANCH   1  33
DOCKED: TORSDOF 19
DOCKED: TER
DOCKED: ENDMDL
________________________________________________________________________________


    FINAL DOCKED STATE:
    ________________________


Run:   7 / 20
Time taken for this run:   0.900s

DOCKED: MODEL        7
DOCKED: USER    Run = 7
DOCKED: USER
DOCKED: USER    Estimated Free Energy of Binding    =  +5.67 kcal/mol  [=(1)+(2)+(3)-(4)]
DOCKED: USER
DOCKED: USER    (1) Final Intermolecular Energy     =  +0.00 kcal/mol
DOCKED: USER        vdW + Hbond + desolv Energy     =  +0.00 kcal/mol
DOCKED: USER        Electrostatic Energy            =  +0.00 kcal/mol
DOCKED: USER        Moving Ligand-Fixed Receptor    =  +0.00 kcal/mol
DOCKED: USER        Moving Ligand-Moving Receptor   =  +0.00 kcal/mol
DOCKED: USER    (2) Final Total Internal Energy     = -11.89 kcal/mol
DOCKED: USER    (3) Torsional Free Energy           =  +5.67 kcal/mol
DOCKED: USER    (4) Unbound System's Energy         = -11.89 kcal/mol
DOCKED: USER
DOCKED: USER
DOCKED: REMARK  Name = ligands/ligand_2.pdb
DOCKED: REMARK  21 active torsions:
DOCKED: REMARK  status: ('A' for Active; 'I' for Inactive)
DOCKED: REMARK    1  A    between atoms: C1_1  and  C2_2
DOCKED: REMARK    2  A    between atoms: C2_2  and  C3_3
DOCKED: REMARK    3  A    between atoms: C2_2  and  C4_4
DOCKED: REMARK    4  A    between atoms: C4_4  and  N1_5
DOCKED: REMARK    5  A    between atoms: C4_4  and  C30_38
DOCKED: REMARK    6  A    between atoms: C5_6  and  C6_8
DOCKED: REMARK    7  A    between atoms: C6_8  and  C7_9
DOCKED: REMARK    8  A    between atoms: C7_9  and  O2_10
DOCKED: REMARK    9  A    between atoms: C7_9  and  C8_11
DOCKED: REMARK   10  A    between atoms: C8_11  and  C9_12
DOCKED: REMARK   11  A    between atoms: C8_11  and  N2_21
DOCKED: REMARK   12  A    between atoms: C9_12  and  C10_13
DOCKED: REMARK   13  A    between atoms: C16_22  and  C17_24
DOCKED: REMARK   14  A    between atoms: C17_24  and  O4_25
DOCKED: REMARK   15  A    between atoms: C17_24  and  C18_26
DOCKED: REMARK   16  A    between atoms: C23_31  and  C24_32
DOCKED: REMARK   17  A    between atoms: N3_40  and  C31_41
DOCKED: REMARK   18  A    between atoms: C33_43  and  C34_44
DOCKED: REMARK   19  A    between atoms: C34_44  and  O7_46
DOCKED: REMARK   20  A    between atoms: C36_48  and  C37_49
DOCKED: REMARK   21  A    between atoms: C37_49  and  O9_51
DOCKED: REMARK                            x       y       z     vdW  Elec       q    Type
DOCKED: REMARK                         _______ _______ _______ _____ _____    ______ ____
DOCKED: USER                              x       y       z     vdW  Elec       q    Type
DOCKED: USER                           _______ _______ _______ _____ _____    ______ ____
DOCKED: ROOT
DOCKED: ATOM      1  C7  UNL     1       8.949 -10.929  -2.523 +0.00 +0.00    +0.144 C  
DOCKED: ENDROOT
DOCKED: BRANCH   1   2
DOCKED: ATOM      2  O2  UNL     1       9.608 -10.945  -3.800 +0.00 -0.00    -0.389 OA 
DOCKED: ATOM      3  H13 UNL     1       8.917 -11.088  -4.475 +0.00 +0.00    +0.210 HD 
DOCKED: ENDBRANCH   1   2
DOCKED: BRANCH   1   4
DOCKED: ATOM      4  C8  UNL     1       8.178  -9.581  -2.340 +0.00 +0.00    +0.106 C  
DOCKED: BRANCH   4   5
DOCKED: ATOM      5  N2  UNL     1       8.121  -8.846  -3.608 +0.00 -0.00    -0.307 N  
DOCKED: ATOM      6  C16 UNL     1       7.422  -7.653  -3.725 +0.00 +0.00    +0.247 C  
DOCKED: ATOM      7  O3  UNL     1       6.727  -7.206  -2.817 +0.00 -0.00    -0.273 OA 
DOCKED: ATOM      8  H20 UNL     1       8.942  -8.923  -4.219 +0.00 +0.00    +0.149 HD 
DOCKED: BRANCH   6   9
DOCKED: ATOM      9  C17 UNL     1       7.605  -6.968  -5.108 +0.00 +0.00    +0.230 C  
DOCKED: BRANCH   9  10
DOCKED: ATOM     10  C18 UNL     1       8.886  -6.147  -5.180 +0.00 -0.00    -0.003 A  
DOCKED: ATOM     11  C19 UNL     1       8.881  -4.803  -4.748 +0.00 +0.00    +0.007 A  
DOCKED: ATOM     12  C20 UNL     1      10.037  -4.022  -4.796 +0.00 +0.00    +0.000 A  
DOCKED: ATOM     13  C21 UNL     1      11.227  -4.569  -5.261 +0.00 +0.00    +0.001 A  
DOCKED: ATOM     14  C22 UNL     1      11.257  -5.901  -5.676 +0.00 +0.00    +0.009 A  
DOCKED: ATOM     15  C23 UNL     1      10.104  -6.710  -5.635 +0.00 -0.00    -0.012 A  
DOCKED: BRANCH  15  16
DOCKED: ATOM     16  C24 UNL     1      10.229  -8.114  -6.048 +0.00 -0.00    -0.018 A  
DOCKED: ATOM     17  C25 UNL     1      11.266  -8.914  -5.549 +0.00 +0.00    +0.008 A  
DOCKED: ATOM     18  C26 UNL     1      11.392 -10.247  -5.943 +0.00 +0.00    +0.001 A  
DOCKED: ATOM     19  C27 UNL     1      10.481 -10.795  -6.844 +0.00 +0.00    +0.000 A  
DOCKED: ATOM     20  C28 UNL     1       9.448 -10.011  -7.354 +0.00 +0.00    +0.001 A  
DOCKED: ATOM     21  C29 UNL     1       9.321  -8.678  -6.957 +0.00 +0.00    +0.008 A  
DOCKED: ENDBRANCH  15  16
DOCKED: ENDBRANCH   9  10
DOCKED: BRANCH   9  22
DOCKED: ATOM     22  O4  UNL     1       6.488  -6.138  -5.456 +0.00 -0.00    -0.378 OA 
DOCKED: ATOM     23  H22 UNL     1       5.933  -6.080  -4.660 +0.00 +0.00    +0.211 HD 
DOCKED: ENDBRANCH   9  22
DOCKED: ENDBRANCH   6   9
DOCKED: ENDBRANCH   4   5
DOCKED: BRANCH   4  24
DOCKED: ATOM     24  C9  UNL     1       6.760  -9.669  -1.733 +0.00 +0.00    +0.060 C  
DOCKED: BRANCH  24  25
DOCKED: ATOM     25  C10 UNL     1       6.625  -9.214  -0.297 +0.00 -0.00    -0.040 A  
DOCKED: ATOM     26  C11 UNL     1       7.583  -9.558   0.669 +0.00 +0.00    +0.042 A  
DOCKED: ATOM     27  C12 UNL     1       7.451  -9.110   1.982 +0.00 +0.00    +0.126 A  
DOCKED: ATOM     28  F1  UNL     1       8.379  -9.450   2.887 +0.00 -0.00    -0.205 F  
DOCKED: ATOM     29  C13 UNL     1       6.382  -8.315   2.369 +0.00 +0.00    +0.076 A  
DOCKED: ATOM     30  C14 UNL     1       5.447  -7.954   1.410 +0.00 +0.00    +0.126 A  
DOCKED: ATOM     31  F2  UNL     1       4.409  -7.178   1.760 +0.00 -0.00    -0.205 F  
DOCKED: ATOM     32  C15 UNL     1       5.561  -8.383   0.088 +0.00 +0.00    +0.042 A  
DOCKED: ENDBRANCH  24  25
DOCKED: ENDBRANCH   4  24
DOCKED: ENDBRANCH   1   4
DOCKED: BRANCH   1  33
DOCKED: ATOM     33  C6  UNL     1      10.008 -11.265  -1.472 +0.00 +0.00    +0.129 C  
DOCKED: BRANCH  33  35
DOCKED: ATOM     34  N1  UNL     1      11.442  -9.418  -2.088 +0.00 -0.00    -0.304 N  
DOCKED: ATOM     35  C5  UNL     1      10.836 -10.077  -1.038 +0.00 +0.00    +0.216 C  
DOCKED: ATOM     36  O1  UNL     1      10.964  -9.732   0.133 +0.00 -0.00    -0.276 OA 
DOCKED: ATOM     37  H9  UNL     1      10.998  -9.531  -2.992 +0.00 +0.00    +0.149 HD 
DOCKED: BRANCH  34  38
DOCKED: ATOM     38  C4  UNL     1      12.068  -8.121  -1.853 +0.00 +0.00    +0.162 C  
DOCKED: BRANCH  38  39
DOCKED: ATOM     39  C30 UNL     1      10.964  -7.030  -1.838 +0.00 +0.00    +0.238 C  
DOCKED: ATOM     40  O5  UNL     1      10.869  -6.210  -2.750 +0.00 -0.00    -0.273 OA 
DOCKED: ATOM     41  N3  UNL     1      10.165  -7.092  -0.705 +0.00 -0.00    -0.284 N  
DOCKED: ATOM     42  H32 UNL     1      10.298  -7.898  -0.104 +0.00 +0.00    +0.155 HD 
DOCKED: BRANCH  41  43
DOCKED: ATOM     43  C31 UNL     1       9.094  -6.240  -0.360 +0.00 +0.00    +0.035 A  
DOCKED: ATOM     44  C32 UNL     1       8.615  -6.071   0.941 +0.00 +0.00    +0.038 A  
DOCKED: ATOM     45  C33 UNL     1       7.550  -5.192   1.198 +0.00 +0.00    +0.061 A  
DOCKED: ATOM     46  C35 UNL     1       6.962  -4.480   0.148 +0.00 +0.00    +0.030 A  
DOCKED: ATOM     47  C36 UNL     1       7.428  -4.651  -1.158 +0.00 +0.00    +0.061 A  
DOCKED: ATOM     48  C38 UNL     1       8.488  -5.533  -1.408 +0.00 +0.00    +0.038 A  
DOCKED: BRANCH  47  49
DOCKED: ATOM     49  C37 UNL     1       6.781  -3.874  -2.243 +0.00 +0.00    +0.337 C  
DOCKED: ATOM     50  O8  UNL     1       6.882  -2.675  -2.420 +0.00 -0.00    -0.245 OA 
DOCKED: BRANCH  49  51
DOCKED: ATOM     51  O9  UNL     1       6.039  -4.641  -3.059 +0.00 -0.00    -0.477 OA 
DOCKED: ATOM     52  H36 UNL     1       6.704  -5.187  -3.530 +0.00 +0.00    +0.295 HD 
DOCKED: ENDBRANCH  49  51
DOCKED: ENDBRANCH  47  49
DOCKED: BRANCH  45  53
DOCKED: ATOM     53  C34 UNL     1       7.014  -4.982   2.568 +0.00 +0.00    +0.337 C  
DOCKED: ATOM     54  O6  UNL     1       7.530  -5.367   3.599 +0.00 -0.00    -0.245 OA 
DOCKED: BRANCH  53  55
DOCKED: ATOM     55  O7  UNL     1       5.869  -4.279   2.575 +0.00 -0.00    -0.477 OA 
DOCKED: ATOM     56  H34 UNL     1       5.227  -4.868   3.023 +0.00 +0.00    +0.295 HD 
DOCKED: ENDBRANCH  53  55
DOCKED: ENDBRANCH  45  53
DOCKED: ENDBRANCH  41  43
DOCKED: ENDBRANCH  38  39
DOCKED: BRANCH  38  58
DOCKED: ATOM     57  C1  UNL     1      13.989  -9.002  -3.320 +0.00 +0.00    +0.009 C  
DOCKED: ATOM     58  C2  UNL     1      13.168  -7.785  -2.884 +0.00 +0.00    +0.012 C  
DOCKED: ATOM     59  C3  UNL     1      14.102  -6.694  -2.355 +0.00 +0.00    +0.009 C  
DOCKED: ENDBRANCH  38  58
DOCKED: ENDBRANCH  34  38
DOCKED: ENDBRANCH  33  35
DOCKED: ENDBRANCH   1  33
DOCKED: TORSDOF 19
DOCKED: TER
DOCKED: ENDMDL
________________________________________________________________________________


    FINAL DOCKED STATE:
    ________________________


Run:   8 / 20
Time taken for this run:   0.900s

DOCKED: MODEL        8
DOCKED: USER    Run = 8
DOCKED: USER
DOCKED: USER    Estimated Free Energy of Binding    =  +5.67 kcal/mol  [=(1)+(2)+(3)-(4)]
DOCKED: USER
DOCKED: USER    (1) Final Intermolecular Energy     =  +0.00 kcal/mol
DOCKED: USER        vdW + Hbond + desolv Energy     =  +0.00 kcal/mol
DOCKED: USER        Electrostatic Energy            =  +0.00 kcal/mol
DOCKED: USER        Moving Ligand-Fixed Receptor    =  +0.00 kcal/mol
DOCKED: USER        Moving Ligand-Moving Receptor   =  +0.00 kcal/mol
DOCKED: USER    (2) Final Total Internal Energy     = -11.89 kcal/mol
DOCKED: USER    (3) Torsional Free Energy           =  +5.67 kcal/mol
DOCKED: USER    (4) Unbound System's Energy         = -11.89 kcal/mol
DOCKED: USER
DOCKED: USER
DOCKED: REMARK  Name = ligands/ligand_2.pdb
DOCKED: REMARK  21 active torsions:
DOCKED: REMARK  status: ('A' for Active; 'I' for Inactive)
DOCKED: REMARK    1  A    between atoms: C1_1  and  C2_2
DOCKED: REMARK    2  A    between atoms: C2_2  and  C3_3
DOCKED: REMARK    3  A    between atoms: C2_2  and  C4_4
DOCKED: REMARK    4  A    between atoms: C4_4  and  N1_5
DOCKED: REMARK    5  A    between atoms: C4_4  and  C30_38
DOCKED: REMARK    6  A    between atoms: C5_6  and  C6_8
DOCKED: REMARK    7  A    between atoms: C6_8  and  C7_9
DOCKED: REMARK    8  A    between atoms: C7_9  and  O2_10
DOCKED: REMARK    9  A    between atoms: C7_9  and  C8_11
DOCKED: REMARK   10  A    between atoms: C8_11  and  C9_12
DOCKED: REMARK   11  A    between atoms: C8_11  and  N2_21
DOCKED: REMARK   12  A    between atoms: C9_12  and  C10_13
DOCKED: REMARK   13  A    between atoms: C16_22  and  C17_24
DOCKED: REMARK   14  A    between atoms: C17_24  and  O4_25
DOCKED: REMARK   15  A    between atoms: C17_24  and  C18_26
DOCKED: REMARK   16  A    between atoms: C23_31  and  C24_32
DOCKED: REMARK   17  A    between atoms: N3_40  and  C31_41
DOCKED: REMARK   18  A    between atoms: C33_43  and  C34_44
DOCKED: REMARK   19  A    between atoms: C34_44  and  O7_46
DOCKED: REMARK   20  A    between atoms: C36_48  and  C37_49
DOCKED: REMARK   21  A    between atoms: C37_49  and  O9_51
DOCKED: REMARK                            x       y       z     vdW  Elec       q    Type
DOCKED: REMARK                         _______ _______ _______ _____ _____    ______ ____
DOCKED: USER                              x       y       z     vdW  Elec       q    Type
DOCKED: USER                           _______ _______ _______ _____ _____    ______ ____
DOCKED: ROOT
DOCKED: ATOM      1  C7  UNL     1       6.935  -0.410  -3.683 +0.00 +0.00    +0.144 C  
DOCKED: ENDROOT
DOCKED: BRANCH   1   2
DOCKED: ATOM      2  O2  UNL     1       7.107  -0.756  -5.066 +0.00 -0.00    -0.389 OA 
DOCKED: ATOM      3  H13 UNL     1       6.612  -1.585  -5.216 +0.00 +0.00    +0.210 HD 
DOCKED: ENDBRANCH   1   2
DOCKED: BRANCH   1   4
DOCKED: ATOM      4  C8  UNL     1       6.117   0.917  -3.565 +0.00 +0.00    +0.106 C  
DOCKED: BRANCH   4   5
DOCKED: ATOM      5  N2  UNL     1       5.531   1.276  -4.861 +0.00 -0.00    -0.307 N  
DOCKED: ATOM      6  C16 UNL     1       4.709   2.385  -5.004 +0.00 +0.00    +0.247 C  
DOCKED: ATOM      7  O3  UNL     1       4.338   3.057  -4.045 +0.00 -0.00    -0.273 OA 
DOCKED: ATOM      8  H20 UNL     1       6.084   1.043  -5.693 +0.00 +0.00    +0.149 HD 
DOCKED: BRANCH   6   9
DOCKED: ATOM      9  C17 UNL     1       4.311   2.667  -6.480 +0.00 +0.00    +0.230 C  
DOCKED: BRANCH   9  10
DOCKED: ATOM     10  C18 UNL     1       5.379   3.458  -7.223 +0.00 -0.00    -0.003 A  
DOCKED: ATOM     11  C19 UNL     1       5.361   4.869  -7.180 +0.00 +0.00    +0.007 A  
DOCKED: ATOM     12  C20 UNL     1       6.326   5.626  -7.847 +0.00 +0.00    +0.000 A  
DOCKED: ATOM     13  C21 UNL     1       7.337   4.993  -8.559 +0.00 +0.00    +0.001 A  
DOCKED: ATOM     14  C22 UNL     1       7.382   3.599  -8.599 +0.00 +0.00    +0.009 A  
DOCKED: ATOM     15  C23 UNL     1       6.422   2.813  -7.933 +0.00 -0.00    -0.012 A  
DOCKED: BRANCH  15  16
DOCKED: ATOM     16  C24 UNL     1       6.564   1.352  -7.988 +0.00 -0.00    -0.018 A  
DOCKED: ATOM     17  C25 UNL     1       7.804   0.747  -7.740 +0.00 +0.00    +0.008 A  
DOCKED: ATOM     18  C26 UNL     1       7.944  -0.641  -7.797 +0.00 +0.00    +0.001 A  
DOCKED: ATOM     19  C27 UNL     1       6.845  -1.440  -8.106 +0.00 +0.00    +0.000 A  
DOCKED: ATOM     20  C28 UNL     1       5.608  -0.852  -8.362 +0.00 +0.00    +0.001 A  
DOCKED: ATOM     21  C29 UNL     1       5.467   0.535  -8.303 +0.00 +0.00    +0.008 A  
DOCKED: ENDBRANCH  15  16
DOCKED: ENDBRANCH   9  10
DOCKED: BRANCH   9  22
DOCKED: ATOM     22  O4  UNL     1       3.054   3.349  -6.583 +0.00 -0.00    -0.378 OA 
DOCKED: ATOM     23  H22 UNL     1       2.808   3.607  -5.678 +0.00 +0.00    +0.211 HD 
DOCKED: ENDBRANCH   9  22
DOCKED: ENDBRANCH   6   9
DOCKED: ENDBRANCH   4   5
DOCKED: BRANCH   4  24
DOCKED: ATOM     24  C9  UNL     1       5.022   0.963  -2.476 +0.00 +0.00    +0.060 C  
DOCKED: BRANCH  24  25
DOCKED: ATOM     25  C10 UNL     1       5.330   1.812  -1.263 +0.00 -0.00    -0.040 A  
DOCKED: ATOM     26  C11 UNL     1       6.585   1.760  -0.637 +0.00 +0.00    +0.042 A  
DOCKED: ATOM     27  C12 UNL     1       6.856   2.566   0.467 +0.00 +0.00    +0.126 A  
DOCKED: ATOM     28  F1  UNL     1       8.062   2.502   1.047 +0.00 -0.00    -0.205 F  
DOCKED: ATOM     29  C13 UNL     1       5.903   3.439   0.974 +0.00 +0.00    +0.076 A  
DOCKED: ATOM     30  C14 UNL     1       4.670   3.508   0.343 +0.00 +0.00    +0.126 A  
DOCKED: ATOM     31  F2  UNL     1       3.736   4.352   0.810 +0.00 -0.00    -0.205 F  
DOCKED: ATOM     32  C15 UNL     1       4.378   2.718  -0.769 +0.00 +0.00    +0.042 A  
DOCKED: ENDBRANCH  24  25
DOCKED: ENDBRANCH   4  24
DOCKED: ENDBRANCH   1   4
DOCKED: BRANCH   1  33
DOCKED: ATOM     33  C6  UNL     1       8.327  -0.419  -3.046 +0.00 +0.00    +0.129 C  
DOCKED: BRANCH  33  35
DOCKED: ATOM     34  N1  UNL     1       9.233   1.217  -4.579 +0.00 -0.00    -0.304 N  
DOCKED: ATOM     35  C5  UNL     1       9.101   0.862  -3.252 +0.00 +0.00    +0.216 C  
DOCKED: ATOM     36  O1  UNL     1       9.574   1.523  -2.332 +0.00 -0.00    -0.276 OA 
DOCKED: ATOM     37  H9  UNL     1       8.527   0.845  -5.204 +0.00 +0.00    +0.149 HD 
DOCKED: BRANCH  34  38
DOCKED: ATOM     38  C4  UNL     1       9.739   2.543  -4.918 +0.00 +0.00    +0.162 C  
DOCKED: BRANCH  38  39
DOCKED: ATOM     39  C30 UNL     1       8.582   3.568  -4.779 +0.00 +0.00    +0.238 C  
DOCKED: ATOM     40  O5  UNL     1       8.066   4.083  -5.770 +0.00 -0.00    -0.273 OA 
DOCKED: ATOM     41  N3  UNL     1       8.249   3.825  -3.457 +0.00 -0.00    -0.284 N  
DOCKED: ATOM     42  H32 UNL     1       8.687   3.233  -2.759 +0.00 +0.00    +0.155 HD 
DOCKED: BRANCH  41  43
DOCKED: ATOM     43  C31 UNL     1       7.270   4.719  -2.974 +0.00 +0.00    +0.035 A  
DOCKED: ATOM     44  C32 UNL     1       7.249   5.231  -1.675 +0.00 +0.00    +0.038 A  
DOCKED: ATOM     45  C33 UNL     1       6.242   6.128  -1.280 +0.00 +0.00    +0.061 A  
DOCKED: ATOM     46  C35 UNL     1       5.252   6.511  -2.188 +0.00 +0.00    +0.030 A  
DOCKED: ATOM     47  C36 UNL     1       5.258   5.995  -3.487 +0.00 +0.00    +0.061 A  
DOCKED: ATOM     48  C38 UNL     1       6.263   5.097  -3.873 +0.00 +0.00    +0.038 A  
DOCKED: BRANCH  47  49
DOCKED: ATOM     49  C37 UNL     1       4.193   6.431  -4.422 +0.00 +0.00    +0.337 C  
DOCKED: ATOM     50  O8  UNL     1       4.089   7.534  -4.923 +0.00 -0.00    -0.245 OA 
DOCKED: BRANCH  49  51
DOCKED: ATOM     51  O9  UNL     1       3.307   5.456  -4.688 +0.00 -0.00    -0.477 OA 
DOCKED: ATOM     52  H36 UNL     1       3.835   4.793  -5.183 +0.00 +0.00    +0.295 HD 
DOCKED: ENDBRANCH  49  51
DOCKED: ENDBRANCH  47  49
DOCKED: BRANCH  45  53
DOCKED: ATOM     53  C34 UNL     1       6.188   6.698   0.092 +0.00 +0.00    +0.337 C  
DOCKED: ATOM     54  O6  UNL     1       7.110   6.734   0.883 +0.00 -0.00    -0.245 OA 
DOCKED: BRANCH  53  55
DOCKED: ATOM     55  O7  UNL     1       4.984   7.214   0.391 +0.00 -0.00    -0.477 OA 
DOCKED: ATOM     56  H34 UNL     1       4.501   6.473   0.814 +0.00 +0.00    +0.295 HD 
DOCKED: ENDBRANCH  53  55
DOCKED: ENDBRANCH  45  53
DOCKED: ENDBRANCH  41  43
DOCKED: ENDBRANCH  38  39
DOCKED: BRANCH  38  58
DOCKED: ATOM     57  C1  UNL     1      11.156   1.346  -6.701 +0.00 +0.00    +0.009 C  
DOCKED: ATOM     58  C2  UNL     1      10.372   2.607  -6.326 +0.00 +0.00    +0.012 C  
DOCKED: ATOM     59  C3  UNL     1      11.271   3.837  -6.468 +0.00 +0.00    +0.009 C  
DOCKED: ENDBRANCH  38  58
DOCKED: ENDBRANCH  34  38
DOCKED: ENDBRANCH  33  35
DOCKED: ENDBRANCH   1  33
DOCKED: TORSDOF 19
DOCKED: TER
DOCKED: ENDMDL
________________________________________________________________________________


    FINAL DOCKED STATE:
    ________________________


Run:   9 / 20
Time taken for this run:   0.900s

DOCKED: MODEL        9
DOCKED: USER    Run = 9
DOCKED: USER
DOCKED: USER    Estimated Free Energy of Binding    =  +5.67 kcal/mol  [=(1)+(2)+(3)-(4)]
DOCKED: USER
DOCKED: USER    (1) Final Intermolecular Energy     =  +0.00 kcal/mol
DOCKED: USER        vdW + Hbond + desolv Energy     =  +0.00 kcal/mol
DOCKED: USER        Electrostatic Energy            =  +0.00 kcal/mol
DOCKED: USER        Moving Ligand-Fixed Receptor    =  +0.00 kcal/mol
DOCKED: USER        Moving Ligand-Moving Receptor   =  +0.00 kcal/mol
DOCKED: USER    (2) Final Total Internal Energy     = -12.10 kcal/mol
DOCKED: USER    (3) Torsional Free Energy           =  +5.67 kcal/mol
DOCKED: USER    (4) Unbound System's Energy         = -12.10 kcal/mol
DOCKED: USER
DOCKED: USER
DOCKED: REMARK  Name = ligands/ligand_2.pdb
DOCKED: REMARK  21 active torsions:
DOCKED: REMARK  status: ('A' for Active; 'I' for Inactive)
DOCKED: REMARK    1  A    between atoms: C1_1  and  C2_2
DOCKED: REMARK    2  A    between atoms: C2_2  and  C3_3
DOCKED: REMARK    3  A    between atoms: C2_2  and  C4_4
DOCKED: REMARK    4  A    between atoms: C4_4  and  N1_5
DOCKED: REMARK    5  A    between atoms: C4_4  and  C30_38
DOCKED: REMARK    6  A    between atoms: C5_6  and  C6_8
DOCKED: REMARK    7  A    between atoms: C6_8  and  C7_9
DOCKED: REMARK    8  A    between atoms: C7_9  and  O2_10
DOCKED: REMARK    9  A    between atoms: C7_9  and  C8_11
DOCKED: REMARK   10  A    between atoms: C8_11  and  C9_12
DOCKED: REMARK   11  A    between atoms: C8_11  and  N2_21
DOCKED: REMARK   12  A    between atoms: C9_12  and  C10_13
DOCKED: REMARK   13  A    between atoms: C16_22  and  C17_24
DOCKED: REMARK   14  A    between atoms: C17_24  and  O4_25
DOCKED: REMARK   15  A    between atoms: C17_24  and  C18_26
DOCKED: REMARK   16  A    between atoms: C23_31  and  C24_32
DOCKED: REMARK   17  A    between atoms: N3_40  and  C31_41
DOCKED: REMARK   18  A    between atoms: C33_43  and  C34_44
DOCKED: REMARK   19  A    between atoms: C34_44  and  O7_46
DOCKED: REMARK   20  A    between atoms: C36_48  and  C37_49
DOCKED: REMARK   21  A    between atoms: C37_49  and  O9_51
DOCKED: REMARK                            x       y       z     vdW  Elec       q    Type
DOCKED: REMARK                         _______ _______ _______ _____ _____    ______ ____
DOCKED: USER                              x       y       z     vdW  Elec       q    Type
DOCKED: USER                           _______ _______ _______ _____ _____    ______ ____
DOCKED: ROOT
DOCKED: ATOM      1  C7  UNL     1       2.036  -6.342  -0.325 +0.00 +0.00    +0.144 C  
DOCKED: ENDROOT
DOCKED: BRANCH   1   2
DOCKED: ATOM      2  O2  UNL     1       1.587  -4.997  -0.554 +0.00 -0.00    -0.389 OA 
DOCKED: ATOM      3  H13 UNL     1       2.290  -4.543  -1.058 +0.00 +0.00    +0.210 HD 
DOCKED: ENDBRANCH   1   2
DOCKED: BRANCH   1   4
DOCKED: ATOM      4  C8  UNL     1       3.482  -6.325   0.270 +0.00 +0.00    +0.106 C  
DOCKED: BRANCH   4   5
DOCKED: ATOM      5  N2  UNL     1       4.417  -5.696  -0.670 +0.00 -0.00    -0.307 N  
DOCKED: ATOM      6  C16 UNL     1       5.789  -5.854  -0.544 +0.00 +0.00    +0.247 C  
DOCKED: ATOM      7  O3  UNL     1       6.301  -6.429   0.414 +0.00 -0.00    -0.273 OA 
DOCKED: ATOM      8  H20 UNL     1       4.086  -5.578  -1.634 +0.00 +0.00    +0.149 HD 
DOCKED: BRANCH   6   9
DOCKED: ATOM      9  C17 UNL     1       6.589  -5.226  -1.720 +0.00 +0.00    +0.230 C  
DOCKED: BRANCH   9  10
DOCKED: ATOM     10  C18 UNL     1       6.942  -3.768  -1.461 +0.00 -0.00    -0.003 A  
DOCKED: ATOM     11  C19 UNL     1       5.945  -2.774  -1.583 +0.00 +0.00    +0.007 A  
DOCKED: ATOM     12  C20 UNL     1       6.233  -1.428  -1.350 +0.00 +0.00    +0.000 A  
DOCKED: ATOM     13  C21 UNL     1       7.515  -1.045  -0.977 +0.00 +0.00    +0.001 A  
DOCKED: ATOM     14  C22 UNL     1       8.509  -2.013  -0.834 +0.00 +0.00    +0.009 A  
DOCKED: ATOM     15  C23 UNL     1       8.244  -3.378  -1.062 +0.00 -0.00    -0.012 A  
DOCKED: BRANCH  15  16
DOCKED: ATOM     16  C24 UNL     1       9.334  -4.339  -0.847 +0.00 -0.00    -0.018 A  
DOCKED: ATOM     17  C25 UNL     1      10.346  -4.495  -1.804 +0.00 +0.00    +0.008 A  
DOCKED: ATOM     18  C26 UNL     1      11.380  -5.412  -1.607 +0.00 +0.00    +0.001 A  
DOCKED: ATOM     19  C27 UNL     1      11.411  -6.188  -0.449 +0.00 +0.00    +0.000 A  
DOCKED: ATOM     20  C28 UNL     1      10.408  -6.049   0.508 +0.00 +0.00    +0.001 A  
DOCKED: ATOM     21  C29 UNL     1       9.376  -5.129   0.312 +0.00 +0.00    +0.008 A  
DOCKED: ENDBRANCH  15  16
DOCKED: ENDBRANCH   9  10
DOCKED: BRANCH   9  22
DOCKED: ATOM     22  O4  UNL     1       5.894  -5.334  -2.970 +0.00 -0.00    -0.378 OA 
DOCKED: ATOM     23  H22 UNL     1       4.946  -5.298  -2.759 +0.00 +0.00    +0.211 HD 
DOCKED: ENDBRANCH   9  22
DOCKED: ENDBRANCH   6   9
DOCKED: ENDBRANCH   4   5
DOCKED: BRANCH   4  24
DOCKED: ATOM     24  C9  UNL     1       3.651  -5.686   1.667 +0.00 +0.00    +0.060 C  
DOCKED: BRANCH  24  25
DOCKED: ATOM     25  C10 UNL     1       4.145  -4.257   1.686 +0.00 -0.00    -0.040 A  
DOCKED: ATOM     26  C11 UNL     1       5.417  -3.934   2.181 +0.00 +0.00    +0.042 A  
DOCKED: ATOM     27  C12 UNL     1       5.863  -2.613   2.171 +0.00 +0.00    +0.126 A  
DOCKED: ATOM     28  F1  UNL     1       7.083  -2.328   2.646 +0.00 -0.00    -0.205 F  
DOCKED: ATOM     29  C13 UNL     1       5.070  -1.589   1.672 +0.00 +0.00    +0.076 A  
DOCKED: ATOM     30  C14 UNL     1       3.821  -1.910   1.161 +0.00 +0.00    +0.126 A  
DOCKED: ATOM     31  F2  UNL     1       3.042  -0.937   0.664 +0.00 -0.00    -0.205 F  
DOCKED: ATOM     32  C15 UNL     1       3.357  -3.225   1.153 +0.00 +0.00    +0.042 A  
DOCKED: ENDBRANCH  24  25
DOCKED: ENDBRANCH   4  24
DOCKED: ENDBRANCH   1   4
DOCKED: BRANCH   1  33
DOCKED: ATOM     33  C6  UNL     1       1.840  -7.105  -1.637 +0.00 +0.00    +0.129 C  
DOCKED: BRANCH  33  35
DOCKED: ATOM     34  N1  UNL     1       1.416  -5.378  -3.275 +0.00 -0.00    -0.304 N  
DOCKED: ATOM     35  C5  UNL     1       2.305  -6.348  -2.859 +0.00 +0.00    +0.216 C  
DOCKED: ATOM     36  O1  UNL     1       3.366  -6.574  -3.433 +0.00 -0.00    -0.276 OA 
DOCKED: ATOM     37  H9  UNL     1       0.789  -5.022  -2.561 +0.00 +0.00    +0.149 HD 
DOCKED: BRANCH  34  38
DOCKED: ATOM     38  C4  UNL     1       1.833  -4.410  -4.284 +0.00 +0.00    +0.162 C  
DOCKED: BRANCH  38  39
DOCKED: ATOM     39  C30 UNL     1       3.163  -3.753  -3.826 +0.00 +0.00    +0.238 C  
DOCKED: ATOM     40  O5  UNL     1       3.493  -3.747  -2.641 +0.00 -0.00    -0.273 OA 
DOCKED: ATOM     41  N3  UNL     1       3.870  -3.186  -4.876 +0.00 -0.00    -0.284 N  
DOCKED: ATOM     42  H32 UNL     1       3.522  -3.377  -5.810 +0.00 +0.00    +0.155 HD 
DOCKED: BRANCH  41  43
DOCKED: ATOM     43  C31 UNL     1       5.095  -2.489  -4.811 +0.00 +0.00    +0.035 A  
DOCKED: ATOM     44  C32 UNL     1       5.202  -1.098  -4.745 +0.00 +0.00    +0.038 A  
DOCKED: ATOM     45  C33 UNL     1       6.464  -0.485  -4.669 +0.00 +0.00    +0.061 A  
DOCKED: ATOM     46  C35 UNL     1       7.623  -1.267  -4.663 +0.00 +0.00    +0.030 A  
DOCKED: ATOM     47  C36 UNL     1       7.525  -2.659  -4.740 +0.00 +0.00    +0.061 A  
DOCKED: ATOM     48  C38 UNL     1       6.264  -3.264  -4.819 +0.00 +0.00    +0.038 A  
DOCKED: BRANCH  47  49
DOCKED: ATOM     49  C37 UNL     1       8.777  -3.453  -4.725 +0.00 +0.00    +0.337 C  
DOCKED: ATOM     50  O8  UNL     1       9.897  -3.026  -4.928 +0.00 -0.00    -0.245 OA 
DOCKED: BRANCH  49  51
DOCKED: ATOM     51  O9  UNL     1       8.564  -4.752  -4.450 +0.00 -0.00    -0.477 OA 
DOCKED: ATOM     52  H36 UNL     1       7.755  -4.740  -3.895 +0.00 +0.00    +0.295 HD 
DOCKED: ENDBRANCH  49  51
DOCKED: ENDBRANCH  47  49
DOCKED: BRANCH  45  53
DOCKED: ATOM     53  C34 UNL     1       6.621   0.991  -4.594 +0.00 +0.00    +0.337 C  
DOCKED: ATOM     54  O6  UNL     1       6.434   1.676  -3.606 +0.00 -0.00    -0.245 OA 
DOCKED: BRANCH  53  55
DOCKED: ATOM     55  O7  UNL     1       7.025   1.530  -5.756 +0.00 -0.00    -0.477 OA 
DOCKED: ATOM     56  H34 UNL     1       6.484   2.343  -5.847 +0.00 +0.00    +0.295 HD 
DOCKED: ENDBRANCH  53  55
DOCKED: ENDBRANCH  45  53
DOCKED: ENDBRANCH  41  43
DOCKED: ENDBRANCH  38  39
DOCKED: BRANCH  38  58
DOCKED: ATOM     57  C1  UNL     1       0.816  -2.791  -6.006 +0.00 +0.00    +0.009 C  
DOCKED: ATOM     58  C2  UNL     1       0.757  -3.341  -4.578 +0.00 +0.00    +0.012 C  
DOCKED: ATOM     59  C3  UNL     1       0.843  -2.187  -3.576 +0.00 +0.00    +0.009 C  
DOCKED: ENDBRANCH  38  58
DOCKED: ENDBRANCH  34  38
DOCKED: ENDBRANCH  33  35
DOCKED: ENDBRANCH   1  33
DOCKED: TORSDOF 19
DOCKED: TER
DOCKED: ENDMDL
________________________________________________________________________________


    FINAL DOCKED STATE:
    ________________________


Run:   10 / 20
Time taken for this run:   0.900s

DOCKED: MODEL        10
DOCKED: USER    Run = 10
DOCKED: USER
DOCKED: USER    Estimated Free Energy of Binding    =  +5.67 kcal/mol  [=(1)+(2)+(3)-(4)]
DOCKED: USER
DOCKED: USER    (1) Final Intermolecular Energy     =  +0.00 kcal/mol
DOCKED: USER        vdW + Hbond + desolv Energy     =  +0.00 kcal/mol
DOCKED: USER        Electrostatic Energy            =  +0.00 kcal/mol
DOCKED: USER        Moving Ligand-Fixed Receptor    =  +0.00 kcal/mol
DOCKED: USER        Moving Ligand-Moving Receptor   =  +0.00 kcal/mol
DOCKED: USER    (2) Final Total Internal Energy     = -12.10 kcal/mol
DOCKED: USER    (3) Torsional Free Energy           =  +5.67 kcal/mol
DOCKED: USER    (4) Unbound System's Energy         = -12.10 kcal/mol
DOCKED: USER
DOCKED: USER
DOCKED: REMARK  Name = ligands/ligand_2.pdb
DOCKED: REMARK  21 active torsions:
DOCKED: REMARK  status: ('A' for Active; 'I' for Inactive)
DOCKED: REMARK    1  A    between atoms: C1_1  and  C2_2
DOCKED: REMARK    2  A    between atoms: C2_2  and  C3_3
DOCKED: REMARK    3  A    between atoms: C2_2  and  C4_4
DOCKED: REMARK    4  A    between atoms: C4_4  and  N1_5
DOCKED: REMARK    5  A    between atoms: C4_4  and  C30_38
DOCKED: REMARK    6  A    between atoms: C5_6  and  C6_8
DOCKED: REMARK    7  A    between atoms: C6_8  and  C7_9
DOCKED: REMARK    8  A    between atoms: C7_9  and  O2_10
DOCKED: REMARK    9  A    between atoms: C7_9  and  C8_11
DOCKED: REMARK   10  A    between atoms: C8_11  and  C9_12
DOCKED: REMARK   11  A    between atoms: C8_11  and  N2_21
DOCKED: REMARK   12  A    between atoms: C9_12  and  C10_13
DOCKED: REMARK   13  A    between atoms: C16_22  and  C17_24
DOCKED: REMARK   14  A    between atoms: C17_24  and  O4_25
DOCKED: REMARK   15  A    between atoms: C17_24  and  C18_26
DOCKED: REMARK   16  A    between atoms: C23_31  and  C24_32
DOCKED: REMARK   17  A    between atoms: N3_40  and  C31_41
DOCKED: REMARK   18  A    between atoms: C33_43  and  C34_44
DOCKED: REMARK   19  A    between atoms: C34_44  and  O7_46
DOCKED: REMARK   20  A    between atoms: C36_48  and  C37_49
DOCKED: REMARK   21  A    between atoms: C37_49  and  O9_51
DOCKED: REMARK                            x       y       z     vdW  Elec       q    Type
DOCKED: REMARK                         _______ _______ _______ _____ _____    ______ ____
DOCKED: USER                              x       y       z     vdW  Elec       q    Type
DOCKED: USER                           _______ _______ _______ _____ _____    ______ ____
DOCKED: ROOT
DOCKED: ATOM      1  C7  UNL     1       9.978  -5.808   1.449 +0.00 +0.00    +0.144 C  
DOCKED: ENDROOT
DOCKED: BRANCH   1   2
DOCKED: ATOM      2  O2  UNL     1      11.146  -5.470   2.213 +0.00 -0.00    -0.389 OA 
DOCKED: ATOM      3  H13 UNL     1      11.699  -4.895   1.649 +0.00 +0.00    +0.210 HD 
DOCKED: ENDBRANCH   1   2
DOCKED: BRANCH   1   4
DOCKED: ATOM      4  C8  UNL     1      10.402  -6.415   0.072 +0.00 +0.00    +0.106 C  
DOCKED: BRANCH   4   5
DOCKED: ATOM      5  N2  UNL     1      11.154  -5.430  -0.714 +0.00 -0.00    -0.307 N  
DOCKED: ATOM      6  C16 UNL     1      11.294  -5.552  -2.089 +0.00 +0.00    +0.247 C  
DOCKED: ATOM      7  O3  UNL     1      10.899  -6.538  -2.706 +0.00 -0.00    -0.273 OA 
DOCKED: ATOM      8  H20 UNL     1      11.141  -4.464  -0.369 +0.00 +0.00    +0.149 HD 
DOCKED: BRANCH   6   9
DOCKED: ATOM      9  C17 UNL     1      12.004  -4.334  -2.743 +0.00 +0.00    +0.230 C  
DOCKED: BRANCH   9  10
DOCKED: ATOM     10  C18 UNL     1      13.519  -4.479  -2.738 +0.00 -0.00    -0.003 A  
DOCKED: ATOM     11  C19 UNL     1      14.241  -4.238  -1.548 +0.00 +0.00    +0.007 A  
DOCKED: ATOM     12  C20 UNL     1      15.630  -4.365  -1.506 +0.00 +0.00    +0.000 A  
DOCKED: ATOM     13  C21 UNL     1      16.329  -4.748  -2.644 +0.00 +0.00    +0.001 A  
DOCKED: ATOM     14  C22 UNL     1      15.633  -5.008  -3.825 +0.00 +0.00    +0.009 A  
DOCKED: ATOM     15  C23 UNL     1      14.231  -4.889  -3.892 +0.00 -0.00    -0.012 A  
DOCKED: BRANCH  15  16
DOCKED: ATOM     16  C24 UNL     1      13.568  -5.223  -5.160 +0.00 -0.00    -0.018 A  
DOCKED: ATOM     17  C25 UNL     1      13.352  -4.236  -6.132 +0.00 +0.00    +0.008 A  
DOCKED: ATOM     18  C26 UNL     1      12.717  -4.548  -7.336 +0.00 +0.00    +0.001 A  
DOCKED: ATOM     19  C27 UNL     1      12.288  -5.851  -7.580 +0.00 +0.00    +0.000 A  
DOCKED: ATOM     20  C28 UNL     1      12.490  -6.841  -6.620 +0.00 +0.00    +0.001 A  
DOCKED: ATOM     21  C29 UNL     1      13.127  -6.530  -5.417 +0.00 +0.00    +0.008 A  
DOCKED: ENDBRANCH  15  16
DOCKED: ENDBRANCH   9  10
DOCKED: BRANCH   9  22
DOCKED: ATOM     22  O4  UNL     1      11.641  -3.094  -2.120 +0.00 -0.00    -0.378 OA 
DOCKED: ATOM     23  H22 UNL     1      11.572  -3.277  -1.167 +0.00 +0.00    +0.211 HD 
DOCKED: ENDBRANCH   9  22
DOCKED: ENDBRANCH   6   9
DOCKED: ENDBRANCH   4   5
DOCKED: BRANCH   4  24
DOCKED: ATOM     24  C9  UNL     1      11.184  -7.746   0.111 +0.00 +0.00    +0.060 C  
DOCKED: BRANCH  24  25
DOCKED: ATOM     25  C10 UNL     1      12.681  -7.640  -0.071 +0.00 -0.00    -0.040 A  
DOCKED: ATOM     26  C11 UNL     1      13.305  -8.086  -1.245 +0.00 +0.00    +0.042 A  
DOCKED: ATOM     27  C12 UNL     1      14.685  -7.960  -1.402 +0.00 +0.00    +0.126 A  
DOCKED: ATOM     28  F1  UNL     1      15.259  -8.390  -2.534 +0.00 -0.00    -0.205 F  
DOCKED: ATOM     29  C13 UNL     1      15.474  -7.392  -0.412 +0.00 +0.00    +0.076 A  
DOCKED: ATOM     30  C14 UNL     1      14.856  -6.929   0.740 +0.00 +0.00    +0.126 A  
DOCKED: ATOM     31  F2  UNL     1      15.598  -6.368   1.707 +0.00 -0.00    -0.205 F  
DOCKED: ATOM     32  C15 UNL     1      13.476  -7.037   0.917 +0.00 +0.00    +0.042 A  
DOCKED: ENDBRANCH  24  25
DOCKED: ENDBRANCH   4  24
DOCKED: ENDBRANCH   1   4
DOCKED: BRANCH   1  33
DOCKED: ATOM     33  C6  UNL     1       9.096  -4.558   1.408 +0.00 +0.00    +0.129 C  
DOCKED: BRANCH  33  35
DOCKED: ATOM     34  N1  UNL     1      10.535  -2.791   2.216 +0.00 -0.00    -0.304 N  
DOCKED: ATOM     35  C5  UNL     1       9.856  -3.283   1.121 +0.00 +0.00    +0.216 C  
DOCKED: ATOM     36  O1  UNL     1       9.865  -2.733   0.024 +0.00 -0.00    -0.276 OA 
DOCKED: ATOM     37  H9  UNL     1      10.770  -3.472   2.930 +0.00 +0.00    +0.149 HD 
DOCKED: BRANCH  34  38
DOCKED: ATOM     38  C4  UNL     1      11.501  -1.712   2.034 +0.00 +0.00    +0.162 C  
DOCKED: BRANCH  38  39
DOCKED: ATOM     39  C30 UNL     1      12.478  -2.106   0.894 +0.00 +0.00    +0.238 C  
DOCKED: ATOM     40  O5  UNL     1      12.673  -3.285   0.603 +0.00 -0.00    -0.273 OA 
DOCKED: ATOM     41  N3  UNL     1      13.082  -1.006   0.302 +0.00 -0.00    -0.284 N  
DOCKED: ATOM     42  H32 UNL     1      12.728  -0.095   0.576 +0.00 +0.00    +0.155 HD 
DOCKED: BRANCH  41  43
DOCKED: ATOM     43  C31 UNL     1      14.037  -1.004  -0.738 +0.00 +0.00    +0.035 A  
DOCKED: ATOM     44  C32 UNL     1      15.417  -0.943  -0.534 +0.00 +0.00    +0.038 A  
DOCKED: ATOM     45  C33 UNL     1      16.298  -0.959  -1.628 +0.00 +0.00    +0.061 A  
DOCKED: ATOM     46  C35 UNL     1      15.796  -1.033  -2.930 +0.00 +0.00    +0.030 A  
DOCKED: ATOM     47  C36 UNL     1      14.416  -1.084  -3.144 +0.00 +0.00    +0.061 A  
DOCKED: ATOM     48  C38 UNL     1      13.542  -1.063  -2.048 +0.00 +0.00    +0.038 A  
DOCKED: BRANCH  47  49
DOCKED: ATOM     49  C37 UNL     1      13.923  -1.168  -4.540 +0.00 +0.00    +0.337 C  
DOCKED: ATOM     50  O8  UNL     1      14.582  -0.973  -5.543 +0.00 -0.00    -0.245 OA 
DOCKED: BRANCH  49  51
DOCKED: ATOM     51  O9  UNL     1      12.622  -1.496  -4.611 +0.00 -0.00    -0.477 OA 
DOCKED: ATOM     52  H36 UNL     1      12.489  -2.081  -3.834 +0.00 +0.00    +0.295 HD 
DOCKED: ENDBRANCH  49  51
DOCKED: ENDBRANCH  47  49
DOCKED: BRANCH  45  53
DOCKED: ATOM     53  C34 UNL     1      17.773  -0.899  -1.453 +0.00 +0.00    +0.337 C  
DOCKED: ATOM     54  O6  UNL     1      18.478  -1.804  -1.049 +0.00 -0.00    -0.245 OA 
DOCKED: BRANCH  53  55
DOCKED: ATOM     55  O7  UNL     1      18.291   0.286  -1.816 +0.00 -0.00    -0.477 OA 
DOCKED: ATOM     56  H34 UNL     1      18.759   0.602  -1.014 +0.00 +0.00    +0.295 HD 
DOCKED: ENDBRANCH  53  55
DOCKED: ENDBRANCH  45  53
DOCKED: ENDBRANCH  41  43
DOCKED: ENDBRANCH  38  39
DOCKED: BRANCH  38  58
DOCKED: ATOM     57  C1  UNL     1      12.910   0.027   3.302 +0.00 +0.00    +0.009 C  
DOCKED: ATOM     58  C2  UNL     1      12.270  -1.364   3.328 +0.00 +0.00    +0.012 C  
DOCKED: ATOM     59  C3  UNL     1      13.336  -2.418   3.634 +0.00 +0.00    +0.009 C  
DOCKED: ENDBRANCH  38  58
DOCKED: ENDBRANCH  34  38
DOCKED: ENDBRANCH  33  35
DOCKED: ENDBRANCH   1  33
DOCKED: TORSDOF 19
DOCKED: TER
DOCKED: ENDMDL
________________________________________________________________________________


    FINAL DOCKED STATE:
    ________________________


Run:   11 / 20
Time taken for this run:   0.900s

DOCKED: MODEL        11
DOCKED: USER    Run = 11
DOCKED: USER
DOCKED: USER    Estimated Free Energy of Binding    =  +5.67 kcal/mol  [=(1)+(2)+(3)-(4)]
DOCKED: USER
DOCKED: USER    (1) Final Intermolecular Energy     =  +0.00 kcal/mol
DOCKED: USER        vdW + Hbond + desolv Energy     =  +0.00 kcal/mol
DOCKED: USER        Electrostatic Energy            =  +0.00 kcal/mol
DOCKED: USER        Moving Ligand-Fixed Receptor    =  +0.00 kcal/mol
DOCKED: USER        Moving Ligand-Moving Receptor   =  +0.00 kcal/mol
DOCKED: USER    (2) Final Total Internal Energy     = -12.10 kcal/mol
DOCKED: USER    (3) Torsional Free Energy           =  +5.67 kcal/mol
DOCKED: USER    (4) Unbound System's Energy         = -12.10 kcal/mol
DOCKED: USER
DOCKED: USER
DOCKED: REMARK  Name = ligands/ligand_2.pdb
DOCKED: REMARK  21 active torsions:
DOCKED: REMARK  status: ('A' for Active; 'I' for Inactive)
DOCKED: REMARK    1  A    between atoms: C1_1  and  C2_2
DOCKED: REMARK    2  A    between atoms: C2_2  and  C3_3
DOCKED: REMARK    3  A    between atoms: C2_2  and  C4_4
DOCKED: REMARK    4  A    between atoms: C4_4  and  N1_5
DOCKED: REMARK    5  A    between atoms: C4_4  and  C30_38
DOCKED: REMARK    6  A    between atoms: C5_6  and  C6_8
DOCKED: REMARK    7  A    between atoms: C6_8  and  C7_9
DOCKED: REMARK    8  A    between atoms: C7_9  and  O2_10
DOCKED: REMARK    9  A    between atoms: C7_9  and  C8_11
DOCKED: REMARK   10  A    between atoms: C8_11  and  C9_12
DOCKED: REMARK   11  A    between atoms: C8_11  and  N2_21
DOCKED: REMARK   12  A    between atoms: C9_12  and  C10_13
DOCKED: REMARK   13  A    between atoms: C16_22  and  C17_24
DOCKED: REMARK   14  A    between atoms: C17_24  and  O4_25
DOCKED: REMARK   15  A    between atoms: C17_24  and  C18_26
DOCKED: REMARK   16  A    between atoms: C23_31  and  C24_32
DOCKED: REMARK   17  A    between atoms: N3_40  and  C31_41
DOCKED: REMARK   18  A    between atoms: C33_43  and  C34_44
DOCKED: REMARK   19  A    between atoms: C34_44  and  O7_46
DOCKED: REMARK   20  A    between atoms: C36_48  and  C37_49
DOCKED: REMARK   21  A    between atoms: C37_49  and  O9_51
DOCKED: REMARK                            x       y       z     vdW  Elec       q    Type
DOCKED: REMARK                         _______ _______ _______ _____ _____    ______ ____
DOCKED: USER                              x       y       z     vdW  Elec       q    Type
DOCKED: USER                           _______ _______ _______ _____ _____    ______ ____
DOCKED: ROOT
DOCKED: ATOM      1  C7  UNL     1       8.242  -4.956  -1.358 +0.00 +0.00    +0.144 C  
DOCKED: ENDROOT
DOCKED: BRANCH   1   2
DOCKED: ATOM      2  O2  UNL     1       9.094  -6.072  -1.660 +0.00 -0.00    -0.389 OA 
DOCKED: ATOM      3  H13 UNL     1       8.583  -6.673  -2.236 +0.00 +0.00    +0.210 HD 
DOCKED: ENDBRANCH   1   2
DOCKED: BRANCH   1   4
DOCKED: ATOM      4  C8  UNL     1       6.860  -5.469  -0.836 +0.00 +0.00    +0.106 C  
DOCKED: BRANCH   4   5
DOCKED: ATOM      5  N2  UNL     1       6.185  -6.265  -1.866 +0.00 -0.00    -0.307 N  
DOCKED: ATOM      6  C16 UNL     1       4.824  -6.529  -1.805 +0.00 +0.00    +0.247 C  
DOCKED: ATOM      7  O3  UNL     1       4.136  -6.212  -0.838 +0.00 -0.00    -0.273 OA 
DOCKED: ATOM      8  H20 UNL     1       6.566  -6.199  -2.817 +0.00 +0.00    +0.149 HD 
DOCKED: BRANCH   6   9
DOCKED: ATOM      9  C17 UNL     1       4.284  -7.265  -3.063 +0.00 +0.00    +0.230 C  
DOCKED: BRANCH   9  10
DOCKED: ATOM     10  C18 UNL     1       4.385  -8.779  -2.931 +0.00 -0.00    -0.003 A  
DOCKED: ATOM     11  C19 UNL     1       5.640  -9.412  -3.073 +0.00 +0.00    +0.007 A  
DOCKED: ATOM     12  C20 UNL     1       5.770 -10.796  -2.955 +0.00 +0.00    +0.000 A  
DOCKED: ATOM     13  C21 UNL     1       4.655 -11.579  -2.679 +0.00 +0.00    +0.001 A  
DOCKED: ATOM     14  C22 UNL     1       3.410 -10.971  -2.518 +0.00 +0.00    +0.009 A  
DOCKED: ATOM     15  C23 UNL     1       3.253  -9.576  -2.630 +0.00 -0.00    -0.012 A  
DOCKED: BRANCH  15  16
DOCKED: ATOM     16  C24 UNL     1       1.917  -9.008  -2.404 +0.00 -0.00    -0.018 A  
DOCKED: ATOM     17  C25 UNL     1       0.936  -9.074  -3.403 +0.00 +0.00    +0.008 A  
DOCKED: ATOM     18  C26 UNL     1      -0.333  -8.531  -3.194 +0.00 +0.00    +0.001 A  
DOCKED: ATOM     19  C27 UNL     1      -0.634  -7.912  -1.982 +0.00 +0.00    +0.000 A  
DOCKED: ATOM     20  C28 UNL     1       0.332  -7.834  -0.982 +0.00 +0.00    +0.001 A  
DOCKED: ATOM     21  C29 UNL     1       1.601  -8.380  -1.190 +0.00 +0.00    +0.008 A  
DOCKED: ENDBRANCH  15  16
DOCKED: ENDBRANCH   9  10
DOCKED: BRANCH   9  22
DOCKED: ATOM     22  O4  UNL     1       4.947  -6.846  -4.264 +0.00 -0.00    -0.378 OA 
DOCKED: ATOM     23  H22 UNL     1       5.864  -6.643  -4.014 +0.00 +0.00    +0.211 HD 
DOCKED: ENDBRANCH   9  22
DOCKED: ENDBRANCH   6   9
DOCKED: ENDBRANCH   4   5
DOCKED: BRANCH   4  24
DOCKED: ATOM     24  C9  UNL     1       6.869  -6.253   0.495 +0.00 +0.00    +0.060 C  
DOCKED: BRANCH  24  25
DOCKED: ATOM     25  C10 UNL     1       6.829  -7.760   0.377 +0.00 -0.00    -0.040 A  
DOCKED: ATOM     26  C11 UNL     1       5.702  -8.492   0.777 +0.00 +0.00    +0.042 A  
DOCKED: ATOM     27  C12 UNL     1       5.677  -9.879   0.639 +0.00 +0.00    +0.126 A  
DOCKED: ATOM     28  F1  UNL     1       4.589 -10.558   1.026 +0.00 -0.00    -0.205 F  
DOCKED: ATOM     29  C13 UNL     1       6.755 -10.570   0.104 +0.00 +0.00    +0.076 A  
DOCKED: ATOM     30  C14 UNL     1       7.862  -9.845  -0.314 +0.00 +0.00    +0.126 A  
DOCKED: ATOM     31  F2  UNL     1       8.912 -10.491  -0.844 +0.00 -0.00    -0.205 F  
DOCKED: ATOM     32  C15 UNL     1       7.906  -8.456  -0.194 +0.00 +0.00    +0.042 A  
DOCKED: ENDBRANCH  24  25
DOCKED: ENDBRANCH   4  24
DOCKED: ENDBRANCH   1   4
DOCKED: BRANCH   1  33
DOCKED: ATOM     33  C6  UNL     1       8.220  -4.064  -2.601 +0.00 +0.00    +0.129 C  
DOCKED: BRANCH  33  35
DOCKED: ATOM     34  N1  UNL     1       9.199  -5.438  -4.333 +0.00 -0.00    -0.304 N  
DOCKED: ATOM     35  C5  UNL     1       8.043  -4.825  -3.895 +0.00 +0.00    +0.216 C  
DOCKED: ATOM     36  O1  UNL     1       6.979  -4.887  -4.504 +0.00 -0.00    -0.276 OA 
DOCKED: ATOM     37  H9  UNL     1       9.886  -5.642  -3.617 +0.00 +0.00    +0.149 HD 
DOCKED: BRANCH  34  38
DOCKED: ATOM     38  C4  UNL     1       9.127  -6.402  -5.428 +0.00 +0.00    +0.162 C  
DOCKED: BRANCH  38  39
DOCKED: ATOM     39  C30 UNL     1       8.043  -7.459  -5.090 +0.00 +0.00    +0.238 C  
DOCKED: ATOM     40  O5  UNL     1       7.707  -7.677  -3.927 +0.00 -0.00    -0.273 OA 
DOCKED: ATOM     41  N3  UNL     1       7.554  -8.105  -6.218 +0.00 -0.00    -0.284 N  
DOCKED: ATOM     42  H32 UNL     1       7.847  -7.730  -7.114 +0.00 +0.00    +0.155 HD 
DOCKED: BRANCH  41  43
DOCKED: ATOM     43  C31 UNL     1       6.588  -9.133  -6.270 +0.00 +0.00    +0.035 A  
DOCKED: ATOM     44  C32 UNL     1       6.896 -10.494  -6.325 +0.00 +0.00    +0.038 A  
DOCKED: ATOM     45  C33 UNL     1       5.870 -11.453  -6.363 +0.00 +0.00    +0.061 A  
DOCKED: ATOM     46  C35 UNL     1       4.533 -11.048  -6.346 +0.00 +0.00    +0.030 A  
DOCKED: ATOM     47  C36 UNL     1       4.215  -9.688  -6.301 +0.00 +0.00    +0.061 A  
DOCKED: ATOM     48  C38 UNL     1       5.244  -8.736  -6.269 +0.00 +0.00    +0.038 A  
DOCKED: BRANCH  47  49
DOCKED: ATOM     49  C37 UNL     1       2.785  -9.299  -6.279 +0.00 +0.00    +0.337 C  
DOCKED: ATOM     50  O8  UNL     1       1.842 -10.033  -6.502 +0.00 -0.00    -0.245 OA 
DOCKED: BRANCH  49  51
DOCKED: ATOM     51  O9  UNL     1       2.605  -8.003  -5.974 +0.00 -0.00    -0.477 OA 
DOCKED: ATOM     52  H36 UNL     1       3.346  -7.804  -5.364 +0.00 +0.00    +0.295 HD 
DOCKED: ENDBRANCH  49  51
DOCKED: ENDBRANCH  47  49
DOCKED: BRANCH  45  53
DOCKED: ATOM     53  C34 UNL     1       6.155 -12.911  -6.419 +0.00 +0.00    +0.337 C  
DOCKED: ATOM     54  O6  UNL     1       6.600 -13.583  -5.508 +0.00 -0.00    -0.245 OA 
DOCKED: BRANCH  53  55
DOCKED: ATOM     55  O7  UNL     1       5.847 -13.454  -7.608 +0.00 -0.00    -0.477 OA 
DOCKED: ATOM     56  H34 UNL     1       6.113 -14.394  -7.521 +0.00 +0.00    +0.295 HD 
DOCKED: ENDBRANCH  53  55
DOCKED: ENDBRANCH  45  53
DOCKED: ENDBRANCH  41  43
DOCKED: ENDBRANCH  38  39
DOCKED: BRANCH  38  58
DOCKED: ATOM     57  C1  UNL     1      10.597  -7.603  -7.164 +0.00 +0.00    +0.009 C  
DOCKED: ATOM     58  C2  UNL     1      10.484  -7.074  -5.731 +0.00 +0.00    +0.012 C  
DOCKED: ATOM     59  C3  UNL     1      10.770  -8.204  -4.739 +0.00 +0.00    +0.009 C  
DOCKED: ENDBRANCH  38  58
DOCKED: ENDBRANCH  34  38
DOCKED: ENDBRANCH  33  35
DOCKED: ENDBRANCH   1  33
DOCKED: TORSDOF 19
DOCKED: TER
DOCKED: ENDMDL
________________________________________________________________________________


    FINAL DOCKED STATE:
    ________________________


Run:   12 / 20
Time taken for this run:   0.900s

DOCKED: MODEL        12
DOCKED: USER    Run = 12
DOCKED: USER
DOCKED: USER    Estimated Free Energy of Binding    =  +5.67 kcal/mol  [=(1)+(2)+(3)-(4)]
DOCKED: USER
DOCKED: USER    (1) Final Intermolecular Energy     =  +0.00 kcal/mol
DOCKED: USER        vdW + Hbond + desolv Energy     =  +0.00 kcal/mol
DOCKED: USER        Electrostatic Energy            =  +0.00 kcal/mol
DOCKED: USER        Moving Ligand-Fixed Receptor    =  +0.00 kcal/mol
DOCKED: USER        Moving Ligand-Moving Receptor   =  +0.00 kcal/mol
DOCKED: USER    (2) Final Total Internal Energy     = -12.10 kcal/mol
DOCKED: USER    (3) Torsional Free Energy           =  +5.67 kcal/mol
DOCKED: USER    (4) Unbound System's Energy         = -12.10 kcal/mol
DOCKED: USER
DOCKED: USER
DOCKED: REMARK  Name = ligands/ligand_2.pdb
DOCKED: REMARK  21 active torsions:
DOCKED: REMARK  status: ('A' for Active; 'I' for Inactive)
DOCKED: REMARK    1  A    between atoms: C1_1  and  C2_2
DOCKED: REMARK    2  A    between atoms: C2_2  and  C3_3
DOCKED: REMARK    3  A    between atoms: C2_2  and  C4_4
DOCKED: REMARK    4  A    between atoms: C4_4  and  N1_5
DOCKED: REMARK    5  A    between atoms: C4_4  and  C30_38
DOCKED: REMARK    6  A    between atoms: C5_6  and  C6_8
DOCKED: REMARK    7  A    between atoms: C6_8  and  C7_9
DOCKED: REMARK    8  A    between atoms: C7_9  and  O2_10
DOCKED: REMARK    9  A    between atoms: C7_9  and  C8_11
DOCKED: REMARK   10  A    between atoms: C8_11  and  C9_12
DOCKED: REMARK   11  A    between atoms: C8_11  and  N2_21
DOCKED: REMARK   12  A    between atoms: C9_12  and  C10_13
DOCKED: REMARK   13  A    between atoms: C16_22  and  C17_24
DOCKED: REMARK   14  A    between atoms: C17_24  and  O4_25
DOCKED: REMARK   15  A    between atoms: C17_24  and  C18_26
DOCKED: REMARK   16  A    between atoms: C23_31  and  C24_32
DOCKED: REMARK   17  A    between atoms: N3_40  and  C31_41
DOCKED: REMARK   18  A    between atoms: C33_43  and  C34_44
DOCKED: REMARK   19  A    between atoms: C34_44  and  O7_46
DOCKED: REMARK   20  A    between atoms: C36_48  and  C37_49
DOCKED: REMARK   21  A    between atoms: C37_49  and  O9_51
DOCKED: REMARK                            x       y       z     vdW  Elec       q    Type
DOCKED: REMARK                         _______ _______ _______ _____ _____    ______ ____
DOCKED: USER                              x       y       z     vdW  Elec       q    Type
DOCKED: USER                           _______ _______ _______ _____ _____    ______ ____
DOCKED: ROOT
DOCKED: ATOM      1  C7  UNL     1      10.523  -0.978  -4.620 +0.00 +0.00    +0.144 C  
DOCKED: ENDROOT
DOCKED: BRANCH   1   2
DOCKED: ATOM      2  O2  UNL     1       9.874  -0.072  -5.527 +0.00 -0.00    -0.389 OA 
DOCKED: ATOM      3  H13 UNL     1       8.918  -0.267  -5.489 +0.00 +0.00    +0.210 HD 
DOCKED: ENDBRANCH   1   2
DOCKED: BRANCH   1   4
DOCKED: ATOM      4  C8  UNL     1      10.115  -2.449  -4.958 +0.00 +0.00    +0.106 C  
DOCKED: BRANCH   4   5
DOCKED: ATOM      5  N2  UNL     1       8.669  -2.633  -4.790 +0.00 -0.00    -0.307 N  
DOCKED: ATOM      6  C16 UNL     1       8.109  -3.894  -4.648 +0.00 +0.00    +0.247 C  
DOCKED: ATOM      7  O3  UNL     1       8.768  -4.924  -4.766 +0.00 -0.00    -0.273 OA 
DOCKED: ATOM      8  H20 UNL     1       8.167  -1.884  -4.300 +0.00 +0.00    +0.149 HD 
DOCKED: BRANCH   6   9
DOCKED: ATOM      9  C17 UNL     1       6.585  -3.858  -4.342 +0.00 +0.00    +0.230 C  
DOCKED: BRANCH   9  10
DOCKED: ATOM     10  C18 UNL     1       5.744  -3.827  -5.610 +0.00 -0.00    -0.003 A  
DOCKED: ATOM     11  C19 UNL     1       5.602  -2.617  -6.326 +0.00 +0.00    +0.007 A  
DOCKED: ATOM     12  C20 UNL     1       4.841  -2.553  -7.495 +0.00 +0.00    +0.000 A  
DOCKED: ATOM     13  C21 UNL     1       4.217  -3.695  -7.982 +0.00 +0.00    +0.001 A  
DOCKED: ATOM     14  C22 UNL     1       4.360  -4.903  -7.299 +0.00 +0.00    +0.009 A  
DOCKED: ATOM     15  C23 UNL     1       5.123  -4.994  -6.119 +0.00 -0.00    -0.012 A  
DOCKED: BRANCH  15  16
DOCKED: ATOM     16  C24 UNL     1       5.260  -6.311  -5.484 +0.00 -0.00    -0.018 A  
DOCKED: ATOM     17  C25 UNL     1       4.354  -6.724  -4.497 +0.00 +0.00    +0.008 A  
DOCKED: ATOM     18  C26 UNL     1       4.485  -7.973  -3.886 +0.00 +0.00    +0.001 A  
DOCKED: ATOM     19  C27 UNL     1       5.526  -8.822  -4.254 +0.00 +0.00    +0.000 A  
DOCKED: ATOM     20  C28 UNL     1       6.438  -8.423  -5.229 +0.00 +0.00    +0.001 A  
DOCKED: ATOM     21  C29 UNL     1       6.306  -7.176  -5.841 +0.00 +0.00    +0.008 A  
DOCKED: ENDBRANCH  15  16
DOCKED: ENDBRANCH   9  10
DOCKED: BRANCH   9  22
DOCKED: ATOM     22  O4  UNL     1       6.226  -2.751  -3.504 +0.00 -0.00    -0.378 OA 
DOCKED: ATOM     23  H22 UNL     1       6.792  -2.009  -3.773 +0.00 +0.00    +0.211 HD 
DOCKED: ENDBRANCH   9  22
DOCKED: ENDBRANCH   6   9
DOCKED: ENDBRANCH   4   5
DOCKED: BRANCH   4  24
DOCKED: ATOM     24  C9  UNL     1      10.544  -2.989  -6.340 +0.00 +0.00    +0.060 C  
DOCKED: BRANCH  24  25
DOCKED: ATOM     25  C10 UNL     1       9.474  -2.998  -7.409 +0.00 -0.00    -0.040 A  
DOCKED: ATOM     26  C11 UNL     1       8.930  -4.201  -7.884 +0.00 +0.00    +0.042 A  
DOCKED: ATOM     27  C12 UNL     1       7.930  -4.188  -8.854 +0.00 +0.00    +0.126 A  
DOCKED: ATOM     28  F1  UNL     1       7.423  -5.348  -9.291 +0.00 -0.00    -0.205 F  
DOCKED: ATOM     29  C13 UNL     1       7.443  -2.995  -9.371 +0.00 +0.00    +0.076 A  
DOCKED: ATOM     30  C14 UNL     1       7.963  -1.804  -8.887 +0.00 +0.00    +0.126 A  
DOCKED: ATOM     31  F2  UNL     1       7.502  -0.639  -9.365 +0.00 -0.00    -0.205 F  
DOCKED: ATOM     32  C15 UNL     1       8.959  -1.792  -7.910 +0.00 +0.00    +0.042 A  
DOCKED: ENDBRANCH  24  25
DOCKED: ENDBRANCH   4  24
DOCKED: ENDBRANCH   1   4
DOCKED: BRANCH   1  33
DOCKED: ATOM     33  C6  UNL     1      10.215  -0.486  -3.204 +0.00 +0.00    +0.129 C  
DOCKED: BRANCH  33  35
DOCKED: ATOM     34  N1  UNL     1       8.452   1.140  -3.510 +0.00 -0.00    -0.304 N  
DOCKED: ATOM     35  C5  UNL     1       8.769  -0.099  -2.993 +0.00 +0.00    +0.216 C  
DOCKED: ATOM     36  O1  UNL     1       7.956  -0.811  -2.412 +0.00 -0.00    -0.276 OA 
DOCKED: ATOM     37  H9  UNL     1       9.048   1.467  -4.262 +0.00 +0.00    +0.149 HD 
DOCKED: BRANCH  34  38
DOCKED: ATOM     38  C4  UNL     1       7.051   1.541  -3.599 +0.00 +0.00    +0.162 C  
DOCKED: BRANCH  38  39
DOCKED: ATOM     39  C30 UNL     1       6.256   0.418  -4.317 +0.00 +0.00    +0.238 C  
DOCKED: ATOM     40  O5  UNL     1       6.818  -0.380  -5.064 +0.00 -0.00    -0.273 OA 
DOCKED: ATOM     41  N3  UNL     1       4.898   0.458  -4.033 +0.00 -0.00    -0.284 N  
DOCKED: ATOM     42  H32 UNL     1       4.608   1.104  -3.306 +0.00 +0.00    +0.155 HD 
DOCKED: BRANCH  41  43
DOCKED: ATOM     43  C31 UNL     1       3.888  -0.391  -4.535 +0.00 +0.00    +0.035 A  
DOCKED: ATOM     44  C32 UNL     1       3.078  -0.082  -5.630 +0.00 +0.00    +0.038 A  
DOCKED: ATOM     45  C33 UNL     1       2.104  -0.993  -6.072 +0.00 +0.00    +0.061 A  
DOCKED: ATOM     46  C35 UNL     1       1.939  -2.215  -5.416 +0.00 +0.00    +0.030 A  
DOCKED: ATOM     47  C36 UNL     1       2.739  -2.528  -4.313 +0.00 +0.00    +0.061 A  
DOCKED: ATOM     48  C38 UNL     1       3.705  -1.614  -3.873 +0.00 +0.00    +0.038 A  
DOCKED: BRANCH  47  49
DOCKED: ATOM     49  C37 UNL     1       2.537  -3.838  -3.647 +0.00 +0.00    +0.337 C  
DOCKED: ATOM     50  O8  UNL     1       1.598  -4.590  -3.821 +0.00 -0.00    -0.245 OA 
DOCKED: BRANCH  49  51
DOCKED: ATOM     51  O9  UNL     1       3.529  -4.143  -2.793 +0.00 -0.00    -0.477 OA 
DOCKED: ATOM     52  H36 UNL     1       4.319  -3.728  -3.200 +0.00 +0.00    +0.295 HD 
DOCKED: ENDBRANCH  49  51
DOCKED: ENDBRANCH  47  49
DOCKED: BRANCH  45  53
DOCKED: ATOM     53  C34 UNL     1       1.224  -0.703  -7.235 +0.00 +0.00    +0.337 C  
DOCKED: ATOM     54  O6  UNL     1       1.359  -1.153  -8.357 +0.00 -0.00    -0.245 OA 
DOCKED: BRANCH  53  55
DOCKED: ATOM     55  O7  UNL     1       0.208   0.119  -6.924 +0.00 -0.00    -0.477 OA 
DOCKED: ATOM     56  H34 UNL     1      -0.495  -0.479  -6.595 +0.00 +0.00    +0.295 HD 
DOCKED: ENDBRANCH  53  55
DOCKED: ENDBRANCH  45  53
DOCKED: ENDBRANCH  41  43
DOCKED: ENDBRANCH  38  39
DOCKED: BRANCH  38  58
DOCKED: ATOM     57  C1  UNL     1       5.575   3.629  -3.883 +0.00 +0.00    +0.009 C  
DOCKED: ATOM     58  C2  UNL     1       6.854   2.900  -4.305 +0.00 +0.00    +0.012 C  
DOCKED: ATOM     59  C3  UNL     1       6.878   2.737  -5.827 +0.00 +0.00    +0.009 C  
DOCKED: ENDBRANCH  38  58
DOCKED: ENDBRANCH  34  38
DOCKED: ENDBRANCH  33  35
DOCKED: ENDBRANCH   1  33
DOCKED: TORSDOF 19
DOCKED: TER
DOCKED: ENDMDL
________________________________________________________________________________


    FINAL DOCKED STATE:
    ________________________


Run:   13 / 20
Time taken for this run:   0.900s

DOCKED: MODEL        13
DOCKED: USER    Run = 13
DOCKED: USER
DOCKED: USER    Estimated Free Energy of Binding    =  +5.67 kcal/mol  [=(1)+(2)+(3)-(4)]
DOCKED: USER
DOCKED: USER    (1) Final Intermolecular Energy     =  +0.00 kcal/mol
DOCKED: USER        vdW + Hbond + desolv Energy     =  +0.00 kcal/mol
DOCKED: USER        Electrostatic Energy            =  +0.00 kcal/mol
DOCKED: USER        Moving Ligand-Fixed Receptor    =  +0.00 kcal/mol
DOCKED: USER        Moving Ligand-Moving Receptor   =  +0.00 kcal/mol
DOCKED: USER    (2) Final Total Internal Energy     = -12.09 kcal/mol
DOCKED: USER    (3) Torsional Free Energy           =  +5.67 kcal/mol
DOCKED: USER    (4) Unbound System's Energy         = -12.09 kcal/mol
DOCKED: USER
DOCKED: USER
DOCKED: REMARK  Name = ligands/ligand_2.pdb
DOCKED: REMARK  21 active torsions:
DOCKED: REMARK  status: ('A' for Active; 'I' for Inactive)
DOCKED: REMARK    1  A    between atoms: C1_1  and  C2_2
DOCKED: REMARK    2  A    between atoms: C2_2  and  C3_3
DOCKED: REMARK    3  A    between atoms: C2_2  and  C4_4
DOCKED: REMARK    4  A    between atoms: C4_4  and  N1_5
DOCKED: REMARK    5  A    between atoms: C4_4  and  C30_38
DOCKED: REMARK    6  A    between atoms: C5_6  and  C6_8
DOCKED: REMARK    7  A    between atoms: C6_8  and  C7_9
DOCKED: REMARK    8  A    between atoms: C7_9  and  O2_10
DOCKED: REMARK    9  A    between atoms: C7_9  and  C8_11
DOCKED: REMARK   10  A    between atoms: C8_11  and  C9_12
DOCKED: REMARK   11  A    between atoms: C8_11  and  N2_21
DOCKED: REMARK   12  A    between atoms: C9_12  and  C10_13
DOCKED: REMARK   13  A    between atoms: C16_22  and  C17_24
DOCKED: REMARK   14  A    between atoms: C17_24  and  O4_25
DOCKED: REMARK   15  A    between atoms: C17_24  and  C18_26
DOCKED: REMARK   16  A    between atoms: C23_31  and  C24_32
DOCKED: REMARK   17  A    between atoms: N3_40  and  C31_41
DOCKED: REMARK   18  A    between atoms: C33_43  and  C34_44
DOCKED: REMARK   19  A    between atoms: C34_44  and  O7_46
DOCKED: REMARK   20  A    between atoms: C36_48  and  C37_49
DOCKED: REMARK   21  A    between atoms: C37_49  and  O9_51
DOCKED: REMARK                            x       y       z     vdW  Elec       q    Type
DOCKED: REMARK                         _______ _______ _______ _____ _____    ______ ____
DOCKED: USER                              x       y       z     vdW  Elec       q    Type
DOCKED: USER                           _______ _______ _______ _____ _____    ______ ____
DOCKED: ROOT
DOCKED: ATOM      1  C7  UNL     1       9.217 -11.260   3.936 +0.00 +0.00    +0.144 C  
DOCKED: ENDROOT
DOCKED: BRANCH   1   2
DOCKED: ATOM      2  O2  UNL     1       9.021  -9.911   4.388 +0.00 -0.00    -0.389 OA 
DOCKED: ATOM      3  H13 UNL     1       8.415  -9.482   3.753 +0.00 +0.00    +0.210 HD 
DOCKED: ENDBRANCH   1   2
DOCKED: BRANCH   1   4
DOCKED: ATOM      4  C8  UNL     1       9.685 -11.257   2.444 +0.00 +0.00    +0.106 C  
DOCKED: BRANCH   4   5
DOCKED: ATOM      5  N2  UNL     1       8.660 -10.654   1.585 +0.00 -0.00    -0.307 N  
DOCKED: ATOM      6  C16 UNL     1       8.662 -10.841   0.210 +0.00 +0.00    +0.247 C  
DOCKED: ATOM      7  O3  UNL     1       9.574 -11.421  -0.373 +0.00 -0.00    -0.273 OA 
DOCKED: ATOM      8  H20 UNL     1       7.729 -10.534   2.000 +0.00 +0.00    +0.149 HD 
DOCKED: BRANCH   6   9
DOCKED: ATOM      9  C17 UNL     1       7.414 -10.236  -0.493 +0.00 +0.00    +0.230 C  
DOCKED: BRANCH   9  10
DOCKED: ATOM     10  C18 UNL     1       7.623  -8.780  -0.883 +0.00 -0.00    -0.003 A  
DOCKED: ATOM     11  C19 UNL     1       7.558  -7.774   0.106 +0.00 +0.00    +0.007 A  
DOCKED: ATOM     12  C20 UNL     1       7.748  -6.429  -0.215 +0.00 +0.00    +0.000 A  
DOCKED: ATOM     13  C21 UNL     1       8.020  -6.059  -1.526 +0.00 +0.00    +0.001 A  
DOCKED: ATOM     14  C22 UNL     1       8.105  -7.039  -2.515 +0.00 +0.00    +0.009 A  
DOCKED: ATOM     15  C23 UNL     1       7.920  -8.403  -2.216 +0.00 -0.00    -0.012 A  
DOCKED: BRANCH  15  16
DOCKED: ATOM     16  C24 UNL     1       8.069  -9.377  -3.305 +0.00 -0.00    -0.018 A  
DOCKED: ATOM     17  C25 UNL     1       9.318  -9.949  -3.584 +0.00 +0.00    +0.008 A  
DOCKED: ATOM     18  C26 UNL     1       9.466 -10.871  -4.622 +0.00 +0.00    +0.001 A  
DOCKED: ATOM     19  C27 UNL     1       8.364 -11.229  -5.396 +0.00 +0.00    +0.000 A  
DOCKED: ATOM     20  C28 UNL     1       7.117 -10.664  -5.136 +0.00 +0.00    +0.001 A  
DOCKED: ATOM     21  C29 UNL     1       6.969  -9.744  -4.096 +0.00 +0.00    +0.008 A  
DOCKED: ENDBRANCH  15  16
DOCKED: ENDBRANCH   9  10
DOCKED: BRANCH   9  22
DOCKED: ATOM     22  O4  UNL     1       6.230 -10.350   0.309 +0.00 -0.00    -0.378 OA 
DOCKED: ATOM     23  H22 UNL     1       6.514 -10.245   1.232 +0.00 +0.00    +0.211 HD 
DOCKED: ENDBRANCH   9  22
DOCKED: ENDBRANCH   6   9
DOCKED: ENDBRANCH   4   5
DOCKED: BRANCH   4  24
DOCKED: ATOM     24  C9  UNL     1      11.053 -10.604   2.146 +0.00 +0.00    +0.060 C  
DOCKED: BRANCH  24  25
DOCKED: ATOM     25  C10 UNL     1      11.011  -9.187   1.621 +0.00 -0.00    -0.040 A  
DOCKED: ATOM     26  C11 UNL     1      11.394  -8.886   0.305 +0.00 +0.00    +0.042 A  
DOCKED: ATOM     27  C12 UNL     1      11.327  -7.576  -0.167 +0.00 +0.00    +0.126 A  
DOCKED: ATOM     28  F1  UNL     1      11.696  -7.313  -1.428 +0.00 -0.00    -0.205 F  
DOCKED: ATOM     29  C13 UNL     1      10.879  -6.541   0.641 +0.00 +0.00    +0.076 A  
DOCKED: ATOM     30  C14 UNL     1      10.478  -6.839   1.935 +0.00 +0.00    +0.126 A  
DOCKED: ATOM     31  F2  UNL     1      10.032  -5.856   2.731 +0.00 -0.00    -0.205 F  
DOCKED: ATOM     32  C15 UNL     1      10.528  -8.144   2.427 +0.00 +0.00    +0.042 A  
DOCKED: ENDBRANCH  24  25
DOCKED: ENDBRANCH   4  24
DOCKED: ENDBRANCH   1   4
DOCKED: BRANCH   1  33
DOCKED: ATOM     33  C6  UNL     1       7.931 -12.026   4.253 +0.00 +0.00    +0.129 C  
DOCKED: BRANCH  33  35
DOCKED: ATOM     34  N1  UNL     1       6.335 -10.299   4.814 +0.00 -0.00    -0.304 N  
DOCKED: ATOM     35  C5  UNL     1       6.669 -11.274   3.897 +0.00 +0.00    +0.216 C  
DOCKED: ATOM     36  O1  UNL     1       6.000 -11.510   2.896 +0.00 -0.00    -0.276 OA 
DOCKED: ATOM     37  H9  UNL     1       7.103  -9.937   5.369 +0.00 +0.00    +0.149 HD 
DOCKED: BRANCH  34  38
DOCKED: ATOM     38  C4  UNL     1       5.289  -9.335   4.485 +0.00 +0.00    +0.162 C  
DOCKED: BRANCH  38  39
DOCKED: ATOM     39  C30 UNL     1       5.601  -8.716   3.097 +0.00 +0.00    +0.238 C  
DOCKED: ATOM     40  O5  UNL     1       6.740  -8.734   2.634 +0.00 -0.00    -0.273 OA 
DOCKED: ATOM     41  N3  UNL     1       4.483  -8.150   2.499 +0.00 -0.00    -0.284 N  
DOCKED: ATOM     42  H32 UNL     1       3.594  -8.321   2.956 +0.00 +0.00    +0.155 HD 
DOCKED: BRANCH  41  43
DOCKED: ATOM     43  C31 UNL     1       4.417  -7.482   1.258 +0.00 +0.00    +0.035 A  
DOCKED: ATOM     44  C32 UNL     1       4.412  -6.093   1.116 +0.00 +0.00    +0.038 A  
DOCKED: ATOM     45  C33 UNL     1       4.356  -5.509  -0.161 +0.00 +0.00    +0.061 A  
DOCKED: ATOM     46  C35 UNL     1       4.303  -6.319  -1.299 +0.00 +0.00    +0.030 A  
DOCKED: ATOM     47  C36 UNL     1       4.297  -7.711  -1.165 +0.00 +0.00    +0.061 A  
DOCKED: ATOM     48  C38 UNL     1       4.348  -8.286   0.112 +0.00 +0.00    +0.038 A  
DOCKED: BRANCH  47  49
DOCKED: ATOM     49  C37 UNL     1       4.245  -8.535  -2.396 +0.00 +0.00    +0.337 C  
DOCKED: ATOM     50  O8  UNL     1       4.112  -8.118  -3.530 +0.00 -0.00    -0.245 OA 
DOCKED: BRANCH  49  51
DOCKED: ATOM     51  O9  UNL     1       4.367  -9.850  -2.145 +0.00 -0.00    -0.477 OA 
DOCKED: ATOM     52  H36 UNL     1       5.058  -9.888  -1.449 +0.00 +0.00    +0.295 HD 
DOCKED: ENDBRANCH  49  51
DOCKED: ENDBRANCH  47  49
DOCKED: BRANCH  45  53
DOCKED: ATOM     53  C34 UNL     1       4.352  -4.036  -0.355 +0.00 +0.00    +0.337 C  
DOCKED: ATOM     54  O6  UNL     1       5.314  -3.301  -0.237 +0.00 -0.00    -0.245 OA 
DOCKED: BRANCH  53  55
DOCKED: ATOM     55  O7  UNL     1       3.146  -3.562  -0.710 +0.00 -0.00    -0.477 OA 
DOCKED: ATOM     56  H34 UNL     1       3.265  -3.266  -1.637 +0.00 +0.00    +0.295 HD 
DOCKED: ENDBRANCH  53  55
DOCKED: ENDBRANCH  45  53
DOCKED: ENDBRANCH  41  43
DOCKED: ENDBRANCH  38  39
DOCKED: BRANCH  38  58
DOCKED: ATOM     57  C1  UNL     1       3.714  -7.629   5.593 +0.00 +0.00    +0.009 C  
DOCKED: ATOM     58  C2  UNL     1       5.119  -8.237   5.558 +0.00 +0.00    +0.012 C  
DOCKED: ATOM     59  C3  UNL     1       6.159  -7.128   5.378 +0.00 +0.00    +0.009 C  
DOCKED: ENDBRANCH  38  58
DOCKED: ENDBRANCH  34  38
DOCKED: ENDBRANCH  33  35
DOCKED: ENDBRANCH   1  33
DOCKED: TORSDOF 19
DOCKED: TER
DOCKED: ENDMDL
________________________________________________________________________________


    FINAL DOCKED STATE:
    ________________________


Run:   14 / 20
Time taken for this run:   0.900s

DOCKED: MODEL        14
DOCKED: USER    Run = 14
DOCKED: USER
DOCKED: USER    Estimated Free Energy of Binding    =  +5.67 kcal/mol  [=(1)+(2)+(3)-(4)]
DOCKED: USER
DOCKED: USER    (1) Final Intermolecular Energy     =  +0.00 kcal/mol
DOCKED: USER        vdW + Hbond + desolv Energy     =  +0.00 kcal/mol
DOCKED: USER        Electrostatic Energy            =  +0.00 kcal/mol
DOCKED: USER        Moving Ligand-Fixed Receptor    =  +0.00 kcal/mol
DOCKED: USER        Moving Ligand-Moving Receptor   =  +0.00 kcal/mol
DOCKED: USER    (2) Final Total Internal Energy     = -11.89 kcal/mol
DOCKED: USER    (3) Torsional Free Energy           =  +5.67 kcal/mol
DOCKED: USER    (4) Unbound System's Energy         = -11.89 kcal/mol
DOCKED: USER
DOCKED: USER
DOCKED: REMARK  Name = ligands/ligand_2.pdb
DOCKED: REMARK  21 active torsions:
DOCKED: REMARK  status: ('A' for Active; 'I' for Inactive)
DOCKED: REMARK    1  A    between atoms: C1_1  and  C2_2
DOCKED: REMARK    2  A    between atoms: C2_2  and  C3_3
DOCKED: REMARK    3  A    between atoms: C2_2  and  C4_4
DOCKED: REMARK    4  A    between atoms: C4_4  and  N1_5
DOCKED: REMARK    5  A    between atoms: C4_4  and  C30_38
DOCKED: REMARK    6  A    between atoms: C5_6  and  C6_8
DOCKED: REMARK    7  A    between atoms: C6_8  and  C7_9
DOCKED: REMARK    8  A    between atoms: C7_9  and  O2_10
DOCKED: REMARK    9  A    between atoms: C7_9  and  C8_11
DOCKED: REMARK   10  A    between atoms: C8_11  and  C9_12
DOCKED: REMARK   11  A    between atoms: C8_11  and  N2_21
DOCKED: REMARK   12  A    between atoms: C9_12  and  C10_13
DOCKED: REMARK   13  A    between atoms: C16_22  and  C17_24
DOCKED: REMARK   14  A    between atoms: C17_24  and  O4_25
DOCKED: REMARK   15  A    between atoms: C17_24  and  C18_26
DOCKED: REMARK   16  A    between atoms: C23_31  and  C24_32
DOCKED: REMARK   17  A    between atoms: N3_40  and  C31_41
DOCKED: REMARK   18  A    between atoms: C33_43  and  C34_44
DOCKED: REMARK   19  A    between atoms: C34_44  and  O7_46
DOCKED: REMARK   20  A    between atoms: C36_48  and  C37_49
DOCKED: REMARK   21  A    between atoms: C37_49  and  O9_51
DOCKED: REMARK                            x       y       z     vdW  Elec       q    Type
DOCKED: REMARK                         _______ _______ _______ _____ _____    ______ ____
DOCKED: USER                              x       y       z     vdW  Elec       q    Type
DOCKED: USER                           _______ _______ _______ _____ _____    ______ ____
DOCKED: ROOT
DOCKED: ATOM      1  C7  UNL     1      14.721  -8.745  -7.286 +0.00 +0.00    +0.144 C  
DOCKED: ENDROOT
DOCKED: BRANCH   1   2
DOCKED: ATOM      2  O2  UNL     1      14.059  -7.573  -7.787 +0.00 -0.00    -0.389 OA 
DOCKED: ATOM      3  H13 UNL     1      13.755  -7.782  -8.692 +0.00 +0.00    +0.210 HD 
DOCKED: ENDBRANCH   1   2
DOCKED: BRANCH   1   4
DOCKED: ATOM      4  C8  UNL     1      13.811  -9.459  -6.233 +0.00 +0.00    +0.106 C  
DOCKED: BRANCH   4   5
DOCKED: ATOM      5  N2  UNL     1      12.458  -8.894  -6.257 +0.00 -0.00    -0.307 N  
DOCKED: ATOM      6  C16 UNL     1      11.439  -9.418  -5.475 +0.00 +0.00    +0.247 C  
DOCKED: ATOM      7  O3  UNL     1      11.579 -10.442  -4.811 +0.00 -0.00    -0.273 OA 
DOCKED: ATOM      8  H20 UNL     1      12.386  -7.886  -6.434 +0.00 +0.00    +0.149 HD 
DOCKED: BRANCH   6   9
DOCKED: ATOM      9  C17 UNL     1      10.125  -8.589  -5.542 +0.00 +0.00    +0.230 C  
DOCKED: BRANCH   9  10
DOCKED: ATOM     10  C18 UNL     1      10.149  -7.396  -4.597 +0.00 -0.00    -0.003 A  
DOCKED: ATOM     11  C19 UNL     1       9.732  -7.556  -3.257 +0.00 +0.00    +0.007 A  
DOCKED: ATOM     12  C20 UNL     1       9.744  -6.485  -2.362 +0.00 +0.00    +0.000 A  
DOCKED: ATOM     13  C21 UNL     1      10.185  -5.235  -2.779 +0.00 +0.00    +0.001 A  
DOCKED: ATOM     14  C22 UNL     1      10.618  -5.060  -4.094 +0.00 +0.00    +0.009 A  
DOCKED: ATOM     15  C23 UNL     1      10.617  -6.126  -5.015 +0.00 -0.00    -0.012 A  
DOCKED: BRANCH  15  16
DOCKED: ATOM     16  C24 UNL     1      11.130  -5.871  -6.368 +0.00 -0.00    -0.018 A  
DOCKED: ATOM     17  C25 UNL     1      12.349  -5.206  -6.555 +0.00 +0.00    +0.008 A  
DOCKED: ATOM     18  C26 UNL     1      12.837  -4.956  -7.839 +0.00 +0.00    +0.001 A  
DOCKED: ATOM     19  C27 UNL     1      12.107  -5.368  -8.953 +0.00 +0.00    +0.000 A  
DOCKED: ATOM     20  C28 UNL     1      10.890  -6.026  -8.783 +0.00 +0.00    +0.001 A  
DOCKED: ATOM     21  C29 UNL     1      10.404  -6.277  -7.498 +0.00 +0.00    +0.008 A  
DOCKED: ENDBRANCH  15  16
DOCKED: ENDBRANCH   9  10
DOCKED: BRANCH   9  22
DOCKED: ATOM     22  O4  UNL     1       8.964  -9.387  -5.273 +0.00 -0.00    -0.378 OA 
DOCKED: ATOM     23  H22 UNL     1       9.291 -10.247  -4.958 +0.00 +0.00    +0.211 HD 
DOCKED: ENDBRANCH   9  22
DOCKED: ENDBRANCH   6   9
DOCKED: ENDBRANCH   4   5
DOCKED: BRANCH   4  24
DOCKED: ATOM     24  C9  UNL     1      13.727 -10.999  -6.319 +0.00 +0.00    +0.060 C  
DOCKED: BRANCH  24  25
DOCKED: ATOM     25  C10 UNL     1      14.504 -11.764  -5.271 +0.00 -0.00    -0.040 A  
DOCKED: ATOM     26  C11 UNL     1      15.783 -11.352  -4.868 +0.00 +0.00    +0.042 A  
DOCKED: ATOM     27  C12 UNL     1      16.474 -12.059  -3.885 +0.00 +0.00    +0.126 A  
DOCKED: ATOM     28  F1  UNL     1      17.693 -11.646  -3.514 +0.00 -0.00    -0.205 F  
DOCKED: ATOM     29  C13 UNL     1      15.921 -13.178  -3.280 +0.00 +0.00    +0.076 A  
DOCKED: ATOM     30  C14 UNL     1      14.648 -13.574  -3.660 +0.00 +0.00    +0.126 A  
DOCKED: ATOM     31  F2  UNL     1      14.089 -14.648  -3.081 +0.00 -0.00    -0.205 F  
DOCKED: ATOM     32  C15 UNL     1      13.933 -12.878  -4.635 +0.00 +0.00    +0.042 A  
DOCKED: ENDBRANCH  24  25
DOCKED: ENDBRANCH   4  24
DOCKED: ENDBRANCH   1   4
DOCKED: BRANCH   1  33
DOCKED: ATOM     33  C6  UNL     1      16.107  -8.304  -6.812 +0.00 +0.00    +0.129 C  
DOCKED: BRANCH  33  35
DOCKED: ATOM     34  N1  UNL     1      15.241  -6.690  -5.234 +0.00 -0.00    -0.304 N  
DOCKED: ATOM     35  C5  UNL     1      16.122  -7.737  -5.411 +0.00 +0.00    +0.216 C  
DOCKED: ATOM     36  O1  UNL     1      16.850  -8.158  -4.518 +0.00 -0.00    -0.276 OA 
DOCKED: ATOM     37  H9  UNL     1      14.455  -6.665  -5.875 +0.00 +0.00    +0.149 HD 
DOCKED: BRANCH  34  38
DOCKED: ATOM     38  C4  UNL     1      14.968  -6.204  -3.885 +0.00 +0.00    +0.162 C  
DOCKED: BRANCH  38  39
DOCKED: ATOM     39  C30 UNL     1      13.938  -7.151  -3.213 +0.00 +0.00    +0.238 C  
DOCKED: ATOM     40  O5  UNL     1      12.789  -6.779  -2.983 +0.00 -0.00    -0.273 OA 
DOCKED: ATOM     41  N3  UNL     1      14.473  -8.394  -2.906 +0.00 -0.00    -0.284 N  
DOCKED: ATOM     42  H32 UNL     1      15.402  -8.586  -3.266 +0.00 +0.00    +0.155 HD 
DOCKED: BRANCH  41  43
DOCKED: ATOM     43  C31 UNL     1      13.828  -9.476  -2.269 +0.00 +0.00    +0.035 A  
DOCKED: ATOM     44  C32 UNL     1      14.497 -10.511  -1.614 +0.00 +0.00    +0.038 A  
DOCKED: ATOM     45  C33 UNL     1      13.774 -11.545  -0.994 +0.00 +0.00    +0.061 A  
DOCKED: ATOM     46  C35 UNL     1      12.377 -11.542  -1.033 +0.00 +0.00    +0.030 A  
DOCKED: ATOM     47  C36 UNL     1      11.699 -10.515  -1.696 +0.00 +0.00    +0.061 A  
DOCKED: ATOM     48  C38 UNL     1      12.426  -9.489  -2.316 +0.00 +0.00    +0.038 A  
DOCKED: BRANCH  47  49
DOCKED: ATOM     49  C37 UNL     1      10.217 -10.545  -1.710 +0.00 +0.00    +0.337 C  
DOCKED: ATOM     50  O8  UNL     1       9.489 -10.333  -0.760 +0.00 -0.00    -0.245 OA 
DOCKED: BRANCH  49  51
DOCKED: ATOM     51  O9  UNL     1       9.716 -10.836  -2.923 +0.00 -0.00    -0.477 OA 
DOCKED: ATOM     52  H36 UNL     1       9.953 -10.054  -3.465 +0.00 +0.00    +0.295 HD 
DOCKED: ENDBRANCH  49  51
DOCKED: ENDBRANCH  47  49
DOCKED: BRANCH  45  53
DOCKED: ATOM     53  C34 UNL     1      14.448 -12.663  -0.284 +0.00 +0.00    +0.337 C  
DOCKED: ATOM     54  O6  UNL     1      15.623 -12.701   0.026 +0.00 -0.00    -0.245 OA 
DOCKED: BRANCH  53  55
DOCKED: ATOM     55  O7  UNL     1      13.608 -13.665   0.021 +0.00 -0.00    -0.477 OA 
DOCKED: ATOM     56  H34 UNL     1      13.874 -14.395  -0.577 +0.00 +0.00    +0.295 HD 
DOCKED: ENDBRANCH  53  55
DOCKED: ENDBRANCH  45  53
DOCKED: ENDBRANCH  41  43
DOCKED: ENDBRANCH  38  39
DOCKED: BRANCH  38  58
DOCKED: ATOM     57  C1  UNL     1      15.171  -3.844  -4.887 +0.00 +0.00    +0.009 C  
DOCKED: ATOM     58  C2  UNL     1      14.478  -4.740  -3.857 +0.00 +0.00    +0.012 C  
DOCKED: ATOM     59  C3  UNL     1      14.632  -4.136  -2.459 +0.00 +0.00    +0.009 C  
DOCKED: ENDBRANCH  38  58
DOCKED: ENDBRANCH  34  38
DOCKED: ENDBRANCH  33  35
DOCKED: ENDBRANCH   1  33
DOCKED: TORSDOF 19
DOCKED: TER
DOCKED: ENDMDL
________________________________________________________________________________


    FINAL DOCKED STATE:
    ________________________


Run:   15 / 20
Time taken for this run:   0.900s

DOCKED: MODEL        15
DOCKED: USER    Run = 15
DOCKED: USER
DOCKED: USER    Estimated Free Energy of Binding    =  +5.67 kcal/mol  [=(1)+(2)+(3)-(4)]
DOCKED: USER
DOCKED: USER    (1) Final Intermolecular Energy     =  +0.00 kcal/mol
DOCKED: USER        vdW + Hbond + desolv Energy     =  +0.00 kcal/mol
DOCKED: USER        Electrostatic Energy            =  +0.00 kcal/mol
DOCKED: USER        Moving Ligand-Fixed Receptor    =  +0.00 kcal/mol
DOCKED: USER        Moving Ligand-Moving Receptor   =  +0.00 kcal/mol
DOCKED: USER    (2) Final Total Internal Energy     = -12.08 kcal/mol
DOCKED: USER    (3) Torsional Free Energy           =  +5.67 kcal/mol
DOCKED: USER    (4) Unbound System's Energy         = -12.08 kcal/mol
DOCKED: USER
DOCKED: USER
DOCKED: REMARK  Name = ligands/ligand_2.pdb
DOCKED: REMARK  21 active torsions:
DOCKED: REMARK  status: ('A' for Active; 'I' for Inactive)
DOCKED: REMARK    1  A    between atoms: C1_1  and  C2_2
DOCKED: REMARK    2  A    between atoms: C2_2  and  C3_3
DOCKED: REMARK    3  A    between atoms: C2_2  and  C4_4
DOCKED: REMARK    4  A    between atoms: C4_4  and  N1_5
DOCKED: REMARK    5  A    between atoms: C4_4  and  C30_38
DOCKED: REMARK    6  A    between atoms: C5_6  and  C6_8
DOCKED: REMARK    7  A    between atoms: C6_8  and  C7_9
DOCKED: REMARK    8  A    between atoms: C7_9  and  O2_10
DOCKED: REMARK    9  A    between atoms: C7_9  and  C8_11
DOCKED: REMARK   10  A    between atoms: C8_11  and  C9_12
DOCKED: REMARK   11  A    between atoms: C8_11  and  N2_21
DOCKED: REMARK   12  A    between atoms: C9_12  and  C10_13
DOCKED: REMARK   13  A    between atoms: C16_22  and  C17_24
DOCKED: REMARK   14  A    between atoms: C17_24  and  O4_25
DOCKED: REMARK   15  A    between atoms: C17_24  and  C18_26
DOCKED: REMARK   16  A    between atoms: C23_31  and  C24_32
DOCKED: REMARK   17  A    between atoms: N3_40  and  C31_41
DOCKED: REMARK   18  A    between atoms: C33_43  and  C34_44
DOCKED: REMARK   19  A    between atoms: C34_44  and  O7_46
DOCKED: REMARK   20  A    between atoms: C36_48  and  C37_49
DOCKED: REMARK   21  A    between atoms: C37_49  and  O9_51
DOCKED: REMARK                            x       y       z     vdW  Elec       q    Type
DOCKED: REMARK                         _______ _______ _______ _____ _____    ______ ____
DOCKED: USER                              x       y       z     vdW  Elec       q    Type
DOCKED: USER                           _______ _______ _______ _____ _____    ______ ____
DOCKED: ROOT
DOCKED: ATOM      1  C7  UNL     1       8.226  -7.708   6.256 +0.00 +0.00    +0.144 C  
DOCKED: ENDROOT
DOCKED: BRANCH   1   2
DOCKED: ATOM      2  O2  UNL     1       7.975  -7.469   7.650 +0.00 -0.00    -0.389 OA 
DOCKED: ATOM      3  H13 UNL     1       7.346  -6.724   7.702 +0.00 +0.00    +0.210 HD 
DOCKED: ENDBRANCH   1   2
DOCKED: BRANCH   1   4
DOCKED: ATOM      4  C8  UNL     1       8.731  -6.395   5.574 +0.00 +0.00    +0.106 C  
DOCKED: BRANCH   4   5
DOCKED: ATOM      5  N2  UNL     1       7.694  -5.359   5.624 +0.00 -0.00    -0.307 N  
DOCKED: ATOM      6  C16 UNL     1       7.718  -4.265   4.771 +0.00 +0.00    +0.247 C  
DOCKED: ATOM      7  O3  UNL     1       8.657  -4.044   4.011 +0.00 -0.00    -0.273 OA 
DOCKED: ATOM      8  H20 UNL     1       6.754  -5.666   5.901 +0.00 +0.00    +0.149 HD 
DOCKED: BRANCH   6   9
DOCKED: ATOM      9  C17 UNL     1       6.456  -3.365   4.892 +0.00 +0.00    +0.230 C  
DOCKED: BRANCH   9  10
DOCKED: ATOM     10  C18 UNL     1       6.605  -2.309   5.978 +0.00 -0.00    -0.003 A  
DOCKED: ATOM     11  C19 UNL     1       6.458  -2.675   7.335 +0.00 +0.00    +0.007 A  
DOCKED: ATOM     12  C20 UNL     1       6.591  -1.734   8.357 +0.00 +0.00    +0.000 A  
DOCKED: ATOM     13  C21 UNL     1       6.887  -0.411   8.051 +0.00 +0.00    +0.001 A  
DOCKED: ATOM     14  C22 UNL     1       7.053  -0.033   6.718 +0.00 +0.00    +0.009 A  
DOCKED: ATOM     15  C23 UNL     1       6.926  -0.964   5.669 +0.00 -0.00    -0.012 A  
DOCKED: BRANCH  15  16
DOCKED: ATOM     16  C24 UNL     1       7.159  -0.496   4.296 +0.00 -0.00    -0.018 A  
DOCKED: ATOM     17  C25 UNL     1       8.446  -0.525   3.742 +0.00 +0.00    +0.008 A  
DOCKED: ATOM     18  C26 UNL     1       8.673  -0.075   2.440 +0.00 +0.00    +0.001 A  
DOCKED: ATOM     19  C27 UNL     1       7.613   0.412   1.677 +0.00 +0.00    +0.000 A  
DOCKED: ATOM     20  C28 UNL     1       6.329   0.452   2.217 +0.00 +0.00    +0.001 A  
DOCKED: ATOM     21  C29 UNL     1       6.102   0.000   3.518 +0.00 +0.00    +0.008 A  
DOCKED: ENDBRANCH  15  16
DOCKED: ENDBRANCH   9  10
DOCKED: BRANCH   9  22
DOCKED: ATOM     22  O4  UNL     1       5.264  -4.128   5.128 +0.00 -0.00    -0.378 OA 
DOCKED: ATOM     23  H22 UNL     1       5.514  -4.843   5.737 +0.00 +0.00    +0.211 HD 
DOCKED: ENDBRANCH   9  22
DOCKED: ENDBRANCH   6   9
DOCKED: ENDBRANCH   4   5
DOCKED: BRANCH   4  24
DOCKED: ATOM     24  C9  UNL     1      10.064  -5.812   6.093 +0.00 +0.00    +0.060 C  
DOCKED: BRANCH  24  25
DOCKED: ATOM     25  C10 UNL     1       9.950  -4.648   7.052 +0.00 -0.00    -0.040 A  
DOCKED: ATOM     26  C11 UNL     1      10.320  -3.351   6.669 +0.00 +0.00    +0.042 A  
DOCKED: ATOM     27  C12 UNL     1      10.187  -2.287   7.561 +0.00 +0.00    +0.126 A  
DOCKED: ATOM     28  F1  UNL     1      10.544  -1.056   7.173 +0.00 -0.00    -0.205 F  
DOCKED: ATOM     29  C13 UNL     1       9.686  -2.479   8.841 +0.00 +0.00    +0.076 A  
DOCKED: ATOM     30  C14 UNL     1       9.298  -3.758   9.214 +0.00 +0.00    +0.126 A  
DOCKED: ATOM     31  F2  UNL     1       8.802  -3.965  10.443 +0.00 -0.00    -0.205 F  
DOCKED: ATOM     32  C15 UNL     1       9.414  -4.835   8.335 +0.00 +0.00    +0.042 A  
DOCKED: ENDBRANCH  24  25
DOCKED: ENDBRANCH   4  24
DOCKED: ENDBRANCH   1   4
DOCKED: BRANCH   1  33
DOCKED: ATOM     33  C6  UNL     1       6.958  -8.341   5.678 +0.00 +0.00    +0.129 C  
DOCKED: BRANCH  33  35
DOCKED: ATOM     34  N1  UNL     1       5.297  -8.008   7.403 +0.00 -0.00    -0.304 N  
DOCKED: ATOM     35  C5  UNL     1       5.682  -7.665   6.123 +0.00 +0.00    +0.216 C  
DOCKED: ATOM     36  O1  UNL     1       5.042  -6.892   5.416 +0.00 -0.00    -0.276 OA 
DOCKED: ATOM     37  H9  UNL     1       6.041  -8.329   8.013 +0.00 +0.00    +0.149 HD 
DOCKED: BRANCH  34  38
DOCKED: ATOM     38  C4  UNL     1       4.229  -7.256   8.055 +0.00 +0.00    +0.162 C  
DOCKED: BRANCH  38  39
DOCKED: ATOM     39  C30 UNL     1       4.540  -5.740   7.932 +0.00 +0.00    +0.238 C  
DOCKED: ATOM     40  O5  UNL     1       5.692  -5.338   7.780 +0.00 -0.00    -0.273 OA 
DOCKED: ATOM     41  N3  UNL     1       3.403  -4.950   8.037 +0.00 -0.00    -0.284 N  
DOCKED: ATOM     42  H32 UNL     1       2.514  -5.439   8.043 +0.00 +0.00    +0.155 HD 
DOCKED: BRANCH  41  43
DOCKED: ATOM     43  C31 UNL     1       3.328  -3.542   7.998 +0.00 +0.00    +0.035 A  
DOCKED: ATOM     44  C32 UNL     1       3.279  -2.728   9.132 +0.00 +0.00    +0.038 A  
DOCKED: ATOM     45  C33 UNL     1       3.217  -1.331   9.003 +0.00 +0.00    +0.061 A  
DOCKED: ATOM     46  C35 UNL     1       3.204  -0.746   7.733 +0.00 +0.00    +0.030 A  
DOCKED: ATOM     47  C36 UNL     1       3.243  -1.553   6.593 +0.00 +0.00    +0.061 A  
DOCKED: ATOM     48  C38 UNL     1       3.299  -2.946   6.729 +0.00 +0.00    +0.038 A  
DOCKED: BRANCH  47  49
DOCKED: ATOM     49  C37 UNL     1       3.233  -0.894   5.265 +0.00 +0.00    +0.337 C  
DOCKED: ATOM     50  O8  UNL     1       3.063   0.292   5.057 +0.00 -0.00    -0.245 OA 
DOCKED: BRANCH  49  51
DOCKED: ATOM     51  O9  UNL     1       3.440  -1.757   4.256 +0.00 -0.00    -0.477 OA 
DOCKED: ATOM     52  H36 UNL     1       4.108  -2.379   4.618 +0.00 +0.00    +0.295 HD 
DOCKED: ENDBRANCH  49  51
DOCKED: ENDBRANCH  47  49
DOCKED: BRANCH  45  53
DOCKED: ATOM     53  C34 UNL     1       3.166  -0.431  10.184 +0.00 +0.00    +0.337 C  
DOCKED: ATOM     54  O6  UNL     1       4.091  -0.195  10.939 +0.00 -0.00    -0.245 OA 
DOCKED: BRANCH  53  55
DOCKED: ATOM     55  O7  UNL     1       1.964   0.146  10.346 +0.00 -0.00    -0.477 OA 
DOCKED: ATOM     56  H34 UNL     1       2.100   1.074  10.061 +0.00 +0.00    +0.295 HD 
DOCKED: ENDBRANCH  53  55
DOCKED: ENDBRANCH  45  53
DOCKED: ENDBRANCH  41  43
DOCKED: ENDBRANCH  38  39
DOCKED: BRANCH  38  58
DOCKED: ATOM     57  C1  UNL     1       2.595  -7.406  10.036 +0.00 +0.00    +0.009 C  
DOCKED: ATOM     58  C2  UNL     1       4.018  -7.662   9.531 +0.00 +0.00    +0.012 C  
DOCKED: ATOM     59  C3  UNL     1       5.026  -6.959  10.443 +0.00 +0.00    +0.009 C  
DOCKED: ENDBRANCH  38  58
DOCKED: ENDBRANCH  34  38
DOCKED: ENDBRANCH  33  35
DOCKED: ENDBRANCH   1  33
DOCKED: TORSDOF 19
DOCKED: TER
DOCKED: ENDMDL
________________________________________________________________________________


    FINAL DOCKED STATE:
    ________________________


Run:   16 / 20
Time taken for this run:   0.900s

DOCKED: MODEL        16
DOCKED: USER    Run = 16
DOCKED: USER
DOCKED: USER    Estimated Free Energy of Binding    =  +5.67 kcal/mol  [=(1)+(2)+(3)-(4)]
DOCKED: USER
DOCKED: USER    (1) Final Intermolecular Energy     =  +0.00 kcal/mol
DOCKED: USER        vdW + Hbond + desolv Energy     =  +0.00 kcal/mol
DOCKED: USER        Electrostatic Energy            =  +0.00 kcal/mol
DOCKED: USER        Moving Ligand-Fixed Receptor    =  +0.00 kcal/mol
DOCKED: USER        Moving Ligand-Moving Receptor   =  +0.00 kcal/mol
DOCKED: USER    (2) Final Total Internal Energy     = -12.09 kcal/mol
DOCKED: USER    (3) Torsional Free Energy           =  +5.67 kcal/mol
DOCKED: USER    (4) Unbound System's Energy         = -12.09 kcal/mol
DOCKED: USER
DOCKED: USER
DOCKED: REMARK  Name = ligands/ligand_2.pdb
DOCKED: REMARK  21 active torsions:
DOCKED: REMARK  status: ('A' for Active; 'I' for Inactive)
DOCKED: REMARK    1  A    between atoms: C1_1  and  C2_2
DOCKED: REMARK    2  A    between atoms: C2_2  and  C3_3
DOCKED: REMARK    3  A    between atoms: C2_2  and  C4_4
DOCKED: REMARK    4  A    between atoms: C4_4  and  N1_5
DOCKED: REMARK    5  A    between atoms: C4_4  and  C30_38
DOCKED: REMARK    6  A    between atoms: C5_6  and  C6_8
DOCKED: REMARK    7  A    between atoms: C6_8  and  C7_9
DOCKED: REMARK    8  A    between atoms: C7_9  and  O2_10
DOCKED: REMARK    9  A    between atoms: C7_9  and  C8_11
DOCKED: REMARK   10  A    between atoms: C8_11  and  C9_12
DOCKED: REMARK   11  A    between atoms: C8_11  and  N2_21
DOCKED: REMARK   12  A    between atoms: C9_12  and  C10_13
DOCKED: REMARK   13  A    between atoms: C16_22  and  C17_24
DOCKED: REMARK   14  A    between atoms: C17_24  and  O4_25
DOCKED: REMARK   15  A    between atoms: C17_24  and  C18_26
DOCKED: REMARK   16  A    between atoms: C23_31  and  C24_32
DOCKED: REMARK   17  A    between atoms: N3_40  and  C31_41
DOCKED: REMARK   18  A    between atoms: C33_43  and  C34_44
DOCKED: REMARK   19  A    between atoms: C34_44  and  O7_46
DOCKED: REMARK   20  A    between atoms: C36_48  and  C37_49
DOCKED: REMARK   21  A    between atoms: C37_49  and  O9_51
DOCKED: REMARK                            x       y       z     vdW  Elec       q    Type
DOCKED: REMARK                         _______ _______ _______ _____ _____    ______ ____
DOCKED: USER                              x       y       z     vdW  Elec       q    Type
DOCKED: USER                           _______ _______ _______ _____ _____    ______ ____
DOCKED: ROOT
DOCKED: ATOM      1  C7  UNL     1      11.607  -4.388  -1.247 +0.00 +0.00    +0.144 C  
DOCKED: ENDROOT
DOCKED: BRANCH   1   2
DOCKED: ATOM      2  O2  UNL     1      11.404  -5.762  -0.883 +0.00 -0.00    -0.389 OA 
DOCKED: ATOM      3  H13 UNL     1      11.257  -5.782   0.083 +0.00 +0.00    +0.210 HD 
DOCKED: ENDBRANCH   1   2
DOCKED: BRANCH   1   4
DOCKED: ATOM      4  C8  UNL     1      12.696  -3.749  -0.325 +0.00 +0.00    +0.106 C  
DOCKED: BRANCH   4   5
DOCKED: ATOM      5  N2  UNL     1      12.260  -3.769   1.075 +0.00 -0.00    -0.307 N  
DOCKED: ATOM      6  C16 UNL     1      12.838  -2.942   2.028 +0.00 +0.00    +0.247 C  
DOCKED: ATOM      7  O3  UNL     1      13.812  -2.236   1.783 +0.00 -0.00    -0.273 OA 
DOCKED: ATOM      8  H20 UNL     1      11.272  -3.990   1.243 +0.00 +0.00    +0.149 HD 
DOCKED: BRANCH   6   9
DOCKED: ATOM      9  C17 UNL     1      12.136  -3.019   3.413 +0.00 +0.00    +0.230 C  
DOCKED: BRANCH   9  10
DOCKED: ATOM     10  C18 UNL     1      12.701  -4.132   4.284 +0.00 -0.00    -0.003 A  
DOCKED: ATOM     11  C19 UNL     1      12.321  -5.471   4.042 +0.00 +0.00    +0.007 A  
DOCKED: ATOM     12  C20 UNL     1      12.822  -6.517   4.819 +0.00 +0.00    +0.000 A  
DOCKED: ATOM     13  C21 UNL     1      13.723  -6.254   5.843 +0.00 +0.00    +0.001 A  
DOCKED: ATOM     14  C22 UNL     1      14.124  -4.940   6.087 +0.00 +0.00    +0.009 A  
DOCKED: ATOM     15  C23 UNL     1      13.635  -3.867   5.316 +0.00 -0.00    -0.012 A  
DOCKED: BRANCH  15  16
DOCKED: ATOM     16  C24 UNL     1      14.139  -2.519   5.607 +0.00 -0.00    -0.018 A  
DOCKED: ATOM     17  C25 UNL     1      15.323  -2.058   5.014 +0.00 +0.00    +0.008 A  
DOCKED: ATOM     18  C26 UNL     1      15.809  -0.779   5.292 +0.00 +0.00    +0.001 A  
DOCKED: ATOM     19  C27 UNL     1      15.118   0.053   6.171 +0.00 +0.00    +0.000 A  
DOCKED: ATOM     20  C28 UNL     1      13.944  -0.395   6.774 +0.00 +0.00    +0.001 A  
DOCKED: ATOM     21  C29 UNL     1      13.456  -1.672   6.493 +0.00 +0.00    +0.008 A  
DOCKED: ENDBRANCH  15  16
DOCKED: ENDBRANCH   9  10
DOCKED: BRANCH   9  22
DOCKED: ATOM     22  O4  UNL     1      10.715  -3.180   3.295 +0.00 -0.00    -0.378 OA 
DOCKED: ATOM     23  H22 UNL     1      10.569  -3.747   2.519 +0.00 +0.00    +0.211 HD 
DOCKED: ENDBRANCH   9  22
DOCKED: ENDBRANCH   6   9
DOCKED: ENDBRANCH   4   5
DOCKED: BRANCH   4  24
DOCKED: ATOM     24  C9  UNL     1      14.123  -4.334  -0.427 +0.00 +0.00    +0.060 C  
DOCKED: BRANCH  24  25
DOCKED: ATOM     25  C10 UNL     1      14.518  -5.307   0.662 +0.00 -0.00    -0.040 A  
DOCKED: ATOM     26  C11 UNL     1      15.480  -4.969   1.626 +0.00 +0.00    +0.042 A  
DOCKED: ATOM     27  C12 UNL     1      15.815  -5.872   2.634 +0.00 +0.00    +0.126 A  
DOCKED: ATOM     28  F1  UNL     1      16.735  -5.527   3.545 +0.00 -0.00    -0.205 F  
DOCKED: ATOM     29  C13 UNL     1      15.211  -7.118   2.715 +0.00 +0.00    +0.076 A  
DOCKED: ATOM     30  C14 UNL     1      14.243  -7.446   1.776 +0.00 +0.00    +0.126 A  
DOCKED: ATOM     31  F2  UNL     1      13.639  -8.642   1.841 +0.00 -0.00    -0.205 F  
DOCKED: ATOM     32  C15 UNL     1      13.885  -6.556   0.764 +0.00 +0.00    +0.042 A  
DOCKED: ENDBRANCH  24  25
DOCKED: ENDBRANCH   4  24
DOCKED: ENDBRANCH   1   4
DOCKED: BRANCH   1  33
DOCKED: ATOM     33  C6  UNL     1      10.230  -3.720  -1.250 +0.00 +0.00    +0.129 C  
DOCKED: BRANCH  33  35
DOCKED: ATOM     34  N1  UNL     1       8.790  -5.321  -0.151 +0.00 -0.00    -0.304 N  
DOCKED: ATOM     35  C5  UNL     1       9.377  -4.076  -0.055 +0.00 +0.00    +0.216 C  
DOCKED: ATOM     36  O1  UNL     1       9.213  -3.331   0.906 +0.00 -0.00    -0.276 OA 
DOCKED: ATOM     37  H9  UNL     1       9.259  -5.982  -0.761 +0.00 +0.00    +0.149 HD 
DOCKED: BRANCH  34  38
DOCKED: ATOM     38  C4  UNL     1       8.141  -5.900   1.022 +0.00 +0.00    +0.162 C  
DOCKED: BRANCH  38  39
DOCKED: ATOM     39  C30 UNL     1       9.130  -5.842   2.217 +0.00 +0.00    +0.238 C  
DOCKED: ATOM     40  O5  UNL     1      10.345  -5.776   2.034 +0.00 -0.00    -0.273 OA 
DOCKED: ATOM     41  N3  UNL     1       8.489  -5.900   3.446 +0.00 -0.00    -0.284 N  
DOCKED: ATOM     42  H32 UNL     1       7.477  -5.835   3.430 +0.00 +0.00    +0.155 HD 
DOCKED: BRANCH  41  43
DOCKED: ATOM     43  C31 UNL     1       9.082  -5.900   4.727 +0.00 +0.00    +0.035 A  
DOCKED: ATOM     44  C32 UNL     1       9.363  -7.054   5.460 +0.00 +0.00    +0.038 A  
DOCKED: ATOM     45  C33 UNL     1       9.968  -6.963   6.725 +0.00 +0.00    +0.061 A  
DOCKED: ATOM     46  C35 UNL     1      10.291  -5.712   7.258 +0.00 +0.00    +0.030 A  
DOCKED: ATOM     47  C36 UNL     1      10.004  -4.551   6.535 +0.00 +0.00    +0.061 A  
DOCKED: ATOM     48  C38 UNL     1       9.396  -4.648   5.276 +0.00 +0.00    +0.038 A  
DOCKED: BRANCH  47  49
DOCKED: ATOM     49  C37 UNL     1      10.366  -3.243   7.132 +0.00 +0.00    +0.337 C  
DOCKED: ATOM     50  O8  UNL     1      10.676  -3.049   8.292 +0.00 -0.00    -0.245 OA 
DOCKED: BRANCH  49  51
DOCKED: ATOM     51  O9  UNL     1      10.326  -2.237   6.242 +0.00 -0.00    -0.477 OA 
DOCKED: ATOM     52  H36 UNL     1      10.574  -2.668   5.396 +0.00 +0.00    +0.295 HD 
DOCKED: ENDBRANCH  49  51
DOCKED: ENDBRANCH  47  49
DOCKED: BRANCH  45  53
DOCKED: ATOM     53  C34 UNL     1      10.286  -8.168   7.536 +0.00 +0.00    +0.337 C  
DOCKED: ATOM     54  O6  UNL     1      11.358  -8.412   8.055 +0.00 -0.00    -0.245 OA 
DOCKED: BRANCH  53  55
DOCKED: ATOM     55  O7  UNL     1       9.236  -8.994   7.671 +0.00 -0.00    -0.477 OA 
DOCKED: ATOM     56  H34 UNL     1       9.043  -8.986   8.632 +0.00 +0.00    +0.295 HD 
DOCKED: ENDBRANCH  53  55
DOCKED: ENDBRANCH  45  53
DOCKED: ENDBRANCH  41  43
DOCKED: ENDBRANCH  38  39
DOCKED: BRANCH  38  58
DOCKED: ATOM     57  C1  UNL     1       6.486  -7.744   1.711 +0.00 +0.00    +0.009 C  
DOCKED: ATOM     58  C2  UNL     1       7.638  -7.341   0.786 +0.00 +0.00    +0.012 C  
DOCKED: ATOM     59  C3  UNL     1       8.781  -8.349   0.913 +0.00 +0.00    +0.009 C  
DOCKED: ENDBRANCH  38  58
DOCKED: ENDBRANCH  34  38
DOCKED: ENDBRANCH  33  35
DOCKED: ENDBRANCH   1  33
DOCKED: TORSDOF 19
DOCKED: TER
DOCKED: ENDMDL
________________________________________________________________________________


    FINAL DOCKED STATE:
    ________________________


Run:   17 / 20
Time taken for this run:   0.900s

DOCKED: MODEL        17
DOCKED: USER    Run = 17
DOCKED: USER
DOCKED: USER    Estimated Free Energy of Binding    =  +5.67 kcal/mol  [=(1)+(2)+(3)-(4)]
DOCKED: USER
DOCKED: USER    (1) Final Intermolecular Energy     =  +0.00 kcal/mol
DOCKED: USER        vdW + Hbond + desolv Energy     =  +0.00 kcal/mol
DOCKED: USER        Electrostatic Energy            =  +0.00 kcal/mol
DOCKED: USER        Moving Ligand-Fixed Receptor    =  +0.00 kcal/mol
DOCKED: USER        Moving Ligand-Moving Receptor   =  +0.00 kcal/mol
DOCKED: USER    (2) Final Total Internal Energy     = -12.09 kcal/mol
DOCKED: USER    (3) Torsional Free Energy           =  +5.67 kcal/mol
DOCKED: USER    (4) Unbound System's Energy         = -12.09 kcal/mol
DOCKED: USER
DOCKED: USER
DOCKED: REMARK  Name = ligands/ligand_2.pdb
DOCKED: REMARK  21 active torsions:
DOCKED: REMARK  status: ('A' for Active; 'I' for Inactive)
DOCKED: REMARK    1  A    between atoms: C1_1  and  C2_2
DOCKED: REMARK    2  A    between atoms: C2_2  and  C3_3
DOCKED: REMARK    3  A    between atoms: C2_2  and  C4_4
DOCKED: REMARK    4  A    between atoms: C4_4  and  N1_5
DOCKED: REMARK    5  A    between atoms: C4_4  and  C30_38
DOCKED: REMARK    6  A    between atoms: C5_6  and  C6_8
DOCKED: REMARK    7  A    between atoms: C6_8  and  C7_9
DOCKED: REMARK    8  A    between atoms: C7_9  and  O2_10
DOCKED: REMARK    9  A    between atoms: C7_9  and  C8_11
DOCKED: REMARK   10  A    between atoms: C8_11  and  C9_12
DOCKED: REMARK   11  A    between atoms: C8_11  and  N2_21
DOCKED: REMARK   12  A    between atoms: C9_12  and  C10_13
DOCKED: REMARK   13  A    between atoms: C16_22  and  C17_24
DOCKED: REMARK   14  A    between atoms: C17_24  and  O4_25
DOCKED: REMARK   15  A    between atoms: C17_24  and  C18_26
DOCKED: REMARK   16  A    between atoms: C23_31  and  C24_32
DOCKED: REMARK   17  A    between atoms: N3_40  and  C31_41
DOCKED: REMARK   18  A    between atoms: C33_43  and  C34_44
DOCKED: REMARK   19  A    between atoms: C34_44  and  O7_46
DOCKED: REMARK   20  A    between atoms: C36_48  and  C37_49
DOCKED: REMARK   21  A    between atoms: C37_49  and  O9_51
DOCKED: REMARK                            x       y       z     vdW  Elec       q    Type
DOCKED: REMARK                         _______ _______ _______ _____ _____    ______ ____
DOCKED: USER                              x       y       z     vdW  Elec       q    Type
DOCKED: USER                           _______ _______ _______ _____ _____    ______ ____
DOCKED: ROOT
DOCKED: ATOM      1  C7  UNL     1       5.978  -5.683  -1.855 +0.00 +0.00    +0.144 C  
DOCKED: ENDROOT
DOCKED: BRANCH   1   2
DOCKED: ATOM      2  O2  UNL     1       5.766  -4.270  -2.011 +0.00 -0.00    -0.389 OA 
DOCKED: ATOM      3  H13 UNL     1       6.070  -3.844  -1.186 +0.00 +0.00    +0.210 HD 
DOCKED: ENDBRANCH   1   2
DOCKED: BRANCH   1   4
DOCKED: ATOM      4  C8  UNL     1       5.301  -6.179  -0.536 +0.00 +0.00    +0.106 C  
DOCKED: BRANCH   4   5
DOCKED: ATOM      5  N2  UNL     1       5.901  -5.521   0.629 +0.00 -0.00    -0.307 N  
DOCKED: ATOM      6  C16 UNL     1       5.761  -6.040   1.909 +0.00 +0.00    +0.247 C  
DOCKED: ATOM      7  O3  UNL     1       5.042  -7.005   2.152 +0.00 -0.00    -0.273 OA 
DOCKED: ATOM      8  H20 UNL     1       6.778  -5.013   0.466 +0.00 +0.00    +0.149 HD 
DOCKED: BRANCH   6   9
DOCKED: ATOM      9  C17 UNL     1       6.589  -5.271   2.976 +0.00 +0.00    +0.230 C  
DOCKED: BRANCH   9  10
DOCKED: ATOM     10  C18 UNL     1       5.823  -4.092   3.560 +0.00 -0.00    -0.003 A  
DOCKED: ATOM     11  C19 UNL     1       5.710  -2.895   2.818 +0.00 +0.00    +0.007 A  
DOCKED: ATOM     12  C20 UNL     1       5.012  -1.795   3.320 +0.00 +0.00    +0.000 A  
DOCKED: ATOM     13  C21 UNL     1       4.400  -1.869   4.566 +0.00 +0.00    +0.001 A  
DOCKED: ATOM     14  C22 UNL     1       4.486  -3.049   5.306 +0.00 +0.00    +0.009 A  
DOCKED: ATOM     15  C23 UNL     1       5.182  -4.172   4.820 +0.00 -0.00    -0.012 A  
DOCKED: BRANCH  15  16
DOCKED: ATOM     16  C24 UNL     1       5.189  -5.391   5.641 +0.00 -0.00    -0.018 A  
DOCKED: ATOM     17  C25 UNL     1       6.203  -5.610   6.583 +0.00 +0.00    +0.008 A  
DOCKED: ATOM     18  C26 UNL     1       6.216  -6.770   7.361 +0.00 +0.00    +0.001 A  
DOCKED: ATOM     19  C27 UNL     1       5.215  -7.726   7.202 +0.00 +0.00    +0.000 A  
DOCKED: ATOM     20  C28 UNL     1       4.204  -7.525   6.264 +0.00 +0.00    +0.001 A  
DOCKED: ATOM     21  C29 UNL     1       4.189  -6.364   5.489 +0.00 +0.00    +0.008 A  
DOCKED: ENDBRANCH  15  16
DOCKED: ENDBRANCH   9  10
DOCKED: BRANCH   9  22
DOCKED: ATOM     22  O4  UNL     1       7.848  -4.814   2.462 +0.00 -0.00    -0.378 OA 
DOCKED: ATOM     23  H22 UNL     1       7.692  -4.571   1.534 +0.00 +0.00    +0.211 HD 
DOCKED: ENDBRANCH   9  22
DOCKED: ENDBRANCH   6   9
DOCKED: ENDBRANCH   4   5
DOCKED: BRANCH   4  24
DOCKED: ATOM     24  C9  UNL     1       3.762  -6.058  -0.458 +0.00 +0.00    +0.060 C  
DOCKED: BRANCH  24  25
DOCKED: ATOM     25  C10 UNL     1       3.229  -4.880   0.325 +0.00 -0.00    -0.040 A  
DOCKED: ATOM     26  C11 UNL     1       2.576  -5.058   1.554 +0.00 +0.00    +0.042 A  
DOCKED: ATOM     27  C12 UNL     1       2.110  -3.956   2.271 +0.00 +0.00    +0.126 A  
DOCKED: ATOM     28  F1  UNL     1       1.492  -4.150   3.443 +0.00 -0.00    -0.205 F  
DOCKED: ATOM     29  C13 UNL     1       2.282  -2.663   1.796 +0.00 +0.00    +0.076 A  
DOCKED: ATOM     30  C14 UNL     1       2.947  -2.484   0.593 +0.00 +0.00    +0.126 A  
DOCKED: ATOM     31  F2  UNL     1       3.132  -1.242   0.120 +0.00 -0.00    -0.205 F  
DOCKED: ATOM     32  C15 UNL     1       3.429  -3.570  -0.138 +0.00 +0.00    +0.042 A  
DOCKED: ENDBRANCH  24  25
DOCKED: ENDBRANCH   4  24
DOCKED: ENDBRANCH   1   4
DOCKED: BRANCH   1  33
DOCKED: ATOM     33  C6  UNL     1       7.483  -5.924  -1.988 +0.00 +0.00    +0.129 C  
DOCKED: BRANCH  33  35
DOCKED: ATOM     34  N1  UNL     1       8.454  -3.713  -1.855 +0.00 -0.00    -0.304 N  
DOCKED: ATOM     35  C5  UNL     1       8.331  -4.933  -1.223 +0.00 +0.00    +0.216 C  
DOCKED: ATOM     36  O1  UNL     1       8.864  -5.187  -0.147 +0.00 -0.00    -0.276 OA 
DOCKED: ATOM     37  H9  UNL     1       7.713  -3.479  -2.506 +0.00 +0.00    +0.149 HD 
DOCKED: BRANCH  34  38
DOCKED: ATOM     38  C4  UNL     1       9.033  -2.586  -1.130 +0.00 +0.00    +0.162 C  
DOCKED: BRANCH  38  39
DOCKED: ATOM     39  C30 UNL     1       8.298  -2.437   0.228 +0.00 +0.00    +0.238 C  
DOCKED: ATOM     40  O5  UNL     1       7.163  -2.882   0.389 +0.00 -0.00    -0.273 OA 
DOCKED: ATOM     41  N3  UNL     1       9.049  -1.749   1.171 +0.00 -0.00    -0.284 N  
DOCKED: ATOM     42  H32 UNL     1      10.012  -1.550   0.922 +0.00 +0.00    +0.155 HD 
DOCKED: BRANCH  41  43
DOCKED: ATOM     43  C31 UNL     1       8.675  -1.414   2.490 +0.00 +0.00    +0.035 A  
DOCKED: ATOM     44  C32 UNL     1       8.146  -0.177   2.864 +0.00 +0.00    +0.038 A  
DOCKED: ATOM     45  C33 UNL     1       7.788   0.068   4.201 +0.00 +0.00    +0.061 A  
DOCKED: ATOM     46  C35 UNL     1       7.964  -0.927   5.166 +0.00 +0.00    +0.030 A  
DOCKED: ATOM     47  C36 UNL     1       8.503  -2.165   4.803 +0.00 +0.00    +0.061 A  
DOCKED: ATOM     48  C38 UNL     1       8.861  -2.401   3.468 +0.00 +0.00    +0.038 A  
DOCKED: BRANCH  47  49
DOCKED: ATOM     49  C37 UNL     1       8.668  -3.196   5.854 +0.00 +0.00    +0.337 C  
DOCKED: ATOM     50  O8  UNL     1       8.573  -3.016   7.053 +0.00 -0.00    -0.245 OA 
DOCKED: BRANCH  49  51
DOCKED: ATOM     51  O9  UNL     1       8.942  -4.412   5.350 +0.00 -0.00    -0.477 OA 
DOCKED: ATOM     52  H36 UNL     1       8.452  -4.424   4.500 +0.00 +0.00    +0.295 HD 
DOCKED: ENDBRANCH  49  51
DOCKED: ENDBRANCH  47  49
DOCKED: BRANCH  45  53
DOCKED: ATOM     53  C34 UNL     1       7.219   1.369   4.638 +0.00 +0.00    +0.337 C  
DOCKED: ATOM     54  O6  UNL     1       7.448   2.451   4.132 +0.00 -0.00    -0.245 OA 
DOCKED: BRANCH  53  55
DOCKED: ATOM     55  O7  UNL     1       6.374   1.244   5.675 +0.00 -0.00    -0.477 OA 
DOCKED: ATOM     56  H34 UNL     1       6.317   2.147   6.052 +0.00 +0.00    +0.295 HD 
DOCKED: ENDBRANCH  53  55
DOCKED: ENDBRANCH  45  53
DOCKED: ENDBRANCH  41  43
DOCKED: ENDBRANCH  38  39
DOCKED: BRANCH  38  58
DOCKED: ATOM     57  C1  UNL     1      10.075  -0.266  -1.515 +0.00 +0.00    +0.009 C  
DOCKED: ATOM     58  C2  UNL     1       8.993  -1.266  -1.932 +0.00 +0.00    +0.012 C  
DOCKED: ATOM     59  C3  UNL     1       7.615  -0.608  -1.836 +0.00 +0.00    +0.009 C  
DOCKED: ENDBRANCH  38  58
DOCKED: ENDBRANCH  34  38
DOCKED: ENDBRANCH  33  35
DOCKED: ENDBRANCH   1  33
DOCKED: TORSDOF 19
DOCKED: TER
DOCKED: ENDMDL
________________________________________________________________________________


    FINAL DOCKED STATE:
    ________________________


Run:   18 / 20
Time taken for this run:   0.900s

DOCKED: MODEL        18
DOCKED: USER    Run = 18
DOCKED: USER
DOCKED: USER    Estimated Free Energy of Binding    =  +5.67 kcal/mol  [=(1)+(2)+(3)-(4)]
DOCKED: USER
DOCKED: USER    (1) Final Intermolecular Energy     =  +0.00 kcal/mol
DOCKED: USER        vdW + Hbond + desolv Energy     =  +0.00 kcal/mol
DOCKED: USER        Electrostatic Energy            =  +0.00 kcal/mol
DOCKED: USER        Moving Ligand-Fixed Receptor    =  +0.00 kcal/mol
DOCKED: USER        Moving Ligand-Moving Receptor   =  +0.00 kcal/mol
DOCKED: USER    (2) Final Total Internal Energy     = -12.08 kcal/mol
DOCKED: USER    (3) Torsional Free Energy           =  +5.67 kcal/mol
DOCKED: USER    (4) Unbound System's Energy         = -12.08 kcal/mol
DOCKED: USER
DOCKED: USER
DOCKED: REMARK  Name = ligands/ligand_2.pdb
DOCKED: REMARK  21 active torsions:
DOCKED: REMARK  status: ('A' for Active; 'I' for Inactive)
DOCKED: REMARK    1  A    between atoms: C1_1  and  C2_2
DOCKED: REMARK    2  A    between atoms: C2_2  and  C3_3
DOCKED: REMARK    3  A    between atoms: C2_2  and  C4_4
DOCKED: REMARK    4  A    between atoms: C4_4  and  N1_5
DOCKED: REMARK    5  A    between atoms: C4_4  and  C30_38
DOCKED: REMARK    6  A    between atoms: C5_6  and  C6_8
DOCKED: REMARK    7  A    between atoms: C6_8  and  C7_9
DOCKED: REMARK    8  A    between atoms: C7_9  and  O2_10
DOCKED: REMARK    9  A    between atoms: C7_9  and  C8_11
DOCKED: REMARK   10  A    between atoms: C8_11  and  C9_12
DOCKED: REMARK   11  A    between atoms: C8_11  and  N2_21
DOCKED: REMARK   12  A    between atoms: C9_12  and  C10_13
DOCKED: REMARK   13  A    between atoms: C16_22  and  C17_24
DOCKED: REMARK   14  A    between atoms: C17_24  and  O4_25
DOCKED: REMARK   15  A    between atoms: C17_24  and  C18_26
DOCKED: REMARK   16  A    between atoms: C23_31  and  C24_32
DOCKED: REMARK   17  A    between atoms: N3_40  and  C31_41
DOCKED: REMARK   18  A    between atoms: C33_43  and  C34_44
DOCKED: REMARK   19  A    between atoms: C34_44  and  O7_46
DOCKED: REMARK   20  A    between atoms: C36_48  and  C37_49
DOCKED: REMARK   21  A    between atoms: C37_49  and  O9_51
DOCKED: REMARK                            x       y       z     vdW  Elec       q    Type
DOCKED: REMARK                         _______ _______ _______ _____ _____    ______ ____
DOCKED: USER                              x       y       z     vdW  Elec       q    Type
DOCKED: USER                           _______ _______ _______ _____ _____    ______ ____
DOCKED: ROOT
DOCKED: ATOM      1  C7  UNL     1       8.755   0.424  -5.974 +0.00 +0.00    +0.144 C  
DOCKED: ENDROOT
DOCKED: BRANCH   1   2
DOCKED: ATOM      2  O2  UNL     1       8.379   1.309  -4.908 +0.00 -0.00    -0.389 OA 
DOCKED: ATOM      3  H13 UNL     1       8.544   0.833  -4.071 +0.00 +0.00    +0.210 HD 
DOCKED: ENDBRANCH   1   2
DOCKED: BRANCH   1   4
DOCKED: ATOM      4  C8  UNL     1       8.028  -0.950  -5.805 +0.00 +0.00    +0.106 C  
DOCKED: BRANCH   4   5
DOCKED: ATOM      5  N2  UNL     1       8.425  -1.590  -4.546 +0.00 -0.00    -0.307 N  
DOCKED: ATOM      6  C16 UNL     1       8.237  -2.947  -4.329 +0.00 +0.00    +0.247 C  
DOCKED: ATOM      7  O3  UNL     1       7.631  -3.662  -5.123 +0.00 -0.00    -0.273 OA 
DOCKED: ATOM      8  H20 UNL     1       9.239  -1.188  -4.066 +0.00 +0.00    +0.149 HD 
DOCKED: BRANCH   6   9
DOCKED: ATOM      9  C17 UNL     1       8.853  -3.446  -2.992 +0.00 +0.00    +0.230 C  
DOCKED: BRANCH   9  10
DOCKED: ATOM     10  C18 UNL     1       7.881  -3.321  -1.827 +0.00 -0.00    -0.003 A  
DOCKED: ATOM     11  C19 UNL     1       7.667  -2.060  -1.227 +0.00 +0.00    +0.007 A  
DOCKED: ATOM     12  C20 UNL     1       6.780  -1.908  -0.160 +0.00 +0.00    +0.000 A  
DOCKED: ATOM     13  C21 UNL     1       6.078  -3.005   0.323 +0.00 +0.00    +0.001 A  
DOCKED: ATOM     14  C22 UNL     1       6.262  -4.256  -0.268 +0.00 +0.00    +0.009 A  
DOCKED: ATOM     15  C23 UNL     1       7.149  -4.435  -1.347 +0.00 -0.00    -0.012 A  
DOCKED: BRANCH  15  16
DOCKED: ATOM     16  C24 UNL     1       7.254  -5.774  -1.942 +0.00 -0.00    -0.018 A  
DOCKED: ATOM     17  C25 UNL     1       8.124  -6.729  -1.399 +0.00 +0.00    +0.008 A  
DOCKED: ATOM     18  C26 UNL     1       8.231  -8.001  -1.965 +0.00 +0.00    +0.001 A  
DOCKED: ATOM     19  C27 UNL     1       7.470  -8.330  -3.085 +0.00 +0.00    +0.000 A  
DOCKED: ATOM     20  C28 UNL     1       6.605  -7.389  -3.640 +0.00 +0.00    +0.001 A  
DOCKED: ATOM     21  C29 UNL     1       6.496  -6.119  -3.072 +0.00 +0.00    +0.008 A  
DOCKED: ENDBRANCH  15  16
DOCKED: ENDBRANCH   9  10
DOCKED: BRANCH   9  22
DOCKED: ATOM     22  O4  UNL     1      10.074  -2.767  -2.669 +0.00 -0.00    -0.378 OA 
DOCKED: ATOM     23  H22 UNL     1       9.979  -1.859  -3.005 +0.00 +0.00    +0.211 HD 
DOCKED: ENDBRANCH   9  22
DOCKED: ENDBRANCH   6   9
DOCKED: ENDBRANCH   4   5
DOCKED: BRANCH   4  24
DOCKED: ATOM     24  C9  UNL     1       6.487  -0.938  -5.910 +0.00 +0.00    +0.060 C  
DOCKED: BRANCH  24  25
DOCKED: ATOM     25  C10 UNL     1       5.732  -0.960  -4.600 +0.00 -0.00    -0.040 A  
DOCKED: ATOM     26  C11 UNL     1       4.991  -2.083  -4.206 +0.00 +0.00    +0.042 A  
DOCKED: ATOM     27  C12 UNL     1       4.319  -2.091  -2.984 +0.00 +0.00    +0.126 A  
DOCKED: ATOM     28  F1  UNL     1       3.619  -3.176  -2.626 +0.00 -0.00    -0.205 F  
DOCKED: ATOM     29  C13 UNL     1       4.369  -1.001  -2.127 +0.00 +0.00    +0.076 A  
DOCKED: ATOM     30  C14 UNL     1       5.121   0.102  -2.505 +0.00 +0.00    +0.126 A  
DOCKED: ATOM     31  F2  UNL     1       5.190   1.165  -1.688 +0.00 -0.00    -0.205 F  
DOCKED: ATOM     32  C15 UNL     1       5.807   0.130  -3.719 +0.00 +0.00    +0.042 A  
DOCKED: ENDBRANCH  24  25
DOCKED: ENDBRANCH   4  24
DOCKED: ENDBRANCH   1   4
DOCKED: BRANCH   1  33
DOCKED: ATOM     33  C6  UNL     1      10.284   0.394  -6.009 +0.00 +0.00    +0.129 C  
DOCKED: BRANCH  33  35
DOCKED: ATOM     34  N1  UNL     1      10.943   1.428  -3.925 +0.00 -0.00    -0.304 N  
DOCKED: ATOM     35  C5  UNL     1      10.923   0.252  -4.646 +0.00 +0.00    +0.216 C  
DOCKED: ATOM     36  O1  UNL     1      11.386  -0.803  -4.222 +0.00 -0.00    -0.276 OA 
DOCKED: ATOM     37  H9  UNL     1      10.239   2.111  -4.180 +0.00 +0.00    +0.149 HD 
DOCKED: BRANCH  34  38
DOCKED: ATOM     38  C4  UNL     1      11.303   1.393  -2.510 +0.00 +0.00    +0.162 C  
DOCKED: BRANCH  38  39
DOCKED: ATOM     39  C30 UNL     1      10.429   0.326  -1.800 +0.00 +0.00    +0.238 C  
DOCKED: ATOM     40  O5  UNL     1       9.337  -0.008  -2.256 +0.00 -0.00    -0.273 OA 
DOCKED: ATOM     41  N3  UNL     1      11.009  -0.150  -0.632 +0.00 -0.00    -0.284 N  
DOCKED: ATOM     42  H32 UNL     1      11.965   0.139  -0.453 +0.00 +0.00    +0.155 HD 
DOCKED: BRANCH  41  43
DOCKED: ATOM     43  C31 UNL     1      10.477  -1.099   0.268 +0.00 +0.00    +0.035 A  
DOCKED: ATOM     44  C32 UNL     1       9.723  -0.770   1.396 +0.00 +0.00    +0.038 A  
DOCKED: ATOM     45  C33 UNL     1       9.220  -1.780   2.234 +0.00 +0.00    +0.061 A  
DOCKED: ATOM     46  C35 UNL     1       9.476  -3.123   1.941 +0.00 +0.00    +0.030 A  
DOCKED: ATOM     47  C36 UNL     1      10.239  -3.460   0.820 +0.00 +0.00    +0.061 A  
DOCKED: ATOM     48  C38 UNL     1      10.741  -2.447  -0.009 +0.00 +0.00    +0.038 A  
DOCKED: BRANCH  47  49
DOCKED: ATOM     49  C37 UNL     1      10.483  -4.896   0.541 +0.00 +0.00    +0.337 C  
DOCKED: ATOM     50  O8  UNL     1      10.417  -5.802   1.349 +0.00 -0.00    -0.245 OA 
DOCKED: BRANCH  49  51
DOCKED: ATOM     51  O9  UNL     1      10.797  -5.128  -0.745 +0.00 -0.00    -0.477 OA 
DOCKED: ATOM     52  H36 UNL     1      10.435  -4.346  -1.215 +0.00 +0.00    +0.295 HD 
DOCKED: ENDBRANCH  49  51
DOCKED: ENDBRANCH  47  49
DOCKED: BRANCH  45  53
DOCKED: ATOM     53  C34 UNL     1       8.411  -1.473   3.442 +0.00 +0.00    +0.337 C  
DOCKED: ATOM     54  O6  UNL     1       8.472  -0.449   4.096 +0.00 -0.00    -0.245 OA 
DOCKED: BRANCH  53  55
DOCKED: ATOM     55  O7  UNL     1       7.551  -2.456   3.754 +0.00 -0.00    -0.477 OA 
DOCKED: ATOM     56  H34 UNL     1       7.637  -2.554   4.725 +0.00 +0.00    +0.295 HD 
DOCKED: ENDBRANCH  53  55
DOCKED: ENDBRANCH  45  53
DOCKED: ENDBRANCH  41  43
DOCKED: ENDBRANCH  38  39
DOCKED: BRANCH  38  58
DOCKED: ATOM     57  C1  UNL     1      11.974   2.878  -0.520 +0.00 +0.00    +0.009 C  
DOCKED: ATOM     58  C2  UNL     1      11.172   2.769  -1.820 +0.00 +0.00    +0.012 C  
DOCKED: ATOM     59  C3  UNL     1       9.705   3.111  -1.553 +0.00 +0.00    +0.009 C  
DOCKED: ENDBRANCH  38  58
DOCKED: ENDBRANCH  34  38
DOCKED: ENDBRANCH  33  35
DOCKED: ENDBRANCH   1  33
DOCKED: TORSDOF 19
DOCKED: TER
DOCKED: ENDMDL
________________________________________________________________________________


    FINAL DOCKED STATE:
    ________________________


Run:   19 / 20
Time taken for this run:   0.900s

DOCKED: MODEL        19
DOCKED: USER    Run = 19
DOCKED: USER
DOCKED: USER    Estimated Free Energy of Binding    =  +5.67 kcal/mol  [=(1)+(2)+(3)-(4)]
DOCKED: USER
DOCKED: USER    (1) Final Intermolecular Energy     =  +0.00 kcal/mol
DOCKED: USER        vdW + Hbond + desolv Energy     =  +0.00 kcal/mol
DOCKED: USER        Electrostatic Energy            =  +0.00 kcal/mol
DOCKED: USER        Moving Ligand-Fixed Receptor    =  +0.00 kcal/mol
DOCKED: USER        Moving Ligand-Moving Receptor   =  +0.00 kcal/mol
DOCKED: USER    (2) Final Total Internal Energy     = -12.11 kcal/mol
DOCKED: USER    (3) Torsional Free Energy           =  +5.67 kcal/mol
DOCKED: USER    (4) Unbound System's Energy         = -12.11 kcal/mol
DOCKED: USER
DOCKED: USER
DOCKED: REMARK  Name = ligands/ligand_2.pdb
DOCKED: REMARK  21 active torsions:
DOCKED: REMARK  status: ('A' for Active; 'I' for Inactive)
DOCKED: REMARK    1  A    between atoms: C1_1  and  C2_2
DOCKED: REMARK    2  A    between atoms: C2_2  and  C3_3
DOCKED: REMARK    3  A    between atoms: C2_2  and  C4_4
DOCKED: REMARK    4  A    between atoms: C4_4  and  N1_5
DOCKED: REMARK    5  A    between atoms: C4_4  and  C30_38
DOCKED: REMARK    6  A    between atoms: C5_6  and  C6_8
DOCKED: REMARK    7  A    between atoms: C6_8  and  C7_9
DOCKED: REMARK    8  A    between atoms: C7_9  and  O2_10
DOCKED: REMARK    9  A    between atoms: C7_9  and  C8_11
DOCKED: REMARK   10  A    between atoms: C8_11  and  C9_12
DOCKED: REMARK   11  A    between atoms: C8_11  and  N2_21
DOCKED: REMARK   12  A    between atoms: C9_12  and  C10_13
DOCKED: REMARK   13  A    between atoms: C16_22  and  C17_24
DOCKED: REMARK   14  A    between atoms: C17_24  and  O4_25
DOCKED: REMARK   15  A    between atoms: C17_24  and  C18_26
DOCKED: REMARK   16  A    between atoms: C23_31  and  C24_32
DOCKED: REMARK   17  A    between atoms: N3_40  and  C31_41
DOCKED: REMARK   18  A    between atoms: C33_43  and  C34_44
DOCKED: REMARK   19  A    between atoms: C34_44  and  O7_46
DOCKED: REMARK   20  A    between atoms: C36_48  and  C37_49
DOCKED: REMARK   21  A    between atoms: C37_49  and  O9_51
DOCKED: REMARK                            x       y       z     vdW  Elec       q    Type
DOCKED: REMARK                         _______ _______ _______ _____ _____    ______ ____
DOCKED: USER                              x       y       z     vdW  Elec       q    Type
DOCKED: USER                           _______ _______ _______ _____ _____    ______ ____
DOCKED: ROOT
DOCKED: ATOM      1  C7  UNL     1       5.570  -5.544  -4.404 +0.00 +0.00    +0.144 C  
DOCKED: ENDROOT
DOCKED: BRANCH   1   2
DOCKED: ATOM      2  O2  UNL     1       4.438  -5.900  -3.596 +0.00 -0.00    -0.389 OA 
DOCKED: ATOM      3  H13 UNL     1       4.782  -6.137  -2.712 +0.00 +0.00    +0.210 HD 
DOCKED: ENDBRANCH   1   2
DOCKED: BRANCH   1   4
DOCKED: ATOM      4  C8  UNL     1       6.647  -6.675  -4.339 +0.00 +0.00    +0.106 C  
DOCKED: BRANCH   4   5
DOCKED: ATOM      5  N2  UNL     1       7.127  -6.848  -2.964 +0.00 -0.00    -0.307 N  
DOCKED: ATOM      6  C16 UNL     1       8.316  -7.508  -2.687 +0.00 +0.00    +0.247 C  
DOCKED: ATOM      7  O3  UNL     1       8.971  -8.077  -3.557 +0.00 -0.00    -0.273 OA 
DOCKED: ATOM      8  H20 UNL     1       6.884  -6.106  -2.297 +0.00 +0.00    +0.149 HD 
DOCKED: BRANCH   6   9
DOCKED: ATOM      9  C17 UNL     1       8.710  -7.457  -1.184 +0.00 +0.00    +0.230 C  
DOCKED: BRANCH   9  10
DOCKED: ATOM     10  C18 UNL     1       8.098  -8.602  -0.389 +0.00 -0.00    -0.003 A  
DOCKED: ATOM     11  C19 UNL     1       6.724  -8.570  -0.061 +0.00 +0.00    +0.007 A  
DOCKED: ATOM     12  C20 UNL     1       6.129  -9.604   0.663 +0.00 +0.00    +0.000 A  
DOCKED: ATOM     13  C21 UNL     1       6.885 -10.699   1.064 +0.00 +0.00    +0.001 A  
DOCKED: ATOM     14  C22 UNL     1       8.240 -10.758   0.734 +0.00 +0.00    +0.009 A  
DOCKED: ATOM     15  C23 UNL     1       8.864  -9.728   0.002 +0.00 -0.00    -0.012 A  
DOCKED: BRANCH  15  16
DOCKED: ATOM     16  C24 UNL     1      10.283  -9.886  -0.342 +0.00 -0.00    -0.018 A  
DOCKED: ATOM     17  C25 UNL     1      11.277  -9.693   0.626 +0.00 +0.00    +0.008 A  
DOCKED: ATOM     18  C26 UNL     1      12.628  -9.836   0.301 +0.00 +0.00    +0.001 A  
DOCKED: ATOM     19  C27 UNL     1      12.998 -10.171  -1.000 +0.00 +0.00    +0.000 A  
DOCKED: ATOM     20  C28 UNL     1      12.021 -10.359  -1.975 +0.00 +0.00    +0.001 A  
DOCKED: ATOM     21  C29 UNL     1      10.671 -10.219  -1.649 +0.00 +0.00    +0.008 A  
DOCKED: ENDBRANCH  15  16
DOCKED: ENDBRANCH   9  10
DOCKED: BRANCH   9  22
DOCKED: ATOM     22  O4  UNL     1       8.358  -6.209  -0.571 +0.00 -0.00    -0.378 OA 
DOCKED: ATOM     23  H22 UNL     1       7.521  -5.930  -0.981 +0.00 +0.00    +0.211 HD 
DOCKED: ENDBRANCH   9  22
DOCKED: ENDBRANCH   6   9
DOCKED: ENDBRANCH   4   5
DOCKED: BRANCH   4  24
DOCKED: ATOM     24  C9  UNL     1       6.246  -8.050  -4.920 +0.00 +0.00    +0.060 C  
DOCKED: BRANCH  24  25
DOCKED: ATOM     25  C10 UNL     1       5.804  -9.090  -3.915 +0.00 -0.00    -0.040 A  
DOCKED: ATOM     26  C11 UNL     1       6.591 -10.219  -3.642 +0.00 +0.00    +0.042 A  
DOCKED: ATOM     27  C12 UNL     1       6.176 -11.156  -2.696 +0.00 +0.00    +0.126 A  
DOCKED: ATOM     28  F1  UNL     1       6.945 -12.225  -2.450 +0.00 -0.00    -0.205 F  
DOCKED: ATOM     29  C13 UNL     1       4.985 -10.998  -2.001 +0.00 +0.00    +0.076 A  
DOCKED: ATOM     30  C14 UNL     1       4.217  -9.871  -2.253 +0.00 +0.00    +0.126 A  
DOCKED: ATOM     31  F2  UNL     1       3.067  -9.694  -1.585 +0.00 -0.00    -0.205 F  
DOCKED: ATOM     32  C15 UNL     1       4.616  -8.916  -3.188 +0.00 +0.00    +0.042 A  
DOCKED: ENDBRANCH  24  25
DOCKED: ENDBRANCH   4  24
DOCKED: ENDBRANCH   1   4
DOCKED: BRANCH   1  33
DOCKED: ATOM     33  C6  UNL     1       6.011  -4.147  -3.961 +0.00 +0.00    +0.129 C  
DOCKED: BRANCH  33  35
DOCKED: ATOM     34  N1  UNL     1       4.824  -3.775  -1.887 +0.00 -0.00    -0.304 N  
DOCKED: ATOM     35  C5  UNL     1       6.064  -3.971  -2.460 +0.00 +0.00    +0.216 C  
DOCKED: ATOM     36  O1  UNL     1       7.105  -3.993  -1.812 +0.00 -0.00    -0.276 OA 
DOCKED: ATOM     37  H9  UNL     1       4.035  -4.135  -2.414 +0.00 +0.00    +0.149 HD 
DOCKED: BRANCH  34  38
DOCKED: ATOM     38  C4  UNL     1       4.689  -3.834  -0.435 +0.00 +0.00    +0.162 C  
DOCKED: BRANCH  38  39
DOCKED: ATOM     39  C30 UNL     1       5.315  -5.161   0.071 +0.00 +0.00    +0.238 C  
DOCKED: ATOM     40  O5  UNL     1       5.442  -6.129  -0.677 +0.00 -0.00    -0.273 OA 
DOCKED: ATOM     41  N3  UNL     1       5.666  -5.111   1.412 +0.00 -0.00    -0.284 N  
DOCKED: ATOM     42  H32 UNL     1       5.606  -4.202   1.860 +0.00 +0.00    +0.155 HD 
DOCKED: BRANCH  41  43
DOCKED: ATOM     43  C31 UNL     1       6.229  -6.142   2.194 +0.00 +0.00    +0.035 A  
DOCKED: ATOM     44  C32 UNL     1       5.489  -6.995   3.015 +0.00 +0.00    +0.038 A  
DOCKED: ATOM     45  C33 UNL     1       6.130  -8.006   3.751 +0.00 +0.00    +0.061 A  
DOCKED: ATOM     46  C35 UNL     1       7.516  -8.162   3.665 +0.00 +0.00    +0.030 A  
DOCKED: ATOM     47  C36 UNL     1       8.266  -7.306   2.853 +0.00 +0.00    +0.061 A  
DOCKED: ATOM     48  C38 UNL     1       7.621  -6.297   2.126 +0.00 +0.00    +0.038 A  
DOCKED: BRANCH  47  49
DOCKED: ATOM     49  C37 UNL     1       9.734  -7.508   2.785 +0.00 +0.00    +0.337 C  
DOCKED: ATOM     50  O8  UNL     1      10.395  -8.202   3.533 +0.00 -0.00    -0.245 OA 
DOCKED: BRANCH  49  51
DOCKED: ATOM     51  O9  UNL     1      10.304  -6.828   1.775 +0.00 -0.00    -0.477 OA 
DOCKED: ATOM     52  H36 UNL     1       9.609  -6.818   1.083 +0.00 +0.00    +0.295 HD 
DOCKED: ENDBRANCH  49  51
DOCKED: ENDBRANCH  47  49
DOCKED: BRANCH  45  53
DOCKED: ATOM     53  C34 UNL     1       5.379  -8.936   4.633 +0.00 +0.00    +0.337 C  
DOCKED: ATOM     54  O6  UNL     1       5.163 -10.112   4.407 +0.00 -0.00    -0.245 OA 
DOCKED: BRANCH  53  55
DOCKED: ATOM     55  O7  UNL     1       4.956  -8.349   5.765 +0.00 -0.00    -0.477 OA 
DOCKED: ATOM     56  H34 UNL     1       4.291  -8.972   6.128 +0.00 +0.00    +0.295 HD 
DOCKED: ENDBRANCH  53  55
DOCKED: ENDBRANCH  45  53
DOCKED: ENDBRANCH  41  43
DOCKED: ENDBRANCH  38  39
DOCKED: BRANCH  38  58
DOCKED: ATOM     57  C1  UNL     1       3.101  -3.128   1.461 +0.00 +0.00    +0.009 C  
DOCKED: ATOM     58  C2  UNL     1       3.227  -3.691   0.043 +0.00 +0.00    +0.012 C  
DOCKED: ATOM     59  C3  UNL     1       2.487  -5.027  -0.051 +0.00 +0.00    +0.009 C  
DOCKED: ENDBRANCH  38  58
DOCKED: ENDBRANCH  34  38
DOCKED: ENDBRANCH  33  35
DOCKED: ENDBRANCH   1  33
DOCKED: TORSDOF 19
DOCKED: TER
DOCKED: ENDMDL
________________________________________________________________________________


    FINAL DOCKED STATE:
    ________________________


Run:   20 / 20
Time taken for this run:   0.900s

DOCKED: MODEL        20
DOCKED: USER    Run = 20
DOCKED: USER
DOCKED: USER    Estimated Free Energy of Binding    =  +5.67 kcal/mol  [=(1)+(2)+(3)-(4)]
DOCKED: USER
DOCKED: USER    (1) Final Intermolecular Energy     =  +0.00 kcal/mol
DOCKED: USER        vdW + Hbond + desolv Energy     =  +0.00 kcal/mol
DOCKED: USER        Electrostatic Energy            =  +0.00 kcal/mol
DOCKED: USER        Moving Ligand-Fixed Receptor    =  +0.00 kcal/mol
DOCKED: USER        Moving Ligand-Moving Receptor   =  +0.00 kcal/mol
DOCKED: USER    (2) Final Total Internal Energy     = -12.10 kcal/mol
DOCKED: USER    (3) Torsional Free Energy           =  +5.67 kcal/mol
DOCKED: USER    (4) Unbound System's Energy         = -12.10 kcal/mol
DOCKED: USER
DOCKED: USER
DOCKED: REMARK  Name = ligands/ligand_2.pdb
DOCKED: REMARK  21 active torsions:
DOCKED: REMARK  status: ('A' for Active; 'I' for Inactive)
DOCKED: REMARK    1  A    between atoms: C1_1  and  C2_2
DOCKED: REMARK    2  A    between atoms: C2_2  and  C3_3
DOCKED: REMARK    3  A    between atoms: C2_2  and  C4_4
DOCKED: REMARK    4  A    between atoms: C4_4  and  N1_5
DOCKED: REMARK    5  A    between atoms: C4_4  and  C30_38
DOCKED: REMARK    6  A    between atoms: C5_6  and  C6_8
DOCKED: REMARK    7  A    between atoms: C6_8  and  C7_9
DOCKED: REMARK    8  A    between atoms: C7_9  and  O2_10
DOCKED: REMARK    9  A    between atoms: C7_9  and  C8_11
DOCKED: REMARK   10  A    between atoms: C8_11  and  C9_12
DOCKED: REMARK   11  A    between atoms: C8_11  and  N2_21
DOCKED: REMARK   12  A    between atoms: C9_12  and  C10_13
DOCKED: REMARK   13  A    between atoms: C16_22  and  C17_24
DOCKED: REMARK   14  A    between atoms: C17_24  and  O4_25
DOCKED: REMARK   15  A    between atoms: C17_24  and  C18_26
DOCKED: REMARK   16  A    between atoms: C23_31  and  C24_32
DOCKED: REMARK   17  A    between atoms: N3_40  and  C31_41
DOCKED: REMARK   18  A    between atoms: C33_43  and  C34_44
DOCKED: REMARK   19  A    between atoms: C34_44  and  O7_46
DOCKED: REMARK   20  A    between atoms: C36_48  and  C37_49
DOCKED: REMARK   21  A    between atoms: C37_49  and  O9_51
DOCKED: REMARK                            x       y       z     vdW  Elec       q    Type
DOCKED: REMARK                         _______ _______ _______ _____ _____    ______ ____
DOCKED: USER                              x       y       z     vdW  Elec       q    Type
DOCKED: USER                           _______ _______ _______ _____ _____    ______ ____
DOCKED: ROOT
DOCKED: ATOM      1  C7  UNL     1       6.607  -2.596  -2.328 +0.00 +0.00    +0.144 C  
DOCKED: ENDROOT
DOCKED: BRANCH   1   2
DOCKED: ATOM      2  O2  UNL     1       6.692  -1.390  -3.103 +0.00 -0.00    -0.389 OA 
DOCKED: ATOM      3  H13 UNL     1       7.217  -0.752  -2.581 +0.00 +0.00    +0.210 HD 
DOCKED: ENDBRANCH   1   2
DOCKED: BRANCH   1   4
DOCKED: ATOM      4  C8  UNL     1       6.143  -2.260  -0.873 +0.00 +0.00    +0.106 C  
DOCKED: BRANCH   4   5
DOCKED: ATOM      5  N2  UNL     1       7.112  -1.375  -0.217 +0.00 -0.00    -0.307 N  
DOCKED: ATOM      6  C16 UNL     1       7.132  -1.215   1.161 +0.00 +0.00    +0.247 C  
DOCKED: ATOM      7  O3  UNL     1       6.279  -1.710   1.894 +0.00 -0.00    -0.273 OA 
DOCKED: ATOM      8  H20 UNL     1       8.027  -1.281  -0.672 +0.00 +0.00    +0.149 HD 
DOCKED: BRANCH   6   9
DOCKED: ATOM      9  C17 UNL     1       8.321  -0.348   1.661 +0.00 +0.00    +0.230 C  
DOCKED: BRANCH   9  10
DOCKED: ATOM     10  C18 UNL     1       7.983   1.136   1.682 +0.00 -0.00    -0.003 A  
DOCKED: ATOM     11  C19 UNL     1       7.932   1.859   0.470 +0.00 +0.00    +0.007 A  
DOCKED: ATOM     12  C20 UNL     1       7.622   3.220   0.452 +0.00 +0.00    +0.000 A  
DOCKED: ATOM     13  C21 UNL     1       7.342   3.886   1.639 +0.00 +0.00    +0.001 A  
DOCKED: ATOM     14  C22 UNL     1       7.369   3.185   2.845 +0.00 +0.00    +0.009 A  
DOCKED: ATOM     15  C23 UNL     1       7.678   1.812   2.889 +0.00 -0.00    -0.012 A  
DOCKED: BRANCH  15  16
DOCKED: ATOM     16  C24 UNL     1       7.643   1.137   4.194 +0.00 -0.00    -0.018 A  
DOCKED: ATOM     17  C25 UNL     1       8.700   1.287   5.102 +0.00 +0.00    +0.008 A  
DOCKED: ATOM     18  C26 UNL     1       8.673   0.642   6.341 +0.00 +0.00    +0.001 A  
DOCKED: ATOM     19  C27 UNL     1       7.589  -0.164   6.682 +0.00 +0.00    +0.000 A  
DOCKED: ATOM     20  C28 UNL     1       6.535  -0.328   5.787 +0.00 +0.00    +0.001 A  
DOCKED: ATOM     21  C29 UNL     1       6.560   0.319   4.550 +0.00 +0.00    +0.008 A  
DOCKED: ENDBRANCH  15  16
DOCKED: ENDBRANCH   9  10
DOCKED: BRANCH   9  22
DOCKED: ATOM     22  O4  UNL     1       9.509  -0.555   0.884 +0.00 -0.00    -0.378 OA 
DOCKED: ATOM     23  H22 UNL     1       9.214  -0.726  -0.026 +0.00 +0.00    +0.211 HD 
DOCKED: ENDBRANCH   9  22
DOCKED: ENDBRANCH   6   9
DOCKED: ENDBRANCH   4   5
DOCKED: BRANCH   4  24
DOCKED: ATOM     24  C9  UNL     1       4.723  -1.673  -0.715 +0.00 +0.00    +0.060 C  
DOCKED: BRANCH  24  25
DOCKED: ATOM     25  C10 UNL     1       4.639  -0.171  -0.568 +0.00 -0.00    -0.040 A  
DOCKED: ATOM     26  C11 UNL     1       4.243   0.422   0.640 +0.00 +0.00    +0.042 A  
DOCKED: ATOM     27  C12 UNL     1       4.193   1.810   0.761 +0.00 +0.00    +0.126 A  
DOCKED: ATOM     28  F1  UNL     1       3.814   2.354   1.925 +0.00 -0.00    -0.205 F  
DOCKED: ATOM     29  C13 UNL     1       4.534   2.638  -0.298 +0.00 +0.00    +0.076 A  
DOCKED: ATOM     30  C14 UNL     1       4.948   2.055  -1.487 +0.00 +0.00    +0.126 A  
DOCKED: ATOM     31  F2  UNL     1       5.291   2.837  -2.522 +0.00 -0.00    -0.205 F  
DOCKED: ATOM     32  C15 UNL     1       5.014   0.669  -1.629 +0.00 +0.00    +0.042 A  
DOCKED: ENDBRANCH  24  25
DOCKED: ENDBRANCH   4  24
DOCKED: ENDBRANCH   1   4
DOCKED: BRANCH   1  33
DOCKED: ATOM     33  C6  UNL     1       7.950  -3.315  -2.474 +0.00 +0.00    +0.129 C  
DOCKED: BRANCH  33  35
DOCKED: ATOM     34  N1  UNL     1       9.409  -1.657  -3.458 +0.00 -0.00    -0.304 N  
DOCKED: ATOM     35  C5  UNL     1       9.148  -2.405  -2.329 +0.00 +0.00    +0.216 C  
DOCKED: ATOM     36  O1  UNL     1       9.829  -2.340  -1.310 +0.00 -0.00    -0.276 OA 
DOCKED: ATOM     37  H9  UNL     1       8.618  -1.500  -4.073 +0.00 +0.00    +0.149 HD 
DOCKED: BRANCH  34  38
DOCKED: ATOM     38  C4  UNL     1      10.375  -0.565  -3.387 +0.00 +0.00    +0.162 C  
DOCKED: BRANCH  38  39
DOCKED: ATOM     39  C30 UNL     1       9.992   0.363  -2.203 +0.00 +0.00    +0.238 C  
DOCKED: ATOM     40  O5  UNL     1       8.841   0.401  -1.772 +0.00 -0.00    -0.273 OA 
DOCKED: ATOM     41  N3  UNL     1      11.064   1.117  -1.745 +0.00 -0.00    -0.284 N  
DOCKED: ATOM     42  H32 UNL     1      11.974   0.885  -2.127 +0.00 +0.00    +0.155 HD 
DOCKED: BRANCH  41  43
DOCKED: ATOM     43  C31 UNL     1      11.060   2.075  -0.709 +0.00 +0.00    +0.035 A  
DOCKED: ATOM     44  C32 UNL     1      10.908   3.448  -0.912 +0.00 +0.00    +0.038 A  
DOCKED: ATOM     45  C33 UNL     1      10.904   4.333   0.179 +0.00 +0.00    +0.061 A  
DOCKED: ATOM     46  C35 UNL     1      11.055   3.840   1.479 +0.00 +0.00    +0.030 A  
DOCKED: ATOM     47  C36 UNL     1      11.219   2.469   1.691 +0.00 +0.00    +0.061 A  
DOCKED: ATOM     48  C38 UNL     1      11.227   1.592   0.597 +0.00 +0.00    +0.038 A  
DOCKED: BRANCH  47  49
DOCKED: ATOM     49  C37 UNL     1      11.371   1.986   3.084 +0.00 +0.00    +0.337 C  
DOCKED: ATOM     50  O8  UNL     1      11.587   2.678   4.061 +0.00 -0.00    -0.245 OA 
DOCKED: BRANCH  49  51
DOCKED: ATOM     51  O9  UNL     1      11.243   0.652   3.188 +0.00 -0.00    -0.477 OA 
DOCKED: ATOM     52  H36 UNL     1      10.602   0.427   2.480 +0.00 +0.00    +0.295 HD 
DOCKED: ENDBRANCH  49  51
DOCKED: ENDBRANCH  47  49
DOCKED: BRANCH  45  53
DOCKED: ATOM     53  C34 UNL     1      10.741   5.799   0.005 +0.00 +0.00    +0.337 C  
DOCKED: ATOM     54  O6  UNL     1       9.768   6.450   0.336 +0.00 -0.00    -0.245 OA 
DOCKED: BRANCH  53  55
DOCKED: ATOM     55  O7  UNL     1      11.816   6.378  -0.554 +0.00 -0.00    -0.477 OA 
DOCKED: ATOM     56  H34 UNL     1      11.441   7.036  -1.176 +0.00 +0.00    +0.295 HD 
DOCKED: ENDBRANCH  53  55
DOCKED: ENDBRANCH  45  53
DOCKED: ENDBRANCH  41  43
DOCKED: ENDBRANCH  38  39
DOCKED: BRANCH  38  58
DOCKED: ATOM     57  C1  UNL     1      11.830   0.946  -4.876 +0.00 +0.00    +0.009 C  
DOCKED: ATOM     58  C2  UNL     1      10.486   0.232  -4.705 +0.00 +0.00    +0.012 C  
DOCKED: ATOM     59  C3  UNL     1       9.344   1.242  -4.833 +0.00 +0.00    +0.009 C  
DOCKED: ENDBRANCH  38  58
DOCKED: ENDBRANCH  34  38
DOCKED: ENDBRANCH  33  35
DOCKED: ENDBRANCH   1  33
DOCKED: TORSDOF 19
DOCKED: TER
DOCKED: ENDMDL
________________________________________________________________________________


    CLUSTERING HISTOGRAM
    ____________________


________________________________________________________________________________
     |           |     |           |     |
Clus | Lowest    | Run | Mean      | Num | Histogram
-ter | Binding   |     | Binding   | in  |
Rank | Energy    |     | Energy    | Clus|    5    10   15   20   25   30   35
_____|___________|_____|___________|_____|____:____|____:____|____:____|____:___
   1 |     +5.67 |   1 |     +5.67 |   1 |#
   2 |     +5.67 |   2 |     +5.67 |   1 |#
   3 |     +5.67 |   3 |     +5.67 |   1 |#
   4 |     +5.67 |   4 |     +5.67 |   1 |#
   5 |     +5.67 |   5 |     +5.67 |   1 |#
   6 |     +5.67 |   6 |     +5.67 |   1 |#
   7 |     +5.67 |   7 |     +5.67 |   1 |#
   8 |     +5.67 |   8 |     +5.67 |   1 |#
   9 |     +5.67 |   9 |     +5.67 |   1 |#
  10 |     +5.67 |  10 |     +5.67 |   1 |#
  11 |     +5.67 |  11 |     +5.67 |   1 |#
  12 |     +5.67 |  12 |     +5.67 |   1 |#
  13 |     +5.67 |  13 |     +5.67 |   1 |#
  14 |     +5.67 |  14 |     +5.67 |   1 |#
  15 |     +5.67 |  15 |     +5.67 |   1 |#
  16 |     +5.67 |  16 |     +5.67 |   1 |#
  17 |     +5.67 |  17 |     +5.67 |   1 |#
  18 |     +5.67 |  18 |     +5.67 |   1 |#
  19 |     +5.67 |  19 |     +5.67 |   1 |#
  20 |     +5.67 |  20 |     +5.67 |   1 |#
_____|___________|_____|___________|_____|______________________________________


    RMSD TABLE
    __________


_______________________________________________________________________
     |      |      |           |         |                 |
Rank | Sub- | Run  | Binding   | Cluster | Reference       | Grep
     | Rank |      | Energy    | RMSD    | RMSD            | Pattern
_____|______|______|___________|_________|_________________|___________
   1      1      1       +5.67      0.00     12.33           RANKING
   2      1      2       +5.67      0.00     10.65           RANKING
   3      1      3       +5.67      0.00     12.80           RANKING
   4      1      4       +5.67      0.00      6.30           RANKING
   5      1      5       +5.67      0.00      7.04           RANKING
   6      1      6       +5.67      0.00      8.94           RANKING
   7      1      7       +5.67      0.00      9.80           RANKING
   8      1      8       +5.67      0.00      6.12           RANKING
   9      1      9       +5.67      0.00      5.56           RANKING
  10      1     10       +5.67      0.00     11.16           RANKING
  11      1     11       +5.67      0.00      9.09           RANKING
  12      1     12       +5.67      0.00      6.57           RANKING
  13      1     13       +5.67      0.00      9.36           RANKING
  14      1     14       +5.67      0.00     13.88           RANKING
  15      1     15       +5.67      0.00      8.93           RANKING
  16      1     16       +5.67      0.00     10.77           RANKING
  17      1     17       +5.67      0.00      7.07           RANKING
  18      1     18       +5.67      0.00      7.14           RANKING
  19      1     19       +5.67      0.00      8.93           RANKING
  20      1     20       +5.67      0.00      6.56           RANKING

Run time 18.145 sec
Idle time 0.295 sec
