AutoDock-GPU version: v1.6

**********************************************************
**    AutoDock-GPU AUTODOCKTOOLS-COMPATIBLE DLG FILE    **
**********************************************************


    DOCKING PARAMETERS
    ________________________


Ligand file:                               ligands/ligand_0.pdbqt
Grid fld file:                             protein.maps.fld

Random seed:                               1770971765, 23891
Number of runs:                            20
Number of energy evaluations:              11867937
Number of generations:                     42000
Size of population:                        150
Rate of crossover:                         80.000000%
Tournament selection probability limit:    60.000000%
Rate of mutation:                          2.000000%
Maximal allowed delta movement:            +/- 6.000000A
Maximal allowed delta angle:               +/- 90.000000

Rate of local search:                      100.000000%
Maximal number of local search iterations: 300
Rho lower bound:                           0.010000
Spread of local search delta movement:     2.000000A
Spread of local search delta angle:        74.999999
Limit of consecutive successes/failures:   4

Handle symmetry during clustering:         YES
RMSD tolerance:                            2.000000A

Program call in command line was:          ./autodock-gpu --ffile protein.maps.fld --lfile ligands/ligand_0.pdbqt --nrun 20 


    GRID PARAMETERS
    ________________________


Receptor name:                             #MACROMOLECULE
Number of grid points (x, y, z):           61, 61, 61
Grid center (x, y, z):                     10.261000, -3.492000, -0.127000A
Grid size (x, y, z):                       22.500000, 22.500000, 22.500000A
Grid spacing:                              0.375000A


    LIGAND PARAMETERS
    ________________________


Ligand name:                               ligands/ligand_0
Number of atoms:                           77
Number of rotatable bonds:                 34
Number of atom types:                      6


    DUMMY DATA (only for ADT-compatibility)
    ________________________


DPF> outlev 1
DPF> ga_run 20
DPF> fld protein.maps.fld
DPF> move ligands/ligand_0.pdbqt


    COUNTER STATES
    ________________________


Number of energy evaluations performed:    11872733
Number of generations used:                614


    INPUT LIGAND PDBQT FILE:
    ________________________


INPUT-LIGAND-PDBQT: REMARK  Name = ligands/ligand_0.pdb
INPUT-LIGAND-PDBQT: REMARK  40 active torsions:
INPUT-LIGAND-PDBQT: REMARK  status: ('A' for Active; 'I' for Inactive)
INPUT-LIGAND-PDBQT: REMARK    1  A    between atoms: C1_1  and  C2_2
INPUT-LIGAND-PDBQT: REMARK    2  A    between atoms: C2_2  and  C3_3
INPUT-LIGAND-PDBQT: REMARK    3  A    between atoms: C2_2  and  C4_4
INPUT-LIGAND-PDBQT: REMARK    4  A    between atoms: C4_4  and  C5_5
INPUT-LIGAND-PDBQT: REMARK    5  A    between atoms: C5_5  and  N1_6
INPUT-LIGAND-PDBQT: REMARK    6  A    between atoms: C5_5  and  C20_31
INPUT-LIGAND-PDBQT: REMARK    7  A    between atoms: C6_7  and  C7_9
INPUT-LIGAND-PDBQT: REMARK    8  A    between atoms: C7_9  and  C8_10
INPUT-LIGAND-PDBQT: REMARK    9  A    between atoms: C7_9  and  N3_14
INPUT-LIGAND-PDBQT: REMARK   10  A    between atoms: C8_10  and  C9_11
INPUT-LIGAND-PDBQT: REMARK   11  A    between atoms: C10_15  and  C11_17
INPUT-LIGAND-PDBQT: REMARK   12  A    between atoms: C11_17  and  N4_18
INPUT-LIGAND-PDBQT: REMARK   13  A    between atoms: C11_17  and  C17_28
INPUT-LIGAND-PDBQT: REMARK   14  A    between atoms: C12_19  and  C13_21
INPUT-LIGAND-PDBQT: REMARK   15  A    between atoms: C13_21  and  N5_22
INPUT-LIGAND-PDBQT: REMARK   16  A    between atoms: C13_21  and  C14_23
INPUT-LIGAND-PDBQT: REMARK   17  A    between atoms: C14_23  and  C15_24
INPUT-LIGAND-PDBQT: REMARK   18  A    between atoms: C15_24  and  C16_25
INPUT-LIGAND-PDBQT: REMARK   19  A    between atoms: C16_25  and  O6_27
INPUT-LIGAND-PDBQT: REMARK   20  A    between atoms: C17_28  and  C18_29
INPUT-LIGAND-PDBQT: REMARK   21  A    between atoms: C17_28  and  C19_30
INPUT-LIGAND-PDBQT: REMARK   22  A    between atoms: C20_31  and  O7_32
INPUT-LIGAND-PDBQT: REMARK   23  A    between atoms: C20_31  and  C21_33
INPUT-LIGAND-PDBQT: REMARK   24  A    between atoms: C21_33  and  C22_34
INPUT-LIGAND-PDBQT: REMARK   25  A    between atoms: C22_34  and  C23_35
INPUT-LIGAND-PDBQT: REMARK   26  A    between atoms: C22_34  and  C24_36
INPUT-LIGAND-PDBQT: REMARK   27  A    between atoms: N6_38  and  C25_39
INPUT-LIGAND-PDBQT: REMARK   28  A    between atoms: C25_39  and  C26_40
INPUT-LIGAND-PDBQT: REMARK   29  A    between atoms: C25_39  and  C27_41
INPUT-LIGAND-PDBQT: REMARK   30  A    between atoms: N7_43  and  C28_44
INPUT-LIGAND-PDBQT: REMARK   31  A    between atoms: C28_44  and  C29_45
INPUT-LIGAND-PDBQT: REMARK   32  A    between atoms: C28_44  and  C32_50
INPUT-LIGAND-PDBQT: REMARK   33  A    between atoms: C29_45  and  C30_46
INPUT-LIGAND-PDBQT: REMARK   34  A    between atoms: C30_46  and  C31_47
INPUT-LIGAND-PDBQT: REMARK   35  A    between atoms: C31_47  and  O11_49
INPUT-LIGAND-PDBQT: REMARK   36  A    between atoms: N8_52  and  C33_53
INPUT-LIGAND-PDBQT: REMARK   37  A    between atoms: C33_53  and  C34_54
INPUT-LIGAND-PDBQT: REMARK   38  A    between atoms: C33_53  and  C41_61
INPUT-LIGAND-PDBQT: REMARK   39  A    between atoms: C34_54  and  C35_55
INPUT-LIGAND-PDBQT: REMARK   40  A    between atoms: C41_61  and  O14_63
INPUT-LIGAND-PDBQT: REMARK                            x       y       z     vdW  Elec       q    Type
INPUT-LIGAND-PDBQT: REMARK                         _______ _______ _______ _____ _____    ______ ____
INPUT-LIGAND-PDBQT: ROOT
INPUT-LIGAND-PDBQT: ATOM      1  C20 UNL     1       4.231  -1.282   2.759  0.00  0.00    +0.135 C 
INPUT-LIGAND-PDBQT: ENDROOT
INPUT-LIGAND-PDBQT: BRANCH   1   2
INPUT-LIGAND-PDBQT: ATOM      2  O7  UNL     1       4.242  -0.002   3.384  0.00  0.00    -0.390 OA
INPUT-LIGAND-PDBQT: ATOM      3  H36 UNL     1       4.379   0.681   2.693  0.00  0.00    +0.210 HD
INPUT-LIGAND-PDBQT: ENDBRANCH   1   2
INPUT-LIGAND-PDBQT: BRANCH   1   4
INPUT-LIGAND-PDBQT: ATOM      4  C21 UNL     1       2.785  -1.806   2.653  0.00  0.00    +0.045 C 
INPUT-LIGAND-PDBQT: BRANCH   4   5
INPUT-LIGAND-PDBQT: ATOM      5  C22 UNL     1       1.820  -1.034   1.731  0.00  0.00    +0.074 C 
INPUT-LIGAND-PDBQT: ATOM      6  C23 UNL     1       1.633  -1.778   0.401  0.00  0.00    +0.017 C 
INPUT-LIGAND-PDBQT: BRANCH   5   7
INPUT-LIGAND-PDBQT: ATOM      7  C24 UNL     1       0.440  -0.876   2.379  0.00  0.00    +0.217 C 
INPUT-LIGAND-PDBQT: ATOM      8  O8  UNL     1       0.082  -1.489   3.380  0.00  0.00    -0.276 OA
INPUT-LIGAND-PDBQT: ATOM      9  N6  UNL     1      -0.405  -0.009   1.711  0.00  0.00    -0.304 N 
INPUT-LIGAND-PDBQT: ATOM     10  H43 UNL     1      -0.163   0.200   0.745  0.00  0.00    +0.149 HD
INPUT-LIGAND-PDBQT: BRANCH   9  11
INPUT-LIGAND-PDBQT: ATOM     11  C25 UNL     1      -1.821  -0.014   2.063  0.00  0.00    +0.156 C 
INPUT-LIGAND-PDBQT: ATOM     12  C26 UNL     1      -2.496   1.276   1.616  0.00  0.00    +0.038 C 
INPUT-LIGAND-PDBQT: BRANCH  11  13
INPUT-LIGAND-PDBQT: ATOM     13  C27 UNL     1      -2.510  -1.228   1.399  0.00  0.00    +0.234 C 
INPUT-LIGAND-PDBQT: ATOM     14  O9  UNL     1      -2.043  -1.807   0.414  0.00  0.00    -0.274 OA
INPUT-LIGAND-PDBQT: ATOM     15  N7  UNL     1      -3.710  -1.587   1.972  0.00  0.00    -0.302 N 
INPUT-LIGAND-PDBQT: ATOM     16  H48 UNL     1      -4.170  -0.925   2.590  0.00  0.00    +0.150 HD
INPUT-LIGAND-PDBQT: BRANCH  15  17
INPUT-LIGAND-PDBQT: ATOM     17  C28 UNL     1      -4.578  -2.585   1.355  0.00  0.00    +0.159 C 
INPUT-LIGAND-PDBQT: BRANCH  17  18
INPUT-LIGAND-PDBQT: ATOM     18  C32 UNL     1      -5.763  -1.830   0.720  0.00  0.00    +0.234 C 
INPUT-LIGAND-PDBQT: ATOM     19  O12 UNL     1      -6.283  -0.855   1.254  0.00  0.00    -0.274 OA
INPUT-LIGAND-PDBQT: ATOM     20  N8  UNL     1      -6.245  -2.423  -0.428  0.00  0.00    -0.301 N 
INPUT-LIGAND-PDBQT: ATOM     21  H55 UNL     1      -5.527  -2.862  -0.993  0.00  0.00    +0.150 HD
INPUT-LIGAND-PDBQT: BRANCH  20  22
INPUT-LIGAND-PDBQT: ATOM     22  C33 UNL     1      -7.303  -1.762  -1.199  0.00  0.00    +0.186 C 
INPUT-LIGAND-PDBQT: BRANCH  22  23
INPUT-LIGAND-PDBQT: ATOM     23  C41 UNL     1      -8.600  -1.725  -0.384  0.00  0.00    +0.326 C 
INPUT-LIGAND-PDBQT: ATOM     24  O13 UNL     1      -8.980  -2.541   0.444  0.00  0.00    -0.249 OA
INPUT-LIGAND-PDBQT: BRANCH  23  25
INPUT-LIGAND-PDBQT: ATOM     25  O14 UNL     1      -9.388  -0.674  -0.703  0.00  0.00    -0.479 OA
INPUT-LIGAND-PDBQT: ATOM     26  H64 UNL     1     -10.138  -0.757  -0.077  0.00  0.00    +0.295 HD
INPUT-LIGAND-PDBQT: ENDBRANCH  23  25
INPUT-LIGAND-PDBQT: ENDBRANCH  22  23
INPUT-LIGAND-PDBQT: BRANCH  22  27
INPUT-LIGAND-PDBQT: ATOM     27  C34 UNL     1      -7.622  -2.519  -2.500  0.00  0.00    +0.069 C 
INPUT-LIGAND-PDBQT: BRANCH  27  28
INPUT-LIGAND-PDBQT: ATOM     28  C35 UNL     1      -6.437  -2.680  -3.423  0.00  0.00    -0.045 A 
INPUT-LIGAND-PDBQT: ATOM     29  C36 UNL     1      -5.746  -3.900  -3.481  0.00  0.00    +0.004 A 
INPUT-LIGAND-PDBQT: ATOM     30  C37 UNL     1      -4.633  -4.045  -4.311  0.00  0.00    +0.000 A 
INPUT-LIGAND-PDBQT: ATOM     31  C38 UNL     1      -4.204  -2.976  -5.094  0.00  0.00    +0.000 A 
INPUT-LIGAND-PDBQT: ATOM     32  C39 UNL     1      -4.887  -1.761  -5.049  0.00  0.00    +0.000 A 
INPUT-LIGAND-PDBQT: ATOM     33  C40 UNL     1      -5.996  -1.612  -4.214  0.00  0.00    +0.004 A 
INPUT-LIGAND-PDBQT: ENDBRANCH  27  28
INPUT-LIGAND-PDBQT: ENDBRANCH  22  27
INPUT-LIGAND-PDBQT: ENDBRANCH  20  22
INPUT-LIGAND-PDBQT: ENDBRANCH  17  18
INPUT-LIGAND-PDBQT: BRANCH  17  34
INPUT-LIGAND-PDBQT: ATOM     34  C29 UNL     1      -5.081  -3.570   2.420  0.00  0.00    +0.043 C 
INPUT-LIGAND-PDBQT: BRANCH  34  35
INPUT-LIGAND-PDBQT: ATOM     35  C30 UNL     1      -5.858  -4.762   1.857  0.00  0.00    +0.123 C 
INPUT-LIGAND-PDBQT: BRANCH  35  36
INPUT-LIGAND-PDBQT: ATOM     36  C31 UNL     1      -5.068  -5.590   0.881  0.00  0.00    +0.305 C 
INPUT-LIGAND-PDBQT: ATOM     37  O10 UNL     1      -5.478  -6.024  -0.186  0.00  0.00    -0.251 OA
INPUT-LIGAND-PDBQT: BRANCH  36  38
INPUT-LIGAND-PDBQT: ATOM     38  O11 UNL     1      -3.832  -5.886   1.312  0.00  0.00    -0.481 OA
INPUT-LIGAND-PDBQT: ATOM     39  H54 UNL     1      -3.448  -6.452   0.610  0.00  0.00    +0.295 HD
INPUT-LIGAND-PDBQT: ENDBRANCH  36  38
INPUT-LIGAND-PDBQT: ENDBRANCH  35  36
INPUT-LIGAND-PDBQT: ENDBRANCH  34  35
INPUT-LIGAND-PDBQT: ENDBRANCH  17  34
INPUT-LIGAND-PDBQT: ENDBRANCH  15  17
INPUT-LIGAND-PDBQT: ENDBRANCH  11  13
INPUT-LIGAND-PDBQT: ENDBRANCH   9  11
INPUT-LIGAND-PDBQT: ENDBRANCH   5   7
INPUT-LIGAND-PDBQT: ENDBRANCH   4   5
INPUT-LIGAND-PDBQT: ENDBRANCH   1   4
INPUT-LIGAND-PDBQT: BRANCH   1  40
INPUT-LIGAND-PDBQT: ATOM     40  C5  UNL     1       5.113  -1.372   1.482  0.00  0.00    +0.102 C 
INPUT-LIGAND-PDBQT: BRANCH  40  41
INPUT-LIGAND-PDBQT: ATOM     41  N1  UNL     1       4.652  -0.562   0.341  0.00  0.00    -0.308 N 
INPUT-LIGAND-PDBQT: ATOM     42  C6  UNL     1       4.558   0.812   0.313  0.00  0.00    +0.234 C 
INPUT-LIGAND-PDBQT: ATOM     43  O1  UNL     1       4.758   1.518   1.298  0.00  0.00    -0.274 OA
INPUT-LIGAND-PDBQT: ATOM     44  H11 UNL     1       4.513  -1.057  -0.536  0.00  0.00    +0.149 HD
INPUT-LIGAND-PDBQT: BRANCH  42  45
INPUT-LIGAND-PDBQT: ATOM     45  C7  UNL     1       4.277   1.402  -1.078  0.00  0.00    +0.168 C 
INPUT-LIGAND-PDBQT: BRANCH  45  46
INPUT-LIGAND-PDBQT: ATOM     46  N3  UNL     1       3.511   2.639  -0.933  0.00  0.00    -0.302 N 
INPUT-LIGAND-PDBQT: ATOM     47  C10 UNL     1       2.137   2.604  -0.831  0.00  0.00    +0.234 C 
INPUT-LIGAND-PDBQT: ATOM     48  O3  UNL     1       1.492   1.551  -0.797  0.00  0.00    -0.274 OA
INPUT-LIGAND-PDBQT: ATOM     49  H17 UNL     1       3.985   3.441  -0.535  0.00  0.00    +0.150 HD
INPUT-LIGAND-PDBQT: BRANCH  47  50
INPUT-LIGAND-PDBQT: ATOM     50  C11 UNL     1       1.454   3.991  -0.770  0.00  0.00    +0.161 C 
INPUT-LIGAND-PDBQT: BRANCH  50  51
INPUT-LIGAND-PDBQT: ATOM     51  N4  UNL     1       0.091   3.816  -1.270  0.00  0.00    -0.302 N 
INPUT-LIGAND-PDBQT: ATOM     52  C12 UNL     1      -0.119   3.780  -2.637  0.00  0.00    +0.230 C 
INPUT-LIGAND-PDBQT: ATOM     53  O4  UNL     1       0.677   4.252  -3.446  0.00  0.00    -0.274 OA
INPUT-LIGAND-PDBQT: ATOM     54  H19 UNL     1      -0.481   3.191  -0.718  0.00  0.00    +0.150 HD
INPUT-LIGAND-PDBQT: BRANCH  52  55
INPUT-LIGAND-PDBQT: ATOM     55  C13 UNL     1      -1.447   3.103  -3.075  0.00  0.00    +0.138 C 
INPUT-LIGAND-PDBQT: BRANCH  55  56
INPUT-LIGAND-PDBQT: ATOM     56  N5  UNL     1      -1.630   3.267  -4.533  0.00  0.00    -0.320 NA
INPUT-LIGAND-PDBQT: ATOM     57  H21 UNL     1      -1.427   4.246  -4.756  0.00  0.00    +0.119 HD
INPUT-LIGAND-PDBQT: ATOM     58  H22 UNL     1      -0.861   2.774  -4.998  0.00  0.00    +0.119 HD
INPUT-LIGAND-PDBQT: ENDBRANCH  55  56
INPUT-LIGAND-PDBQT: BRANCH  55  59
INPUT-LIGAND-PDBQT: ATOM     59  C14 UNL     1      -1.430   1.617  -2.699  0.00  0.00    +0.039 C 
INPUT-LIGAND-PDBQT: BRANCH  59  60
INPUT-LIGAND-PDBQT: ATOM     60  C15 UNL     1      -2.688   0.852  -3.112  0.00  0.00    +0.122 C 
INPUT-LIGAND-PDBQT: BRANCH  60  61
INPUT-LIGAND-PDBQT: ATOM     61  C16 UNL     1      -2.925  -0.297  -2.172  0.00  0.00    +0.305 C 
INPUT-LIGAND-PDBQT: ATOM     62  O5  UNL     1      -3.954  -0.500  -1.546  0.00  0.00    -0.251 OA
INPUT-LIGAND-PDBQT: BRANCH  61  63
INPUT-LIGAND-PDBQT: ATOM     63  O6  UNL     1      -1.843  -1.085  -2.033  0.00  0.00    -0.481 OA
INPUT-LIGAND-PDBQT: ATOM     64  H27 UNL     1      -2.016  -1.638  -1.229  0.00  0.00    +0.295 HD
INPUT-LIGAND-PDBQT: ENDBRANCH  61  63
INPUT-LIGAND-PDBQT: ENDBRANCH  60  61
INPUT-LIGAND-PDBQT: ENDBRANCH  59  60
INPUT-LIGAND-PDBQT: ENDBRANCH  55  59
INPUT-LIGAND-PDBQT: ENDBRANCH  52  55
INPUT-LIGAND-PDBQT: ENDBRANCH  50  51
INPUT-LIGAND-PDBQT: BRANCH  50  65
INPUT-LIGAND-PDBQT: ATOM     65  C17 UNL     1       1.512   4.591   0.650  0.00  0.00    +0.012 C 
INPUT-LIGAND-PDBQT: ATOM     66  C18 UNL     1       1.045   6.050   0.637  0.00  0.00    +0.009 C 
INPUT-LIGAND-PDBQT: ATOM     67  C19 UNL     1       0.703   3.801   1.683  0.00  0.00    +0.009 C 
INPUT-LIGAND-PDBQT: ENDBRANCH  50  65
INPUT-LIGAND-PDBQT: ENDBRANCH  47  50
INPUT-LIGAND-PDBQT: ENDBRANCH  45  46
INPUT-LIGAND-PDBQT: BRANCH  45  68
INPUT-LIGAND-PDBQT: ATOM     68  C8  UNL     1       5.629   1.652  -1.757  0.00  0.00    +0.127 C 
INPUT-LIGAND-PDBQT: BRANCH  68  69
INPUT-LIGAND-PDBQT: ATOM     69  C9  UNL     1       5.664   1.137  -3.176  0.00  0.00    +0.213 C 
INPUT-LIGAND-PDBQT: ATOM     70  N2  UNL     1       6.847   1.354  -3.821  0.00  0.00    -0.329 N 
INPUT-LIGAND-PDBQT: ATOM     71  O2  UNL     1       4.739   0.564  -3.739  0.00  0.00    -0.276 OA
INPUT-LIGAND-PDBQT: ATOM     72  H15 UNL     1       6.922   1.048  -4.783  0.00  0.00    +0.145 HD
INPUT-LIGAND-PDBQT: ATOM     73  H16 UNL     1       7.641   1.817  -3.399  0.00  0.00    +0.145 HD
INPUT-LIGAND-PDBQT: ENDBRANCH  68  69
INPUT-LIGAND-PDBQT: ENDBRANCH  45  68
INPUT-LIGAND-PDBQT: ENDBRANCH  42  45
INPUT-LIGAND-PDBQT: ENDBRANCH  40  41
INPUT-LIGAND-PDBQT: BRANCH  40  74
INPUT-LIGAND-PDBQT: ATOM     74  C4  UNL     1       6.614  -1.068   1.724  0.00  0.00    +0.028 C 
INPUT-LIGAND-PDBQT: BRANCH  74  76
INPUT-LIGAND-PDBQT: ATOM     75  C1  UNL     1       7.429  -1.774   4.059  0.00  0.00    +0.007 C 
INPUT-LIGAND-PDBQT: ATOM     76  C2  UNL     1       7.457  -2.062   2.557  0.00  0.00    -0.015 C 
INPUT-LIGAND-PDBQT: ATOM     77  C3  UNL     1       7.141  -3.529   2.276  0.00  0.00    +0.007 C 
INPUT-LIGAND-PDBQT: ENDBRANCH  74  76
INPUT-LIGAND-PDBQT: ENDBRANCH  40  74
INPUT-LIGAND-PDBQT: ENDBRANCH   1  40
INPUT-LIGAND-PDBQT: TORSDOF 34


    FINAL DOCKED STATE:
    ________________________


Run:   1 / 20
Time taken for this run:   5.922s

DOCKED: MODEL        1
DOCKED: USER    Run = 1
DOCKED: USER
DOCKED: USER    Estimated Free Energy of Binding    = +10.14 kcal/mol  [=(1)+(2)+(3)-(4)]
DOCKED: USER
DOCKED: USER    (1) Final Intermolecular Energy     =  +0.00 kcal/mol
DOCKED: USER        vdW + Hbond + desolv Energy     =  +0.00 kcal/mol
DOCKED: USER        Electrostatic Energy            =  +0.00 kcal/mol
DOCKED: USER        Moving Ligand-Fixed Receptor    =  +0.00 kcal/mol
DOCKED: USER        Moving Ligand-Moving Receptor   =  +0.00 kcal/mol
DOCKED: USER    (2) Final Total Internal Energy     = -32.20 kcal/mol
DOCKED: USER    (3) Torsional Free Energy           = +10.14 kcal/mol
DOCKED: USER    (4) Unbound System's Energy         = -32.20 kcal/mol
DOCKED: USER
DOCKED: USER
DOCKED: REMARK  Name = ligands/ligand_0.pdb
DOCKED: REMARK  40 active torsions:
DOCKED: REMARK  status: ('A' for Active; 'I' for Inactive)
DOCKED: REMARK    1  A    between atoms: C1_1  and  C2_2
DOCKED: REMARK    2  A    between atoms: C2_2  and  C3_3
DOCKED: REMARK    3  A    between atoms: C2_2  and  C4_4
DOCKED: REMARK    4  A    between atoms: C4_4  and  C5_5
DOCKED: REMARK    5  A    between atoms: C5_5  and  N1_6
DOCKED: REMARK    6  A    between atoms: C5_5  and  C20_31
DOCKED: REMARK    7  A    between atoms: C6_7  and  C7_9
DOCKED: REMARK    8  A    between atoms: C7_9  and  C8_10
DOCKED: REMARK    9  A    between atoms: C7_9  and  N3_14
DOCKED: REMARK   10  A    between atoms: C8_10  and  C9_11
DOCKED: REMARK   11  A    between atoms: C10_15  and  C11_17
DOCKED: REMARK   12  A    between atoms: C11_17  and  N4_18
DOCKED: REMARK   13  A    between atoms: C11_17  and  C17_28
DOCKED: REMARK   14  A    between atoms: C12_19  and  C13_21
DOCKED: REMARK   15  A    between atoms: C13_21  and  N5_22
DOCKED: REMARK   16  A    between atoms: C13_21  and  C14_23
DOCKED: REMARK   17  A    between atoms: C14_23  and  C15_24
DOCKED: REMARK   18  A    between atoms: C15_24  and  C16_25
DOCKED: REMARK   19  A    between atoms: C16_25  and  O6_27
DOCKED: REMARK   20  A    between atoms: C17_28  and  C18_29
DOCKED: REMARK   21  A    between atoms: C17_28  and  C19_30
DOCKED: REMARK   22  A    between atoms: C20_31  and  O7_32
DOCKED: REMARK   23  A    between atoms: C20_31  and  C21_33
DOCKED: REMARK   24  A    between atoms: C21_33  and  C22_34
DOCKED: REMARK   25  A    between atoms: C22_34  and  C23_35
DOCKED: REMARK   26  A    between atoms: C22_34  and  C24_36
DOCKED: REMARK   27  A    between atoms: N6_38  and  C25_39
DOCKED: REMARK   28  A    between atoms: C25_39  and  C26_40
DOCKED: REMARK   29  A    between atoms: C25_39  and  C27_41
DOCKED: REMARK   30  A    between atoms: N7_43  and  C28_44
DOCKED: REMARK   31  A    between atoms: C28_44  and  C29_45
DOCKED: REMARK   32  A    between atoms: C28_44  and  C32_50
DOCKED: REMARK   33  A    between atoms: C29_45  and  C30_46
DOCKED: REMARK   34  A    between atoms: C30_46  and  C31_47
DOCKED: REMARK   35  A    between atoms: C31_47  and  O11_49
DOCKED: REMARK   36  A    between atoms: N8_52  and  C33_53
DOCKED: REMARK   37  A    between atoms: C33_53  and  C34_54
DOCKED: REMARK   38  A    between atoms: C33_53  and  C41_61
DOCKED: REMARK   39  A    between atoms: C34_54  and  C35_55
DOCKED: REMARK   40  A    between atoms: C41_61  and  O14_63
DOCKED: REMARK                            x       y       z     vdW  Elec       q    Type
DOCKED: REMARK                         _______ _______ _______ _____ _____    ______ ____
DOCKED: USER                              x       y       z     vdW  Elec       q    Type
DOCKED: USER                           _______ _______ _______ _____ _____    ______ ____
DOCKED: ROOT
DOCKED: ATOM      1  C20 UNL     1      12.171  -7.608  -3.639 +0.00 +0.00    +0.135 C  
DOCKED: ENDROOT
DOCKED: BRANCH   1   2
DOCKED: ATOM      2  O7  UNL     1      12.172  -6.322  -3.027 +0.00 -0.00    -0.390 OA 
DOCKED: ATOM      3  H36 UNL     1      13.094  -5.985  -3.010 +0.00 +0.00    +0.210 HD 
DOCKED: ENDBRANCH   1   2
DOCKED: BRANCH   1   4
DOCKED: ATOM      4  C21 UNL     1      10.727  -8.137  -3.755 +0.00 +0.00    +0.045 C  
DOCKED: BRANCH   4   5
DOCKED: ATOM      5  C22 UNL     1      10.446  -9.548  -3.202 +0.00 +0.00    +0.074 C  
DOCKED: ATOM      6  C23 UNL     1      11.489 -10.549  -3.720 +0.00 +0.00    +0.017 C  
DOCKED: BRANCH   5   7
DOCKED: ATOM      7  C24 UNL     1      10.498  -9.566  -1.670 +0.00 +0.00    +0.217 C  
DOCKED: ATOM      8  O8  UNL     1       9.852 -10.343  -0.974 +0.00 -0.00    -0.276 OA 
DOCKED: ATOM      9  N6  UNL     1      11.308  -8.590  -1.119 +0.00 -0.00    -0.304 N  
DOCKED: ATOM     10  H43 UNL     1      11.542  -7.806  -1.723 +0.00 +0.00    +0.149 HD 
DOCKED: BRANCH   9  11
DOCKED: ATOM     11  C25 UNL     1      11.197  -8.326   0.312 +0.00 +0.00    +0.156 C  
DOCKED: ATOM     12  C26 UNL     1      12.553  -7.963   0.903 +0.00 +0.00    +0.038 C  
DOCKED: BRANCH  11  13
DOCKED: ATOM     13  C27 UNL     1      10.194  -7.174   0.545 +0.00 +0.00    +0.234 C  
DOCKED: ATOM     14  O9  UNL     1       9.316  -7.215   1.412 +0.00 -0.00    -0.274 OA 
DOCKED: ATOM     15  N7  UNL     1      10.332  -6.112  -0.321 +0.00 -0.00    -0.302 N  
DOCKED: ATOM     16  H48 UNL     1      10.877  -6.245  -1.169 +0.00 +0.00    +0.150 HD 
DOCKED: BRANCH  15  17
DOCKED: ATOM     17  C28 UNL     1       9.352  -5.032  -0.363 +0.00 +0.00    +0.159 C  
DOCKED: BRANCH  17  18
DOCKED: ATOM     18  C32 UNL     1       9.034  -4.760  -1.847 +0.00 +0.00    +0.234 C  
DOCKED: ATOM     19  O12 UNL     1       7.893  -4.548  -2.246 +0.00 -0.00    -0.274 OA 
DOCKED: ATOM     20  N8  UNL     1      10.125  -4.893  -2.679 +0.00 -0.00    -0.301 N  
DOCKED: ATOM     21  H55 UNL     1      10.999  -4.600  -2.257 +0.00 +0.00    +0.150 HD 
DOCKED: BRANCH  20  22
DOCKED: ATOM     22  C33 UNL     1       9.999  -4.564  -4.103 +0.00 +0.00    +0.186 C  
DOCKED: BRANCH  22  23
DOCKED: ATOM     23  C41 UNL     1      11.386  -4.345  -4.715 +0.00 +0.00    +0.326 C  
DOCKED: ATOM     24  O13 UNL     1      11.711  -4.483  -5.886 +0.00 -0.00    -0.249 OA 
DOCKED: BRANCH  23  25
DOCKED: ATOM     25  O14 UNL     1      12.318  -4.013  -3.793 +0.00 -0.00    -0.479 OA 
DOCKED: ATOM     26  H64 UNL     1      12.163  -4.661  -3.074 +0.00 +0.00    +0.295 HD 
DOCKED: ENDBRANCH  23  25
DOCKED: ENDBRANCH  22  23
DOCKED: BRANCH  22  27
DOCKED: ATOM     27  C34 UNL     1       9.210  -3.261  -4.321 +0.00 +0.00    +0.069 C  
DOCKED: BRANCH  27  28
DOCKED: ATOM     28  C35 UNL     1       9.922  -2.023  -3.829 +0.00 -0.00    -0.045 A  
DOCKED: ATOM     29  C36 UNL     1      10.644  -1.219  -4.725 +0.00 +0.00    +0.004 A  
DOCKED: ATOM     30  C37 UNL     1      11.327  -0.090  -4.270 +0.00 +0.00    +0.000 A  
DOCKED: ATOM     31  C38 UNL     1      11.290   0.250  -2.920 +0.00 +0.00    +0.000 A  
DOCKED: ATOM     32  C39 UNL     1      10.570  -0.537  -2.023 +0.00 +0.00    +0.000 A  
DOCKED: ATOM     33  C40 UNL     1       9.892  -1.672  -2.474 +0.00 +0.00    +0.004 A  
DOCKED: ENDBRANCH  27  28
DOCKED: ENDBRANCH  22  27
DOCKED: ENDBRANCH  20  22
DOCKED: ENDBRANCH  17  18
DOCKED: BRANCH  17  34
DOCKED: ATOM     34  C29 UNL     1       9.932  -3.774   0.299 +0.00 +0.00    +0.043 C  
DOCKED: BRANCH  34  35
DOCKED: ATOM     35  C30 UNL     1      11.446  -3.819   0.515 +0.00 +0.00    +0.123 C  
DOCKED: BRANCH  35  36
DOCKED: ATOM     36  C31 UNL     1      12.234  -3.935  -0.761 +0.00 +0.00    +0.305 C  
DOCKED: ATOM     37  O10 UNL     1      12.428  -3.036  -1.567 +0.00 -0.00    -0.251 OA 
DOCKED: BRANCH  36  38
DOCKED: ATOM     38  O11 UNL     1      12.685  -5.177  -0.998 +0.00 -0.00    -0.481 OA 
DOCKED: ATOM     39  H54 UNL     1      12.899  -5.190  -1.954 +0.00 +0.00    +0.295 HD 
DOCKED: ENDBRANCH  36  38
DOCKED: ENDBRANCH  35  36
DOCKED: ENDBRANCH  34  35
DOCKED: ENDBRANCH  17  34
DOCKED: ENDBRANCH  15  17
DOCKED: ENDBRANCH  11  13
DOCKED: ENDBRANCH   9  11
DOCKED: ENDBRANCH   5   7
DOCKED: ENDBRANCH   4   5
DOCKED: ENDBRANCH   1   4
DOCKED: BRANCH   1  40
DOCKED: ATOM     40  C5  UNL     1      13.066  -7.709  -4.906 +0.00 +0.00    +0.102 C  
DOCKED: BRANCH  40  41
DOCKED: ATOM     41  N1  UNL     1      13.627  -6.432  -5.382 +0.00 -0.00    -0.308 N  
DOCKED: ATOM     42  C6  UNL     1      14.429  -6.267  -6.490 +0.00 +0.00    +0.234 C  
DOCKED: ATOM     43  O1  UNL     1      14.855  -7.208  -7.155 +0.00 -0.00    -0.274 OA 
DOCKED: ATOM     44  H11 UNL     1      13.286  -5.591  -4.924 +0.00 +0.00    +0.149 HD 
DOCKED: BRANCH  42  45
DOCKED: ATOM     45  C7  UNL     1      14.670  -4.803  -6.888 +0.00 +0.00    +0.168 C  
DOCKED: BRANCH  45  46
DOCKED: ATOM     46  N3  UNL     1      14.331  -3.933  -5.762 +0.00 -0.00    -0.302 N  
DOCKED: ATOM     47  C10 UNL     1      14.658  -2.595  -5.788 +0.00 +0.00    +0.234 C  
DOCKED: ATOM     48  O3  UNL     1      15.190  -2.051  -6.761 +0.00 -0.00    -0.274 OA 
DOCKED: ATOM     49  H17 UNL     1      13.554  -4.209  -5.173 +0.00 +0.00    +0.150 HD 
DOCKED: BRANCH  47  50
DOCKED: ATOM     50  C11 UNL     1      14.316  -1.817  -4.495 +0.00 +0.00    +0.161 C  
DOCKED: BRANCH  50  51
DOCKED: ATOM     51  N4  UNL     1      14.723  -2.660  -3.371 +0.00 -0.00    -0.302 N  
DOCKED: ATOM     52  C12 UNL     1      16.022  -2.568  -2.905 +0.00 +0.00    +0.230 C  
DOCKED: ATOM     53  O4  UNL     1      16.944  -2.124  -3.585 +0.00 -0.00    -0.274 OA 
DOCKED: ATOM     54  H19 UNL     1      14.009  -2.795  -2.668 +0.00 +0.00    +0.150 HD 
DOCKED: BRANCH  52  55
DOCKED: ATOM     55  C13 UNL     1      16.231  -3.080  -1.453 +0.00 +0.00    +0.138 C  
DOCKED: BRANCH  55  56
DOCKED: ATOM     56  N5  UNL     1      14.917  -3.302  -0.811 +0.00 -0.00    -0.320 NA 
DOCKED: ATOM     57  H21 UNL     1      14.285  -2.573  -1.154 +0.00 +0.00    +0.119 HD 
DOCKED: ATOM     58  H22 UNL     1      14.514  -4.151  -1.221 +0.00 +0.00    +0.119 HD 
DOCKED: ENDBRANCH  55  56
DOCKED: BRANCH  55  59
DOCKED: ATOM     59  C14 UNL     1      17.051  -4.375  -1.463 +0.00 +0.00    +0.039 C  
DOCKED: BRANCH  59  60
DOCKED: ATOM     60  C15 UNL     1      16.602  -5.392  -2.513 +0.00 +0.00    +0.122 C  
DOCKED: BRANCH  60  61
DOCKED: ATOM     61  C16 UNL     1      15.138  -5.692  -2.349 +0.00 +0.00    +0.305 C  
DOCKED: ATOM     62  O5  UNL     1      14.665  -6.518  -1.584 +0.00 -0.00    -0.251 OA 
DOCKED: BRANCH  61  63
DOCKED: ATOM     63  O6  UNL     1      14.365  -4.980  -3.191 +0.00 -0.00    -0.481 OA 
DOCKED: ATOM     64  H27 UNL     1      13.849  -4.357  -2.618 +0.00 +0.00    +0.295 HD 
DOCKED: ENDBRANCH  61  63
DOCKED: ENDBRANCH  60  61
DOCKED: ENDBRANCH  59  60
DOCKED: ENDBRANCH  55  59
DOCKED: ENDBRANCH  52  55
DOCKED: ENDBRANCH  50  51
DOCKED: BRANCH  50  65
DOCKED: ATOM     65  C17 UNL     1      14.971  -0.421  -4.481 +0.00 +0.00    +0.012 C  
DOCKED: ATOM     66  C18 UNL     1      14.431   0.439  -5.628 +0.00 +0.00    +0.009 C  
DOCKED: ATOM     67  C19 UNL     1      14.798   0.325  -3.154 +0.00 +0.00    +0.009 C  
DOCKED: ENDBRANCH  50  65
DOCKED: ENDBRANCH  47  50
DOCKED: ENDBRANCH  45  46
DOCKED: BRANCH  45  68
DOCKED: ATOM     68  C8  UNL     1      16.147  -4.667  -7.281 +0.00 +0.00    +0.127 C  
DOCKED: BRANCH  68  69
DOCKED: ATOM     69  C9  UNL     1      17.074  -4.842  -6.102 +0.00 +0.00    +0.213 C  
DOCKED: ATOM     70  N2  UNL     1      17.342  -3.689  -5.424 +0.00 -0.00    -0.329 N  
DOCKED: ATOM     71  O2  UNL     1      17.562  -5.908  -5.744 +0.00 -0.00    -0.276 OA 
DOCKED: ATOM     72  H15 UNL     1      17.975  -3.742  -4.636 +0.00 +0.00    +0.145 HD 
DOCKED: ATOM     73  H16 UNL     1      16.960  -2.787  -5.676 +0.00 +0.00    +0.145 HD 
DOCKED: ENDBRANCH  68  69
DOCKED: ENDBRANCH  45  68
DOCKED: ENDBRANCH  42  45
DOCKED: ENDBRANCH  40  41
DOCKED: BRANCH  40  74
DOCKED: ATOM     74  C4  UNL     1      14.221  -8.737  -4.787 +0.00 +0.00    +0.028 C  
DOCKED: BRANCH  74  76
DOCKED: ATOM     75  C1  UNL     1      14.766  -9.676  -2.456 +0.00 +0.00    +0.007 C  
DOCKED: ATOM     76  C2  UNL     1      15.151  -8.682  -3.553 +0.00 -0.00    -0.015 C  
DOCKED: ATOM     77  C3  UNL     1      16.636  -8.791  -3.891 +0.00 +0.00    +0.007 C  
DOCKED: ENDBRANCH  74  76
DOCKED: ENDBRANCH  40  74
DOCKED: ENDBRANCH   1  40
DOCKED: TORSDOF 34
DOCKED: TER
DOCKED: ENDMDL
________________________________________________________________________________


    FINAL DOCKED STATE:
    ________________________


Run:   2 / 20
Time taken for this run:   5.922s

DOCKED: MODEL        2
DOCKED: USER    Run = 2
DOCKED: USER
DOCKED: USER    Estimated Free Energy of Binding    = +10.14 kcal/mol  [=(1)+(2)+(3)-(4)]
DOCKED: USER
DOCKED: USER    (1) Final Intermolecular Energy     =  +0.00 kcal/mol
DOCKED: USER        vdW + Hbond + desolv Energy     =  +0.00 kcal/mol
DOCKED: USER        Electrostatic Energy            =  +0.00 kcal/mol
DOCKED: USER        Moving Ligand-Fixed Receptor    =  +0.00 kcal/mol
DOCKED: USER        Moving Ligand-Moving Receptor   =  +0.00 kcal/mol
DOCKED: USER    (2) Final Total Internal Energy     = -29.60 kcal/mol
DOCKED: USER    (3) Torsional Free Energy           = +10.14 kcal/mol
DOCKED: USER    (4) Unbound System's Energy         = -29.60 kcal/mol
DOCKED: USER
DOCKED: USER
DOCKED: REMARK  Name = ligands/ligand_0.pdb
DOCKED: REMARK  40 active torsions:
DOCKED: REMARK  status: ('A' for Active; 'I' for Inactive)
DOCKED: REMARK    1  A    between atoms: C1_1  and  C2_2
DOCKED: REMARK    2  A    between atoms: C2_2  and  C3_3
DOCKED: REMARK    3  A    between atoms: C2_2  and  C4_4
DOCKED: REMARK    4  A    between atoms: C4_4  and  C5_5
DOCKED: REMARK    5  A    between atoms: C5_5  and  N1_6
DOCKED: REMARK    6  A    between atoms: C5_5  and  C20_31
DOCKED: REMARK    7  A    between atoms: C6_7  and  C7_9
DOCKED: REMARK    8  A    between atoms: C7_9  and  C8_10
DOCKED: REMARK    9  A    between atoms: C7_9  and  N3_14
DOCKED: REMARK   10  A    between atoms: C8_10  and  C9_11
DOCKED: REMARK   11  A    between atoms: C10_15  and  C11_17
DOCKED: REMARK   12  A    between atoms: C11_17  and  N4_18
DOCKED: REMARK   13  A    between atoms: C11_17  and  C17_28
DOCKED: REMARK   14  A    between atoms: C12_19  and  C13_21
DOCKED: REMARK   15  A    between atoms: C13_21  and  N5_22
DOCKED: REMARK   16  A    between atoms: C13_21  and  C14_23
DOCKED: REMARK   17  A    between atoms: C14_23  and  C15_24
DOCKED: REMARK   18  A    between atoms: C15_24  and  C16_25
DOCKED: REMARK   19  A    between atoms: C16_25  and  O6_27
DOCKED: REMARK   20  A    between atoms: C17_28  and  C18_29
DOCKED: REMARK   21  A    between atoms: C17_28  and  C19_30
DOCKED: REMARK   22  A    between atoms: C20_31  and  O7_32
DOCKED: REMARK   23  A    between atoms: C20_31  and  C21_33
DOCKED: REMARK   24  A    between atoms: C21_33  and  C22_34
DOCKED: REMARK   25  A    between atoms: C22_34  and  C23_35
DOCKED: REMARK   26  A    between atoms: C22_34  and  C24_36
DOCKED: REMARK   27  A    between atoms: N6_38  and  C25_39
DOCKED: REMARK   28  A    between atoms: C25_39  and  C26_40
DOCKED: REMARK   29  A    between atoms: C25_39  and  C27_41
DOCKED: REMARK   30  A    between atoms: N7_43  and  C28_44
DOCKED: REMARK   31  A    between atoms: C28_44  and  C29_45
DOCKED: REMARK   32  A    between atoms: C28_44  and  C32_50
DOCKED: REMARK   33  A    between atoms: C29_45  and  C30_46
DOCKED: REMARK   34  A    between atoms: C30_46  and  C31_47
DOCKED: REMARK   35  A    between atoms: C31_47  and  O11_49
DOCKED: REMARK   36  A    between atoms: N8_52  and  C33_53
DOCKED: REMARK   37  A    between atoms: C33_53  and  C34_54
DOCKED: REMARK   38  A    between atoms: C33_53  and  C41_61
DOCKED: REMARK   39  A    between atoms: C34_54  and  C35_55
DOCKED: REMARK   40  A    between atoms: C41_61  and  O14_63
DOCKED: REMARK                            x       y       z     vdW  Elec       q    Type
DOCKED: REMARK                         _______ _______ _______ _____ _____    ______ ____
DOCKED: USER                              x       y       z     vdW  Elec       q    Type
DOCKED: USER                           _______ _______ _______ _____ _____    ______ ____
DOCKED: ROOT
DOCKED: ATOM      1  C20 UNL     1      10.153  -5.752  -2.686 +0.00 +0.00    +0.135 C  
DOCKED: ENDROOT
DOCKED: BRANCH   1   2
DOCKED: ATOM      2  O7  UNL     1       9.504  -4.555  -2.268 +0.00 -0.00    -0.390 OA 
DOCKED: ATOM      3  H36 UNL     1       9.149  -4.099  -3.061 +0.00 +0.00    +0.210 HD 
DOCKED: ENDBRANCH   1   2
DOCKED: BRANCH   1   4
DOCKED: ATOM      4  C21 UNL     1       9.122  -6.887  -2.838 +0.00 +0.00    +0.045 C  
DOCKED: BRANCH   4   5
DOCKED: ATOM      5  C22 UNL     1       7.948  -6.650  -3.809 +0.00 +0.00    +0.074 C  
DOCKED: ATOM      6  C23 UNL     1       7.270  -7.979  -4.172 +0.00 +0.00    +0.017 C  
DOCKED: BRANCH   5   7
DOCKED: ATOM      7  C24 UNL     1       6.887  -5.736  -3.186 +0.00 +0.00    +0.217 C  
DOCKED: ATOM      8  O8  UNL     1       7.043  -4.531  -3.011 +0.00 -0.00    -0.276 OA 
DOCKED: ATOM      9  N6  UNL     1       5.738  -6.391  -2.785 +0.00 -0.00    -0.304 N  
DOCKED: ATOM     10  H43 UNL     1       5.813  -7.399  -2.667 +0.00 +0.00    +0.149 HD 
DOCKED: BRANCH   9  11
DOCKED: ATOM     11  C25 UNL     1       4.802  -5.681  -1.921 +0.00 +0.00    +0.156 C  
DOCKED: ATOM     12  C26 UNL     1       5.393  -5.477  -0.532 +0.00 +0.00    +0.038 C  
DOCKED: BRANCH  11  13
DOCKED: ATOM     13  C27 UNL     1       4.456  -4.314  -2.553 +0.00 +0.00    +0.234 C  
DOCKED: ATOM     14  O9  UNL     1       3.613  -4.182  -3.446 +0.00 -0.00    -0.274 OA 
DOCKED: ATOM     15  N7  UNL     1       5.194  -3.257  -2.068 +0.00 -0.00    -0.302 N  
DOCKED: ATOM     16  H48 UNL     1       6.042  -3.457  -1.546 +0.00 +0.00    +0.150 HD 
DOCKED: BRANCH  15  17
DOCKED: ATOM     17  C28 UNL     1       5.129  -1.937  -2.686 +0.00 +0.00    +0.159 C  
DOCKED: BRANCH  17  18
DOCKED: ATOM     18  C32 UNL     1       6.094  -1.947  -3.889 +0.00 +0.00    +0.234 C  
DOCKED: ATOM     19  O12 UNL     1       6.958  -1.090  -4.046 +0.00 -0.00    -0.274 OA 
DOCKED: ATOM     20  N8  UNL     1       5.814  -2.931  -4.814 +0.00 -0.00    -0.301 N  
DOCKED: ATOM     21  H55 UNL     1       5.463  -3.789  -4.403 +0.00 +0.00    +0.150 HD 
DOCKED: BRANCH  20  22
DOCKED: ATOM     22  C33 UNL     1       6.709  -3.129  -5.958 +0.00 +0.00    +0.186 C  
DOCKED: BRANCH  22  23
DOCKED: ATOM     23  C41 UNL     1       8.149  -2.786  -5.563 +0.00 +0.00    +0.326 C  
DOCKED: ATOM     24  O13 UNL     1       8.937  -2.077  -6.172 +0.00 -0.00    -0.249 OA 
DOCKED: BRANCH  23  25
DOCKED: ATOM     25  O14 UNL     1       8.544  -3.412  -4.432 +0.00 -0.00    -0.479 OA 
DOCKED: ATOM     26  H64 UNL     1       8.409  -2.730  -3.739 +0.00 +0.00    +0.295 HD 
DOCKED: ENDBRANCH  23  25
DOCKED: ENDBRANCH  22  23
DOCKED: BRANCH  22  27
DOCKED: ATOM     27  C34 UNL     1       6.345  -2.209  -7.136 +0.00 +0.00    +0.069 C  
DOCKED: BRANCH  27  28
DOCKED: ATOM     28  C35 UNL     1       5.989  -0.799  -6.727 +0.00 -0.00    -0.045 A  
DOCKED: ATOM     29  C36 UNL     1       4.680  -0.487  -6.330 +0.00 +0.00    +0.004 A  
DOCKED: ATOM     30  C37 UNL     1       4.339   0.821  -5.978 +0.00 +0.00    +0.000 A  
DOCKED: ATOM     31  C38 UNL     1       5.303   1.825  -6.013 +0.00 +0.00    +0.000 A  
DOCKED: ATOM     32  C39 UNL     1       6.609   1.525  -6.400 +0.00 +0.00    +0.000 A  
DOCKED: ATOM     33  C40 UNL     1       6.949   0.220  -6.759 +0.00 +0.00    +0.004 A  
DOCKED: ENDBRANCH  27  28
DOCKED: ENDBRANCH  22  27
DOCKED: ENDBRANCH  20  22
DOCKED: ENDBRANCH  17  18
DOCKED: BRANCH  17  34
DOCKED: ATOM     34  C29 UNL     1       5.550  -0.863  -1.672 +0.00 +0.00    +0.043 C  
DOCKED: BRANCH  34  35
DOCKED: ATOM     35  C30 UNL     1       6.497  -1.367  -0.580 +0.00 +0.00    +0.123 C  
DOCKED: BRANCH  35  36
DOCKED: ATOM     36  C31 UNL     1       7.907  -1.583  -1.057 +0.00 +0.00    +0.305 C  
DOCKED: ATOM     37  O10 UNL     1       8.890  -0.956  -0.689 +0.00 -0.00    -0.251 OA 
DOCKED: BRANCH  36  38
DOCKED: ATOM     38  O11 UNL     1       8.009  -2.522  -2.010 +0.00 -0.00    -0.481 OA 
DOCKED: ATOM     39  H54 UNL     1       8.901  -2.395  -2.395 +0.00 +0.00    +0.295 HD 
DOCKED: ENDBRANCH  36  38
DOCKED: ENDBRANCH  35  36
DOCKED: ENDBRANCH  34  35
DOCKED: ENDBRANCH  17  34
DOCKED: ENDBRANCH  15  17
DOCKED: ENDBRANCH  11  13
DOCKED: ENDBRANCH   9  11
DOCKED: ENDBRANCH   5   7
DOCKED: ENDBRANCH   4   5
DOCKED: ENDBRANCH   1   4
DOCKED: BRANCH   1  40
DOCKED: ATOM     40  C5  UNL     1      11.164  -5.552  -3.851 +0.00 +0.00    +0.102 C  
DOCKED: BRANCH  40  41
DOCKED: ATOM     41  N1  UNL     1      12.094  -4.421  -3.689 +0.00 -0.00    -0.308 N  
DOCKED: ATOM     42  C6  UNL     1      11.743  -3.089  -3.636 +0.00 +0.00    +0.234 C  
DOCKED: ATOM     43  O1  UNL     1      10.598  -2.690  -3.825 +0.00 -0.00    -0.274 OA 
DOCKED: ATOM     44  H11 UNL     1      13.059  -4.658  -3.474 +0.00 +0.00    +0.149 HD 
DOCKED: BRANCH  42  45
DOCKED: ATOM     45  C7  UNL     1      12.885  -2.147  -3.224 +0.00 +0.00    +0.168 C  
DOCKED: BRANCH  45  46
DOCKED: ATOM     46  N3  UNL     1      12.543  -0.777  -3.604 +0.00 -0.00    -0.302 N  
DOCKED: ATOM     47  C10 UNL     1      13.360  -0.062  -4.453 +0.00 +0.00    +0.234 C  
DOCKED: ATOM     48  O3  UNL     1      14.370  -0.541  -4.977 +0.00 -0.00    -0.274 OA 
DOCKED: ATOM     49  H17 UNL     1      11.567  -0.508  -3.563 +0.00 +0.00    +0.150 HD 
DOCKED: BRANCH  47  50
DOCKED: ATOM     50  C11 UNL     1      12.920   1.401  -4.698 +0.00 +0.00    +0.161 C  
DOCKED: BRANCH  50  51
DOCKED: ATOM     51  N4  UNL     1      11.497   1.479  -4.367 +0.00 -0.00    -0.302 N  
DOCKED: ATOM     52  C12 UNL     1      10.591   0.782  -5.147 +0.00 +0.00    +0.230 C  
DOCKED: ATOM     53  O4  UNL     1      10.841   0.420  -6.294 +0.00 -0.00    -0.274 OA 
DOCKED: ATOM     54  H19 UNL     1      11.299   1.506  -3.376 +0.00 +0.00    +0.150 HD 
DOCKED: BRANCH  52  55
DOCKED: ATOM     55  C13 UNL     1       9.225   0.499  -4.463 +0.00 +0.00    +0.138 C  
DOCKED: BRANCH  55  56
DOCKED: ATOM     56  N5  UNL     1       9.357  -0.657  -3.551 +0.00 -0.00    -0.320 NA 
DOCKED: ATOM     57  H21 UNL     1       8.665  -0.537  -2.806 +0.00 +0.00    +0.119 HD 
DOCKED: ATOM     58  H22 UNL     1       9.004  -1.482  -4.045 +0.00 +0.00    +0.119 HD 
DOCKED: ENDBRANCH  55  56
DOCKED: BRANCH  55  59
DOCKED: ATOM     59  C14 UNL     1       8.753   1.739  -3.695 +0.00 +0.00    +0.039 C  
DOCKED: BRANCH  59  60
DOCKED: ATOM     60  C15 UNL     1       8.810   1.592  -2.174 +0.00 +0.00    +0.122 C  
DOCKED: BRANCH  60  61
DOCKED: ATOM     61  C16 UNL     1      10.240   1.540  -1.714 +0.00 +0.00    +0.305 C  
DOCKED: ATOM     62  O5  UNL     1      10.924   2.506  -1.414 +0.00 -0.00    -0.251 OA 
DOCKED: BRANCH  61  63
DOCKED: ATOM     63  O6  UNL     1      10.738   0.290  -1.711 +0.00 -0.00    -0.481 OA 
DOCKED: ATOM     64  H27 UNL     1       9.961  -0.309  -1.854 +0.00 +0.00    +0.295 HD 
DOCKED: ENDBRANCH  61  63
DOCKED: ENDBRANCH  60  61
DOCKED: ENDBRANCH  59  60
DOCKED: ENDBRANCH  55  59
DOCKED: ENDBRANCH  52  55
DOCKED: ENDBRANCH  50  51
DOCKED: BRANCH  50  65
DOCKED: ATOM     65  C17 UNL     1      13.788   2.397  -3.902 +0.00 +0.00    +0.012 C  
DOCKED: ATOM     66  C18 UNL     1      13.046   3.724  -3.710 +0.00 +0.00    +0.009 C  
DOCKED: ATOM     67  C19 UNL     1      14.245   1.861  -2.542 +0.00 +0.00    +0.009 C  
DOCKED: ENDBRANCH  50  65
DOCKED: ENDBRANCH  47  50
DOCKED: ENDBRANCH  45  46
DOCKED: BRANCH  45  68
DOCKED: ATOM     68  C8  UNL     1      13.073  -2.282  -1.708 +0.00 +0.00    +0.127 C  
DOCKED: BRANCH  68  69
DOCKED: ATOM     69  C9  UNL     1      11.916  -2.992  -1.046 +0.00 +0.00    +0.213 C  
DOCKED: ATOM     70  N2  UNL     1      10.694  -2.453  -1.327 +0.00 -0.00    -0.329 N  
DOCKED: ATOM     71  O2  UNL     1      12.016  -3.972  -0.318 +0.00 -0.00    -0.276 OA 
DOCKED: ATOM     72  H15 UNL     1       9.882  -2.875  -0.895 +0.00 +0.00    +0.145 HD 
DOCKED: ATOM     73  H16 UNL     1      10.558  -1.649  -1.926 +0.00 +0.00    +0.145 HD 
DOCKED: ENDBRANCH  68  69
DOCKED: ENDBRANCH  45  68
DOCKED: ENDBRANCH  42  45
DOCKED: ENDBRANCH  40  41
DOCKED: BRANCH  40  74
DOCKED: ATOM     74  C4  UNL     1      11.988  -6.817  -4.201 +0.00 +0.00    +0.028 C  
DOCKED: BRANCH  74  76
DOCKED: ATOM     75  C1  UNL     1      10.572  -6.978  -6.342 +0.00 +0.00    +0.007 C  
DOCKED: ATOM     76  C2  UNL     1      11.816  -7.463  -5.596 +0.00 -0.00    -0.015 C  
DOCKED: ATOM     77  C3  UNL     1      13.057  -7.366  -6.480 +0.00 +0.00    +0.007 C  
DOCKED: ENDBRANCH  74  76
DOCKED: ENDBRANCH  40  74
DOCKED: ENDBRANCH   1  40
DOCKED: TORSDOF 34
DOCKED: TER
DOCKED: ENDMDL
________________________________________________________________________________


    FINAL DOCKED STATE:
    ________________________


Run:   3 / 20
Time taken for this run:   5.922s

DOCKED: MODEL        3
DOCKED: USER    Run = 3
DOCKED: USER
DOCKED: USER    Estimated Free Energy of Binding    = +10.14 kcal/mol  [=(1)+(2)+(3)-(4)]
DOCKED: USER
DOCKED: USER    (1) Final Intermolecular Energy     =  +0.00 kcal/mol
DOCKED: USER        vdW + Hbond + desolv Energy     =  +0.00 kcal/mol
DOCKED: USER        Electrostatic Energy            =  +0.00 kcal/mol
DOCKED: USER        Moving Ligand-Fixed Receptor    =  +0.00 kcal/mol
DOCKED: USER        Moving Ligand-Moving Receptor   =  +0.00 kcal/mol
DOCKED: USER    (2) Final Total Internal Energy     = -29.40 kcal/mol
DOCKED: USER    (3) Torsional Free Energy           = +10.14 kcal/mol
DOCKED: USER    (4) Unbound System's Energy         = -29.40 kcal/mol
DOCKED: USER
DOCKED: USER
DOCKED: REMARK  Name = ligands/ligand_0.pdb
DOCKED: REMARK  40 active torsions:
DOCKED: REMARK  status: ('A' for Active; 'I' for Inactive)
DOCKED: REMARK    1  A    between atoms: C1_1  and  C2_2
DOCKED: REMARK    2  A    between atoms: C2_2  and  C3_3
DOCKED: REMARK    3  A    between atoms: C2_2  and  C4_4
DOCKED: REMARK    4  A    between atoms: C4_4  and  C5_5
DOCKED: REMARK    5  A    between atoms: C5_5  and  N1_6
DOCKED: REMARK    6  A    between atoms: C5_5  and  C20_31
DOCKED: REMARK    7  A    between atoms: C6_7  and  C7_9
DOCKED: REMARK    8  A    between atoms: C7_9  and  C8_10
DOCKED: REMARK    9  A    between atoms: C7_9  and  N3_14
DOCKED: REMARK   10  A    between atoms: C8_10  and  C9_11
DOCKED: REMARK   11  A    between atoms: C10_15  and  C11_17
DOCKED: REMARK   12  A    between atoms: C11_17  and  N4_18
DOCKED: REMARK   13  A    between atoms: C11_17  and  C17_28
DOCKED: REMARK   14  A    between atoms: C12_19  and  C13_21
DOCKED: REMARK   15  A    between atoms: C13_21  and  N5_22
DOCKED: REMARK   16  A    between atoms: C13_21  and  C14_23
DOCKED: REMARK   17  A    between atoms: C14_23  and  C15_24
DOCKED: REMARK   18  A    between atoms: C15_24  and  C16_25
DOCKED: REMARK   19  A    between atoms: C16_25  and  O6_27
DOCKED: REMARK   20  A    between atoms: C17_28  and  C18_29
DOCKED: REMARK   21  A    between atoms: C17_28  and  C19_30
DOCKED: REMARK   22  A    between atoms: C20_31  and  O7_32
DOCKED: REMARK   23  A    between atoms: C20_31  and  C21_33
DOCKED: REMARK   24  A    between atoms: C21_33  and  C22_34
DOCKED: REMARK   25  A    between atoms: C22_34  and  C23_35
DOCKED: REMARK   26  A    between atoms: C22_34  and  C24_36
DOCKED: REMARK   27  A    between atoms: N6_38  and  C25_39
DOCKED: REMARK   28  A    between atoms: C25_39  and  C26_40
DOCKED: REMARK   29  A    between atoms: C25_39  and  C27_41
DOCKED: REMARK   30  A    between atoms: N7_43  and  C28_44
DOCKED: REMARK   31  A    between atoms: C28_44  and  C29_45
DOCKED: REMARK   32  A    between atoms: C28_44  and  C32_50
DOCKED: REMARK   33  A    between atoms: C29_45  and  C30_46
DOCKED: REMARK   34  A    between atoms: C30_46  and  C31_47
DOCKED: REMARK   35  A    between atoms: C31_47  and  O11_49
DOCKED: REMARK   36  A    between atoms: N8_52  and  C33_53
DOCKED: REMARK   37  A    between atoms: C33_53  and  C34_54
DOCKED: REMARK   38  A    between atoms: C33_53  and  C41_61
DOCKED: REMARK   39  A    between atoms: C34_54  and  C35_55
DOCKED: REMARK   40  A    between atoms: C41_61  and  O14_63
DOCKED: REMARK                            x       y       z     vdW  Elec       q    Type
DOCKED: REMARK                         _______ _______ _______ _____ _____    ______ ____
DOCKED: USER                              x       y       z     vdW  Elec       q    Type
DOCKED: USER                           _______ _______ _______ _____ _____    ______ ____
DOCKED: ROOT
DOCKED: ATOM      1  C20 UNL     1      12.317  -2.307   0.421 +0.00 +0.00    +0.135 C  
DOCKED: ENDROOT
DOCKED: BRANCH   1   2
DOCKED: ATOM      2  O7  UNL     1      12.210  -0.909   0.676 +0.00 -0.00    -0.390 OA 
DOCKED: ATOM      3  H36 UNL     1      12.866  -0.439   0.117 +0.00 +0.00    +0.210 HD 
DOCKED: ENDBRANCH   1   2
DOCKED: BRANCH   1   4
DOCKED: ATOM      4  C21 UNL     1      10.922  -2.903   0.153 +0.00 +0.00    +0.045 C  
DOCKED: BRANCH   4   5
DOCKED: ATOM      5  C22 UNL     1       9.867  -1.975  -0.482 +0.00 +0.00    +0.074 C  
DOCKED: ATOM      6  C23 UNL     1       8.638  -2.780  -0.927 +0.00 +0.00    +0.017 C  
DOCKED: BRANCH   5   7
DOCKED: ATOM      7  C24 UNL     1       9.395  -0.909   0.513 +0.00 +0.00    +0.217 C  
DOCKED: ATOM      8  O8  UNL     1       9.811   0.246   0.525 +0.00 -0.00    -0.276 OA 
DOCKED: ATOM      9  N6  UNL     1       8.482  -1.366   1.445 +0.00 -0.00    -0.304 N  
DOCKED: ATOM     10  H43 UNL     1       8.436  -2.375   1.573 +0.00 +0.00    +0.149 HD 
DOCKED: BRANCH   9  11
DOCKED: ATOM     11  C25 UNL     1       8.199  -0.529   2.606 +0.00 +0.00    +0.156 C  
DOCKED: ATOM     12  C26 UNL     1       6.808  -0.816   3.157 +0.00 +0.00    +0.038 C  
DOCKED: BRANCH  11  13
DOCKED: ATOM     13  C27 UNL     1       9.263  -0.788   3.697 +0.00 +0.00    +0.234 C  
DOCKED: ATOM     14  O9  UNL     1       8.990  -0.839   4.900 +0.00 -0.00    -0.274 OA 
DOCKED: ATOM     15  N7  UNL     1      10.548  -0.918   3.220 +0.00 -0.00    -0.302 N  
DOCKED: ATOM     16  H48 UNL     1      10.750  -0.603   2.276 +0.00 +0.00    +0.150 HD 
DOCKED: BRANCH  15  17
DOCKED: ATOM     17  C28 UNL     1      11.692  -0.977   4.126 +0.00 +0.00    +0.159 C  
DOCKED: BRANCH  17  18
DOCKED: ATOM     18  C32 UNL     1      12.338   0.423   4.136 +0.00 +0.00    +0.234 C  
DOCKED: ATOM     19  O12 UNL     1      12.916   0.872   5.122 +0.00 -0.00    -0.274 OA 
DOCKED: ATOM     20  N8  UNL     1      12.103   1.149   2.988 +0.00 -0.00    -0.301 N  
DOCKED: ATOM     21  H55 UNL     1      12.067   0.584   2.148 +0.00 +0.00    +0.150 HD 
DOCKED: BRANCH  20  22
DOCKED: ATOM     22  C33 UNL     1      12.741   2.458   2.812 +0.00 +0.00    +0.186 C  
DOCKED: BRANCH  22  23
DOCKED: ATOM     23  C41 UNL     1      12.734   2.849   1.330 +0.00 +0.00    +0.326 C  
DOCKED: ATOM     24  O13 UNL     1      13.150   3.887   0.834 +0.00 -0.00    -0.249 OA 
DOCKED: BRANCH  23  25
DOCKED: ATOM     25  O14 UNL     1      12.140   1.921   0.548 +0.00 -0.00    -0.479 OA 
DOCKED: ATOM     26  H64 UNL     1      12.747   1.153   0.609 +0.00 +0.00    +0.295 HD 
DOCKED: ENDBRANCH  23  25
DOCKED: ENDBRANCH  22  23
DOCKED: BRANCH  22  27
DOCKED: ATOM     27  C34 UNL     1      14.215   2.441   3.255 +0.00 +0.00    +0.069 C  
DOCKED: BRANCH  27  28
DOCKED: ATOM     28  C35 UNL     1      14.954   3.728   2.977 +0.00 -0.00    -0.045 A  
DOCKED: ATOM     29  C36 UNL     1      14.480   4.943   3.496 +0.00 +0.00    +0.004 A  
DOCKED: ATOM     30  C37 UNL     1      15.144   6.139   3.219 +0.00 +0.00    +0.000 A  
DOCKED: ATOM     31  C38 UNL     1      16.289   6.133   2.426 +0.00 +0.00    +0.000 A  
DOCKED: ATOM     32  C39 UNL     1      16.773   4.931   1.910 +0.00 +0.00    +0.000 A  
DOCKED: ATOM     33  C40 UNL     1      16.106   3.735   2.180 +0.00 +0.00    +0.004 A  
DOCKED: ENDBRANCH  27  28
DOCKED: ENDBRANCH  22  27
DOCKED: ENDBRANCH  20  22
DOCKED: ENDBRANCH  17  18
DOCKED: BRANCH  17  34
DOCKED: ATOM     34  C29 UNL     1      12.697  -2.026   3.630 +0.00 +0.00    +0.043 C  
DOCKED: BRANCH  34  35
DOCKED: ATOM     35  C30 UNL     1      14.159  -1.581   3.705 +0.00 +0.00    +0.123 C  
DOCKED: BRANCH  35  36
DOCKED: ATOM     36  C31 UNL     1      14.724  -1.141   2.383 +0.00 +0.00    +0.305 C  
DOCKED: ATOM     37  O10 UNL     1      15.690  -1.633   1.817 +0.00 -0.00    -0.251 OA 
DOCKED: BRANCH  36  38
DOCKED: ATOM     38  O11 UNL     1      14.097  -0.074   1.864 +0.00 -0.00    -0.481 OA 
DOCKED: ATOM     39  H54 UNL     1      14.217  -0.156   0.895 +0.00 +0.00    +0.295 HD 
DOCKED: ENDBRANCH  36  38
DOCKED: ENDBRANCH  35  36
DOCKED: ENDBRANCH  34  35
DOCKED: ENDBRANCH  17  34
DOCKED: ENDBRANCH  15  17
DOCKED: ENDBRANCH  11  13
DOCKED: ENDBRANCH   9  11
DOCKED: ENDBRANCH   5   7
DOCKED: ENDBRANCH   4   5
DOCKED: ENDBRANCH   1   4
DOCKED: BRANCH   1  40
DOCKED: ATOM     40  C5  UNL     1      13.453  -2.685  -0.570 +0.00 +0.00    +0.102 C  
DOCKED: BRANCH  40  41
DOCKED: ATOM     41  N1  UNL     1      14.263  -1.556  -1.060 +0.00 -0.00    -0.308 N  
DOCKED: ATOM     42  C6  UNL     1      15.375  -1.652  -1.868 +0.00 +0.00    +0.234 C  
DOCKED: ATOM     43  O1  UNL     1      15.879  -2.724  -2.190 +0.00 -0.00    -0.274 OA 
DOCKED: ATOM     44  H11 UNL     1      13.892  -0.626  -0.885 +0.00 +0.00    +0.149 HD 
DOCKED: BRANCH  42  45
DOCKED: ATOM     45  C7  UNL     1      15.879  -0.307  -2.417 +0.00 +0.00    +0.168 C  
DOCKED: BRANCH  45  46
DOCKED: ATOM     46  N3  UNL     1      14.804   0.343  -3.165 +0.00 -0.00    -0.302 N  
DOCKED: ATOM     47  C10 UNL     1      14.758   0.259  -4.540 +0.00 +0.00    +0.234 C  
DOCKED: ATOM     48  O3  UNL     1      15.564  -0.404  -5.200 +0.00 -0.00    -0.274 OA 
DOCKED: ATOM     49  H17 UNL     1      13.931   0.512  -2.681 +0.00 +0.00    +0.150 HD 
DOCKED: BRANCH  47  50
DOCKED: ATOM     50  C11 UNL     1      13.616   1.066  -5.202 +0.00 +0.00    +0.161 C  
DOCKED: BRANCH  50  51
DOCKED: ATOM     51  N4  UNL     1      12.601   1.289  -4.174 +0.00 -0.00    -0.302 N  
DOCKED: ATOM     52  C12 UNL     1      11.749   0.250  -3.841 +0.00 +0.00    +0.230 C  
DOCKED: ATOM     53  O4  UNL     1      11.536  -0.702  -4.589 +0.00 -0.00    -0.274 OA 
DOCKED: ATOM     54  H19 UNL     1      12.901   1.878  -3.409 +0.00 +0.00    +0.150 HD 
DOCKED: BRANCH  52  55
DOCKED: ATOM     55  C13 UNL     1      11.074   0.382  -2.448 +0.00 +0.00    +0.138 C  
DOCKED: BRANCH  55  56
DOCKED: ATOM     56  N5  UNL     1      12.112   0.509  -1.403 +0.00 -0.00    -0.320 NA 
DOCKED: ATOM     57  H21 UNL     1      12.596   1.398  -1.563 +0.00 +0.00    +0.119 HD 
DOCKED: ATOM     58  H22 UNL     1      11.634   0.679  -0.512 +0.00 +0.00    +0.119 HD 
DOCKED: ENDBRANCH  55  56
DOCKED: BRANCH  55  59
DOCKED: ATOM     59  C14 UNL     1      10.140   1.597  -2.429 +0.00 +0.00    +0.039 C  
DOCKED: BRANCH  59  60
DOCKED: ATOM     60  C15 UNL     1      10.683   2.792  -1.644 +0.00 +0.00    +0.122 C  
DOCKED: BRANCH  60  61
DOCKED: ATOM     61  C16 UNL     1      11.916   3.331  -2.312 +0.00 +0.00    +0.305 C  
DOCKED: ATOM     62  O5  UNL     1      11.948   3.885  -3.401 +0.00 -0.00    -0.251 OA 
DOCKED: BRANCH  61  63
DOCKED: ATOM     63  O6  UNL     1      13.036   3.094  -1.604 +0.00 -0.00    -0.481 OA 
DOCKED: ATOM     64  H27 UNL     1      12.750   2.552  -0.825 +0.00 +0.00    +0.295 HD 
DOCKED: ENDBRANCH  61  63
DOCKED: ENDBRANCH  60  61
DOCKED: ENDBRANCH  59  60
DOCKED: ENDBRANCH  55  59
DOCKED: ENDBRANCH  52  55
DOCKED: ENDBRANCH  50  51
DOCKED: BRANCH  50  65
DOCKED: ATOM     65  C17 UNL     1      14.139   2.371  -5.838 +0.00 +0.00    +0.012 C  
DOCKED: ATOM     66  C18 UNL     1      12.985   3.168  -6.456 +0.00 +0.00    +0.009 C  
DOCKED: ATOM     67  C19 UNL     1      14.915   3.261  -4.862 +0.00 +0.00    +0.009 C  
DOCKED: ENDBRANCH  50  65
DOCKED: ENDBRANCH  47  50
DOCKED: ENDBRANCH  45  46
DOCKED: BRANCH  45  68
DOCKED: ATOM     68  C8  UNL     1      16.328   0.542  -1.221 +0.00 +0.00    +0.127 C  
DOCKED: BRANCH  68  69
DOCKED: ATOM     69  C9  UNL     1      15.219   1.414  -0.686 +0.00 +0.00    +0.213 C  
DOCKED: ATOM     70  N2  UNL     1      15.500   2.750  -0.702 +0.00 -0.00    -0.329 N  
DOCKED: ATOM     71  O2  UNL     1      14.142   1.006  -0.269 +0.00 -0.00    -0.276 OA 
DOCKED: ATOM     72  H15 UNL     1      14.800   3.383  -0.335 +0.00 +0.00    +0.145 HD 
DOCKED: ATOM     73  H16 UNL     1      16.371   3.137  -1.040 +0.00 +0.00    +0.145 HD 
DOCKED: ENDBRANCH  68  69
DOCKED: ENDBRANCH  45  68
DOCKED: ENDBRANCH  42  45
DOCKED: ENDBRANCH  40  41
DOCKED: BRANCH  40  74
DOCKED: ATOM     74  C4  UNL     1      14.412  -3.786  -0.048 +0.00 +0.00    +0.028 C  
DOCKED: BRANCH  74  76
DOCKED: ATOM     75  C1  UNL     1      13.136  -5.553   1.318 +0.00 +0.00    +0.007 C  
DOCKED: ATOM     76  C2  UNL     1      14.152  -4.410   1.343 +0.00 -0.00    -0.015 C  
DOCKED: ATOM     77  C3  UNL     1      15.422  -4.824   2.082 +0.00 +0.00    +0.007 C  
DOCKED: ENDBRANCH  74  76
DOCKED: ENDBRANCH  40  74
DOCKED: ENDBRANCH   1  40
DOCKED: TORSDOF 34
DOCKED: TER
DOCKED: ENDMDL
________________________________________________________________________________


    FINAL DOCKED STATE:
    ________________________


Run:   4 / 20
Time taken for this run:   5.922s

DOCKED: MODEL        4
DOCKED: USER    Run = 4
DOCKED: USER
DOCKED: USER    Estimated Free Energy of Binding    = +10.14 kcal/mol  [=(1)+(2)+(3)-(4)]
DOCKED: USER
DOCKED: USER    (1) Final Intermolecular Energy     =  +0.00 kcal/mol
DOCKED: USER        vdW + Hbond + desolv Energy     =  +0.00 kcal/mol
DOCKED: USER        Electrostatic Energy            =  +0.00 kcal/mol
DOCKED: USER        Moving Ligand-Fixed Receptor    =  +0.00 kcal/mol
DOCKED: USER        Moving Ligand-Moving Receptor   =  +0.00 kcal/mol
DOCKED: USER    (2) Final Total Internal Energy     = -32.09 kcal/mol
DOCKED: USER    (3) Torsional Free Energy           = +10.14 kcal/mol
DOCKED: USER    (4) Unbound System's Energy         = -32.09 kcal/mol
DOCKED: USER
DOCKED: USER
DOCKED: REMARK  Name = ligands/ligand_0.pdb
DOCKED: REMARK  40 active torsions:
DOCKED: REMARK  status: ('A' for Active; 'I' for Inactive)
DOCKED: REMARK    1  A    between atoms: C1_1  and  C2_2
DOCKED: REMARK    2  A    between atoms: C2_2  and  C3_3
DOCKED: REMARK    3  A    between atoms: C2_2  and  C4_4
DOCKED: REMARK    4  A    between atoms: C4_4  and  C5_5
DOCKED: REMARK    5  A    between atoms: C5_5  and  N1_6
DOCKED: REMARK    6  A    between atoms: C5_5  and  C20_31
DOCKED: REMARK    7  A    between atoms: C6_7  and  C7_9
DOCKED: REMARK    8  A    between atoms: C7_9  and  C8_10
DOCKED: REMARK    9  A    between atoms: C7_9  and  N3_14
DOCKED: REMARK   10  A    between atoms: C8_10  and  C9_11
DOCKED: REMARK   11  A    between atoms: C10_15  and  C11_17
DOCKED: REMARK   12  A    between atoms: C11_17  and  N4_18
DOCKED: REMARK   13  A    between atoms: C11_17  and  C17_28
DOCKED: REMARK   14  A    between atoms: C12_19  and  C13_21
DOCKED: REMARK   15  A    between atoms: C13_21  and  N5_22
DOCKED: REMARK   16  A    between atoms: C13_21  and  C14_23
DOCKED: REMARK   17  A    between atoms: C14_23  and  C15_24
DOCKED: REMARK   18  A    between atoms: C15_24  and  C16_25
DOCKED: REMARK   19  A    between atoms: C16_25  and  O6_27
DOCKED: REMARK   20  A    between atoms: C17_28  and  C18_29
DOCKED: REMARK   21  A    between atoms: C17_28  and  C19_30
DOCKED: REMARK   22  A    between atoms: C20_31  and  O7_32
DOCKED: REMARK   23  A    between atoms: C20_31  and  C21_33
DOCKED: REMARK   24  A    between atoms: C21_33  and  C22_34
DOCKED: REMARK   25  A    between atoms: C22_34  and  C23_35
DOCKED: REMARK   26  A    between atoms: C22_34  and  C24_36
DOCKED: REMARK   27  A    between atoms: N6_38  and  C25_39
DOCKED: REMARK   28  A    between atoms: C25_39  and  C26_40
DOCKED: REMARK   29  A    between atoms: C25_39  and  C27_41
DOCKED: REMARK   30  A    between atoms: N7_43  and  C28_44
DOCKED: REMARK   31  A    between atoms: C28_44  and  C29_45
DOCKED: REMARK   32  A    between atoms: C28_44  and  C32_50
DOCKED: REMARK   33  A    between atoms: C29_45  and  C30_46
DOCKED: REMARK   34  A    between atoms: C30_46  and  C31_47
DOCKED: REMARK   35  A    between atoms: C31_47  and  O11_49
DOCKED: REMARK   36  A    between atoms: N8_52  and  C33_53
DOCKED: REMARK   37  A    between atoms: C33_53  and  C34_54
DOCKED: REMARK   38  A    between atoms: C33_53  and  C41_61
DOCKED: REMARK   39  A    between atoms: C34_54  and  C35_55
DOCKED: REMARK   40  A    between atoms: C41_61  and  O14_63
DOCKED: REMARK                            x       y       z     vdW  Elec       q    Type
DOCKED: REMARK                         _______ _______ _______ _____ _____    ______ ____
DOCKED: USER                              x       y       z     vdW  Elec       q    Type
DOCKED: USER                           _______ _______ _______ _____ _____    ______ ____
DOCKED: ROOT
DOCKED: ATOM      1  C20 UNL     1      11.251  -5.591   0.184 +0.00 +0.00    +0.135 C  
DOCKED: ENDROOT
DOCKED: BRANCH   1   2
DOCKED: ATOM      2  O7  UNL     1      10.550  -4.353   0.260 +0.00 -0.00    -0.390 OA 
DOCKED: ATOM      3  H36 UNL     1      10.917  -3.745  -0.416 +0.00 +0.00    +0.210 HD 
DOCKED: ENDBRANCH   1   2
DOCKED: BRANCH   1   4
DOCKED: ATOM      4  C21 UNL     1      10.252  -6.765   0.164 +0.00 +0.00    +0.045 C  
DOCKED: BRANCH   4   5
DOCKED: ATOM      5  C22 UNL     1      10.162  -7.637   1.432 +0.00 +0.00    +0.074 C  
DOCKED: ATOM      6  C23 UNL     1      11.564  -8.030   1.917 +0.00 +0.00    +0.017 C  
DOCKED: BRANCH   5   7
DOCKED: ATOM      7  C24 UNL     1       9.463  -6.888   2.572 +0.00 +0.00    +0.217 C  
DOCKED: ATOM      8  O8  UNL     1       8.520  -7.345   3.211 +0.00 -0.00    -0.276 OA 
DOCKED: ATOM      9  N6  UNL     1       9.953  -5.616   2.801 +0.00 -0.00    -0.304 N  
DOCKED: ATOM     10  H43 UNL     1      10.493  -5.199   2.045 +0.00 +0.00    +0.149 HD 
DOCKED: BRANCH   9  11
DOCKED: ATOM     11  C25 UNL     1       9.176  -4.716   3.647 +0.00 +0.00    +0.156 C  
DOCKED: ATOM     12  C26 UNL     1       9.922  -3.409   3.879 +0.00 +0.00    +0.038 C  
DOCKED: BRANCH  11  13
DOCKED: ATOM     13  C27 UNL     1       7.812  -4.434   2.977 +0.00 +0.00    +0.234 C  
DOCKED: ATOM     14  O9  UNL     1       6.734  -4.722   3.506 +0.00 -0.00    -0.274 OA 
DOCKED: ATOM     15  N7  UNL     1       7.897  -3.870   1.724 +0.00 -0.00    -0.302 N  
DOCKED: ATOM     16  H48 UNL     1       8.787  -3.905   1.235 +0.00 +0.00    +0.150 HD 
DOCKED: BRANCH  15  17
DOCKED: ATOM     17  C28 UNL     1       6.717  -3.714   0.879 +0.00 +0.00    +0.159 C  
DOCKED: BRANCH  17  18
DOCKED: ATOM     18  C32 UNL     1       6.894  -4.654  -0.330 +0.00 +0.00    +0.234 C  
DOCKED: ATOM     19  O12 UNL     1       5.998  -5.395  -0.723 +0.00 -0.00    -0.274 OA 
DOCKED: ATOM     20  N8  UNL     1       8.175  -4.664  -0.841 +0.00 -0.00    -0.301 N  
DOCKED: ATOM     21  H55 UNL     1       8.641  -3.765  -0.791 +0.00 +0.00    +0.150 HD 
DOCKED: BRANCH  20  22
DOCKED: ATOM     22  C33 UNL     1       8.468  -5.431  -2.056 +0.00 +0.00    +0.186 C  
DOCKED: BRANCH  22  23
DOCKED: ATOM     23  C41 UNL     1       9.814  -4.992  -2.641 +0.00 +0.00    +0.326 C  
DOCKED: ATOM     24  O13 UNL     1      10.628  -5.686  -3.234 +0.00 -0.00    -0.249 OA 
DOCKED: BRANCH  23  25
DOCKED: ATOM     25  O14 UNL     1      10.093  -3.692  -2.393 +0.00 -0.00    -0.479 OA 
DOCKED: ATOM     26  H64 UNL     1       9.715  -3.547  -1.500 +0.00 +0.00    +0.295 HD 
DOCKED: ENDBRANCH  23  25
DOCKED: ENDBRANCH  22  23
DOCKED: BRANCH  22  27
DOCKED: ATOM     27  C34 UNL     1       7.414  -5.195  -3.151 +0.00 +0.00    +0.069 C  
DOCKED: BRANCH  27  28
DOCKED: ATOM     28  C35 UNL     1       7.740  -5.857  -4.470 +0.00 -0.00    -0.045 A  
DOCKED: ATOM     29  C36 UNL     1       8.304  -7.141  -4.497 +0.00 +0.00    +0.004 A  
DOCKED: ATOM     30  C37 UNL     1       8.633  -7.745  -5.711 +0.00 +0.00    +0.000 A  
DOCKED: ATOM     31  C38 UNL     1       8.397  -7.074  -6.909 +0.00 +0.00    +0.000 A  
DOCKED: ATOM     32  C39 UNL     1       7.831  -5.800  -6.894 +0.00 +0.00    +0.000 A  
DOCKED: ATOM     33  C40 UNL     1       7.508  -5.192  -5.680 +0.00 +0.00    +0.004 A  
DOCKED: ENDBRANCH  27  28
DOCKED: ENDBRANCH  22  27
DOCKED: ENDBRANCH  20  22
DOCKED: ENDBRANCH  17  18
DOCKED: BRANCH  17  34
DOCKED: ATOM     34  C29 UNL     1       6.599  -2.257   0.410 +0.00 +0.00    +0.043 C  
DOCKED: BRANCH  34  35
DOCKED: ATOM     35  C30 UNL     1       7.597  -1.301   1.069 +0.00 +0.00    +0.123 C  
DOCKED: BRANCH  35  36
DOCKED: ATOM     36  C31 UNL     1       8.899  -1.183   0.326 +0.00 +0.00    +0.305 C  
DOCKED: ATOM     37  O10 UNL     1       9.516  -0.147   0.124 +0.00 -0.00    -0.251 OA 
DOCKED: BRANCH  36  38
DOCKED: ATOM     38  O11 UNL     1       9.332  -2.349  -0.179 +0.00 -0.00    -0.481 OA 
DOCKED: ATOM     39  H54 UNL     1       9.780  -2.111  -1.018 +0.00 +0.00    +0.295 HD 
DOCKED: ENDBRANCH  36  38
DOCKED: ENDBRANCH  35  36
DOCKED: ENDBRANCH  34  35
DOCKED: ENDBRANCH  17  34
DOCKED: ENDBRANCH  15  17
DOCKED: ENDBRANCH  11  13
DOCKED: ENDBRANCH   9  11
DOCKED: ENDBRANCH   5   7
DOCKED: ENDBRANCH   4   5
DOCKED: ENDBRANCH   1   4
DOCKED: BRANCH   1  40
DOCKED: ATOM     40  C5  UNL     1      12.390  -5.611  -0.875 +0.00 +0.00    +0.102 C  
DOCKED: BRANCH  40  41
DOCKED: ATOM     41  N1  UNL     1      12.595  -4.345  -1.601 +0.00 -0.00    -0.308 N  
DOCKED: ATOM     42  C6  UNL     1      13.459  -4.152  -2.656 +0.00 +0.00    +0.234 C  
DOCKED: ATOM     43  O1  UNL     1      14.243  -5.013  -3.048 +0.00 -0.00    -0.274 OA 
DOCKED: ATOM     44  H11 UNL     1      11.952  -3.589  -1.380 +0.00 +0.00    +0.149 HD 
DOCKED: BRANCH  42  45
DOCKED: ATOM     45  C7  UNL     1      13.295  -2.802  -3.373 +0.00 +0.00    +0.168 C  
DOCKED: BRANCH  45  46
DOCKED: ATOM     46  N3  UNL     1      11.957  -2.723  -3.957 +0.00 -0.00    -0.302 N  
DOCKED: ATOM     47  C10 UNL     1      11.618  -3.509  -5.037 +0.00 +0.00    +0.234 C  
DOCKED: ATOM     48  O3  UNL     1      12.382  -4.348  -5.525 +0.00 -0.00    -0.274 OA 
DOCKED: ATOM     49  H17 UNL     1      11.203  -2.402  -3.362 +0.00 +0.00    +0.150 HD 
DOCKED: BRANCH  47  50
DOCKED: ATOM     50  C11 UNL     1      10.200  -3.258  -5.603 +0.00 +0.00    +0.161 C  
DOCKED: BRANCH  50  51
DOCKED: ATOM     51  N4  UNL     1       9.469  -2.491  -4.595 +0.00 -0.00    -0.302 N  
DOCKED: ATOM     52  C12 UNL     1       8.135  -2.200  -4.816 +0.00 +0.00    +0.230 C  
DOCKED: ATOM     53  O4  UNL     1       7.628  -2.205  -5.936 +0.00 -0.00    -0.274 OA 
DOCKED: ATOM     54  H19 UNL     1       9.723  -2.706  -3.640 +0.00 +0.00    +0.150 HD 
DOCKED: BRANCH  52  55
DOCKED: ATOM     55  C13 UNL     1       7.322  -1.854  -3.538 +0.00 +0.00    +0.138 C  
DOCKED: BRANCH  55  56
DOCKED: ATOM     56  N5  UNL     1       8.039  -2.354  -2.345 +0.00 -0.00    -0.320 NA 
DOCKED: ATOM     57  H21 UNL     1       9.006  -2.541  -2.628 +0.00 +0.00    +0.119 HD 
DOCKED: ATOM     58  H22 UNL     1       8.150  -1.566  -1.699 +0.00 +0.00    +0.119 HD 
DOCKED: ENDBRANCH  55  56
DOCKED: BRANCH  55  59
DOCKED: ATOM     59  C14 UNL     1       7.110  -0.339  -3.442 +0.00 +0.00    +0.039 C  
DOCKED: BRANCH  59  60
DOCKED: ATOM     60  C15 UNL     1       8.293   0.492  -3.940 +0.00 +0.00    +0.122 C  
DOCKED: BRANCH  60  61
DOCKED: ATOM     61  C16 UNL     1       9.400   0.474  -2.923 +0.00 +0.00    +0.305 C  
DOCKED: ATOM     62  O5  UNL     1       9.851   1.454  -2.349 +0.00 -0.00    -0.251 OA 
DOCKED: BRANCH  61  63
DOCKED: ATOM     63  O6  UNL     1       9.908  -0.757  -2.731 +0.00 -0.00    -0.481 OA 
DOCKED: ATOM     64  H27 UNL     1       9.660  -1.007  -1.804 +0.00 +0.00    +0.295 HD 
DOCKED: ENDBRANCH  61  63
DOCKED: ENDBRANCH  60  61
DOCKED: ENDBRANCH  59  60
DOCKED: ENDBRANCH  55  59
DOCKED: ENDBRANCH  52  55
DOCKED: ENDBRANCH  50  51
DOCKED: BRANCH  50  65
DOCKED: ATOM     65  C17 UNL     1      10.253  -2.564  -6.980 +0.00 +0.00    +0.012 C  
DOCKED: ATOM     66  C18 UNL     1      11.112  -1.297  -6.911 +0.00 +0.00    +0.009 C  
DOCKED: ATOM     67  C19 UNL     1      10.763  -3.470  -8.105 +0.00 +0.00    +0.009 C  
DOCKED: ENDBRANCH  50  65
DOCKED: ENDBRANCH  47  50
DOCKED: ENDBRANCH  45  46
DOCKED: BRANCH  45  68
DOCKED: ATOM     68  C8  UNL     1      13.524  -1.696  -2.335 +0.00 +0.00    +0.127 C  
DOCKED: BRANCH  68  69
DOCKED: ATOM     69  C9  UNL     1      12.245  -1.279  -1.648 +0.00 +0.00    +0.213 C  
DOCKED: ATOM     70  N2  UNL     1      12.069   0.071  -1.567 +0.00 -0.00    -0.329 N  
DOCKED: ATOM     71  O2  UNL     1      11.408  -2.049  -1.193 +0.00 -0.00    -0.276 OA 
DOCKED: ATOM     72  H15 UNL     1      11.238   0.411  -1.098 +0.00 +0.00    +0.145 HD 
DOCKED: ATOM     73  H16 UNL     1      12.727   0.748  -1.931 +0.00 +0.00    +0.145 HD 
DOCKED: ENDBRANCH  68  69
DOCKED: ENDBRANCH  45  68
DOCKED: ENDBRANCH  42  45
DOCKED: ENDBRANCH  40  41
DOCKED: BRANCH  40  74
DOCKED: ATOM     74  C4  UNL     1      13.759  -6.089  -0.327 +0.00 +0.00    +0.028 C  
DOCKED: BRANCH  74  76
DOCKED: ATOM     75  C1  UNL     1      15.621  -6.085   1.447 +0.00 +0.00    +0.007 C  
DOCKED: ATOM     76  C2  UNL     1      14.209  -5.626   1.079 +0.00 -0.00    -0.015 C  
DOCKED: ATOM     77  C3  UNL     1      14.041  -4.127   1.320 +0.00 +0.00    +0.007 C  
DOCKED: ENDBRANCH  74  76
DOCKED: ENDBRANCH  40  74
DOCKED: ENDBRANCH   1  40
DOCKED: TORSDOF 34
DOCKED: TER
DOCKED: ENDMDL
________________________________________________________________________________


    FINAL DOCKED STATE:
    ________________________


Run:   5 / 20
Time taken for this run:   5.922s

DOCKED: MODEL        5
DOCKED: USER    Run = 5
DOCKED: USER
DOCKED: USER    Estimated Free Energy of Binding    = +10.14 kcal/mol  [=(1)+(2)+(3)-(4)]
DOCKED: USER
DOCKED: USER    (1) Final Intermolecular Energy     =  +0.00 kcal/mol
DOCKED: USER        vdW + Hbond + desolv Energy     =  +0.00 kcal/mol
DOCKED: USER        Electrostatic Energy            =  +0.00 kcal/mol
DOCKED: USER        Moving Ligand-Fixed Receptor    =  +0.00 kcal/mol
DOCKED: USER        Moving Ligand-Moving Receptor   =  +0.00 kcal/mol
DOCKED: USER    (2) Final Total Internal Energy     = -26.46 kcal/mol
DOCKED: USER    (3) Torsional Free Energy           = +10.14 kcal/mol
DOCKED: USER    (4) Unbound System's Energy         = -26.46 kcal/mol
DOCKED: USER
DOCKED: USER
DOCKED: REMARK  Name = ligands/ligand_0.pdb
DOCKED: REMARK  40 active torsions:
DOCKED: REMARK  status: ('A' for Active; 'I' for Inactive)
DOCKED: REMARK    1  A    between atoms: C1_1  and  C2_2
DOCKED: REMARK    2  A    between atoms: C2_2  and  C3_3
DOCKED: REMARK    3  A    between atoms: C2_2  and  C4_4
DOCKED: REMARK    4  A    between atoms: C4_4  and  C5_5
DOCKED: REMARK    5  A    between atoms: C5_5  and  N1_6
DOCKED: REMARK    6  A    between atoms: C5_5  and  C20_31
DOCKED: REMARK    7  A    between atoms: C6_7  and  C7_9
DOCKED: REMARK    8  A    between atoms: C7_9  and  C8_10
DOCKED: REMARK    9  A    between atoms: C7_9  and  N3_14
DOCKED: REMARK   10  A    between atoms: C8_10  and  C9_11
DOCKED: REMARK   11  A    between atoms: C10_15  and  C11_17
DOCKED: REMARK   12  A    between atoms: C11_17  and  N4_18
DOCKED: REMARK   13  A    between atoms: C11_17  and  C17_28
DOCKED: REMARK   14  A    between atoms: C12_19  and  C13_21
DOCKED: REMARK   15  A    between atoms: C13_21  and  N5_22
DOCKED: REMARK   16  A    between atoms: C13_21  and  C14_23
DOCKED: REMARK   17  A    between atoms: C14_23  and  C15_24
DOCKED: REMARK   18  A    between atoms: C15_24  and  C16_25
DOCKED: REMARK   19  A    between atoms: C16_25  and  O6_27
DOCKED: REMARK   20  A    between atoms: C17_28  and  C18_29
DOCKED: REMARK   21  A    between atoms: C17_28  and  C19_30
DOCKED: REMARK   22  A    between atoms: C20_31  and  O7_32
DOCKED: REMARK   23  A    between atoms: C20_31  and  C21_33
DOCKED: REMARK   24  A    between atoms: C21_33  and  C22_34
DOCKED: REMARK   25  A    between atoms: C22_34  and  C23_35
DOCKED: REMARK   26  A    between atoms: C22_34  and  C24_36
DOCKED: REMARK   27  A    between atoms: N6_38  and  C25_39
DOCKED: REMARK   28  A    between atoms: C25_39  and  C26_40
DOCKED: REMARK   29  A    between atoms: C25_39  and  C27_41
DOCKED: REMARK   30  A    between atoms: N7_43  and  C28_44
DOCKED: REMARK   31  A    between atoms: C28_44  and  C29_45
DOCKED: REMARK   32  A    between atoms: C28_44  and  C32_50
DOCKED: REMARK   33  A    between atoms: C29_45  and  C30_46
DOCKED: REMARK   34  A    between atoms: C30_46  and  C31_47
DOCKED: REMARK   35  A    between atoms: C31_47  and  O11_49
DOCKED: REMARK   36  A    between atoms: N8_52  and  C33_53
DOCKED: REMARK   37  A    between atoms: C33_53  and  C34_54
DOCKED: REMARK   38  A    between atoms: C33_53  and  C41_61
DOCKED: REMARK   39  A    between atoms: C34_54  and  C35_55
DOCKED: REMARK   40  A    between atoms: C41_61  and  O14_63
DOCKED: REMARK                            x       y       z     vdW  Elec       q    Type
DOCKED: REMARK                         _______ _______ _______ _____ _____    ______ ____
DOCKED: USER                              x       y       z     vdW  Elec       q    Type
DOCKED: USER                           _______ _______ _______ _____ _____    ______ ____
DOCKED: ROOT
DOCKED: ATOM      1  C20 UNL     1      11.875  -9.123  -3.635 +0.00 +0.00    +0.135 C  
DOCKED: ENDROOT
DOCKED: BRANCH   1   2
DOCKED: ATOM      2  O7  UNL     1      10.501  -9.099  -4.010 +0.00 -0.00    -0.390 OA 
DOCKED: ATOM      3  H36 UNL     1      10.432  -9.352  -4.955 +0.00 +0.00    +0.210 HD 
DOCKED: ENDBRANCH   1   2
DOCKED: BRANCH   1   4
DOCKED: ATOM      4  C21 UNL     1      12.478 -10.512  -3.926 +0.00 +0.00    +0.045 C  
DOCKED: BRANCH   4   5
DOCKED: ATOM      5  C22 UNL     1      11.509 -11.711  -3.954 +0.00 +0.00    +0.074 C  
DOCKED: ATOM      6  C23 UNL     1      10.727 -11.803  -2.635 +0.00 +0.00    +0.017 C  
DOCKED: BRANCH   5   7
DOCKED: ATOM      7  C24 UNL     1      10.493 -11.578  -5.094 +0.00 +0.00    +0.217 C  
DOCKED: ATOM      8  O8  UNL     1      10.768 -11.135  -6.204 +0.00 -0.00    -0.276 OA 
DOCKED: ATOM      9  N6  UNL     1       9.208 -11.960  -4.756 +0.00 -0.00    -0.304 N  
DOCKED: ATOM     10  H43 UNL     1       8.998 -12.003  -3.761 +0.00 +0.00    +0.149 HD 
DOCKED: BRANCH   9  11
DOCKED: ATOM     11  C25 UNL     1       8.119 -11.597  -5.657 +0.00 +0.00    +0.156 C  
DOCKED: ATOM     12  C26 UNL     1       6.791 -12.146  -5.153 +0.00 +0.00    +0.038 C  
DOCKED: BRANCH  11  13
DOCKED: ATOM     13  C27 UNL     1       8.043 -10.058  -5.776 +0.00 +0.00    +0.234 C  
DOCKED: ATOM     14  O9  UNL     1       8.857  -9.395  -6.426 +0.00 -0.00    -0.274 OA 
DOCKED: ATOM     15  N7  UNL     1       7.015  -9.480  -5.063 +0.00 -0.00    -0.302 N  
DOCKED: ATOM     16  H48 UNL     1       6.554 -10.030  -4.345 +0.00 +0.00    +0.150 HD 
DOCKED: BRANCH  15  17
DOCKED: ATOM     17  C28 UNL     1       6.915  -8.032  -4.914 +0.00 +0.00    +0.159 C  
DOCKED: BRANCH  17  18
DOCKED: ATOM     18  C32 UNL     1       6.862  -7.429  -6.332 +0.00 +0.00    +0.234 C  
DOCKED: ATOM     19  O12 UNL     1       5.902  -7.588  -7.079 +0.00 -0.00    -0.274 OA 
DOCKED: ATOM     20  N8  UNL     1       8.032  -6.804  -6.710 +0.00 -0.00    -0.301 N  
DOCKED: ATOM     21  H55 UNL     1       8.510  -6.337  -5.948 +0.00 +0.00    +0.150 HD 
DOCKED: BRANCH  20  22
DOCKED: ATOM     22  C33 UNL     1       8.095  -6.094  -7.992 +0.00 +0.00    +0.186 C  
DOCKED: BRANCH  22  23
DOCKED: ATOM     23  C41 UNL     1       9.306  -5.155  -8.011 +0.00 +0.00    +0.326 C  
DOCKED: ATOM     24  O13 UNL     1       9.975  -4.826  -8.980 +0.00 -0.00    -0.249 OA 
DOCKED: BRANCH  23  25
DOCKED: ATOM     25  O14 UNL     1       9.648  -4.718  -6.778 +0.00 -0.00    -0.479 OA 
DOCKED: ATOM     26  H64 UNL     1      10.344  -5.350  -6.501 +0.00 +0.00    +0.295 HD 
DOCKED: ENDBRANCH  23  25
DOCKED: ENDBRANCH  22  23
DOCKED: BRANCH  22  27
DOCKED: ATOM     27  C34 UNL     1       6.853  -5.216  -8.222 +0.00 +0.00    +0.069 C  
DOCKED: BRANCH  27  28
DOCKED: ATOM     28  C35 UNL     1       6.707  -4.086  -7.230 +0.00 -0.00    -0.045 A  
DOCKED: ATOM     29  C36 UNL     1       7.184  -2.804  -7.541 +0.00 +0.00    +0.004 A  
DOCKED: ATOM     30  C37 UNL     1       7.077  -1.764  -6.616 +0.00 +0.00    +0.000 A  
DOCKED: ATOM     31  C38 UNL     1       6.488  -1.994  -5.375 +0.00 +0.00    +0.000 A  
DOCKED: ATOM     32  C39 UNL     1       6.004  -3.262  -5.058 +0.00 +0.00    +0.000 A  
DOCKED: ATOM     33  C40 UNL     1       6.117  -4.305  -5.979 +0.00 +0.00    +0.004 A  
DOCKED: ENDBRANCH  27  28
DOCKED: ENDBRANCH  22  27
DOCKED: ENDBRANCH  20  22
DOCKED: ENDBRANCH  17  18
DOCKED: BRANCH  17  34
DOCKED: ATOM     34  C29 UNL     1       8.136  -7.499  -4.151 +0.00 +0.00    +0.043 C  
DOCKED: BRANCH  34  35
DOCKED: ATOM     35  C30 UNL     1       7.874  -6.214  -3.364 +0.00 +0.00    +0.123 C  
DOCKED: BRANCH  35  36
DOCKED: ATOM     36  C31 UNL     1       8.752  -5.064  -3.777 +0.00 +0.00    +0.305 C  
DOCKED: ATOM     37  O10 UNL     1       8.521  -3.880  -3.578 +0.00 -0.00    -0.251 OA 
DOCKED: BRANCH  36  38
DOCKED: ATOM     38  O11 UNL     1       9.837  -5.445  -4.469 +0.00 -0.00    -0.481 OA 
DOCKED: ATOM     39  H54 UNL     1      10.280  -4.609  -4.725 +0.00 +0.00    +0.295 HD 
DOCKED: ENDBRANCH  36  38
DOCKED: ENDBRANCH  35  36
DOCKED: ENDBRANCH  34  35
DOCKED: ENDBRANCH  17  34
DOCKED: ENDBRANCH  15  17
DOCKED: ENDBRANCH  11  13
DOCKED: ENDBRANCH   9  11
DOCKED: ENDBRANCH   5   7
DOCKED: ENDBRANCH   4   5
DOCKED: ENDBRANCH   1   4
DOCKED: BRANCH   1  40
DOCKED: ATOM     40  C5  UNL     1      12.685  -7.885  -4.111 +0.00 +0.00    +0.102 C  
DOCKED: BRANCH  40  41
DOCKED: ATOM     41  N1  UNL     1      12.651  -7.632  -5.562 +0.00 -0.00    -0.308 N  
DOCKED: ATOM     42  C6  UNL     1      11.523  -7.374  -6.310 +0.00 +0.00    +0.234 C  
DOCKED: ATOM     43  O1  UNL     1      10.386  -7.431  -5.850 +0.00 -0.00    -0.274 OA 
DOCKED: ATOM     44  H11 UNL     1      13.551  -7.514  -6.020 +0.00 +0.00    +0.149 HD 
DOCKED: BRANCH  42  45
DOCKED: ATOM     45  C7  UNL     1      11.806  -6.913  -7.749 +0.00 +0.00    +0.168 C  
DOCKED: BRANCH  45  46
DOCKED: ATOM     46  N3  UNL     1      12.371  -5.565  -7.722 +0.00 -0.00    -0.302 N  
DOCKED: ATOM     47  C10 UNL     1      13.667  -5.357  -7.303 +0.00 +0.00    +0.234 C  
DOCKED: ATOM     48  O3  UNL     1      14.428  -6.278  -6.990 +0.00 -0.00    -0.274 OA 
DOCKED: ATOM     49  H17 UNL     1      11.968  -4.875  -8.345 +0.00 +0.00    +0.150 HD 
DOCKED: BRANCH  47  50
DOCKED: ATOM     50  C11 UNL     1      14.101  -3.873  -7.245 +0.00 +0.00    +0.161 C  
DOCKED: BRANCH  50  51
DOCKED: ATOM     51  N4  UNL     1      12.878  -3.072  -7.237 +0.00 -0.00    -0.302 N  
DOCKED: ATOM     52  C12 UNL     1      11.974  -3.244  -6.204 +0.00 +0.00    +0.230 C  
DOCKED: ATOM     53  O4  UNL     1      11.937  -4.261  -5.514 +0.00 -0.00    -0.274 OA 
DOCKED: ATOM     54  H19 UNL     1      12.995  -2.124  -7.569 +0.00 +0.00    +0.150 HD 
DOCKED: BRANCH  52  55
DOCKED: ATOM     55  C13 UNL     1      10.999  -2.054  -5.985 +0.00 +0.00    +0.138 C  
DOCKED: BRANCH  55  56
DOCKED: ATOM     56  N5  UNL     1       9.746  -2.546  -5.373 +0.00 -0.00    -0.320 NA 
DOCKED: ATOM     57  H21 UNL     1       9.807  -3.568  -5.336 +0.00 +0.00    +0.119 HD 
DOCKED: ATOM     58  H22 UNL     1       9.766  -2.290  -4.381 +0.00 +0.00    +0.119 HD 
DOCKED: ENDBRANCH  55  56
DOCKED: BRANCH  55  59
DOCKED: ATOM     59  C14 UNL     1      11.653  -0.994  -5.093 +0.00 +0.00    +0.039 C  
DOCKED: BRANCH  59  60
DOCKED: ATOM     60  C15 UNL     1      11.372  -1.171  -3.600 +0.00 +0.00    +0.122 C  
DOCKED: BRANCH  60  61
DOCKED: ATOM     61  C16 UNL     1      11.916  -2.489  -3.126 +0.00 +0.00    +0.305 C  
DOCKED: ATOM     62  O5  UNL     1      13.093  -2.733  -2.907 +0.00 -0.00    -0.251 OA 
DOCKED: BRANCH  61  63
DOCKED: ATOM     63  O6  UNL     1      10.963  -3.432  -3.009 +0.00 -0.00    -0.481 OA 
DOCKED: ATOM     64  H27 UNL     1      10.624  -3.585  -3.928 +0.00 +0.00    +0.295 HD 
DOCKED: ENDBRANCH  61  63
DOCKED: ENDBRANCH  60  61
DOCKED: ENDBRANCH  59  60
DOCKED: ENDBRANCH  55  59
DOCKED: ENDBRANCH  52  55
DOCKED: ENDBRANCH  50  51
DOCKED: BRANCH  50  65
DOCKED: ATOM     65  C17 UNL     1      15.021  -3.597  -6.037 +0.00 +0.00    +0.012 C  
DOCKED: ATOM     66  C18 UNL     1      14.969  -2.116  -5.649 +0.00 +0.00    +0.009 C  
DOCKED: ATOM     67  C19 UNL     1      14.702  -4.461  -4.814 +0.00 +0.00    +0.009 C  
DOCKED: ENDBRANCH  50  65
DOCKED: ENDBRANCH  47  50
DOCKED: ENDBRANCH  45  46
DOCKED: BRANCH  45  68
DOCKED: ATOM     68  C8  UNL     1      12.778  -7.920  -8.375 +0.00 +0.00    +0.127 C  
DOCKED: BRANCH  68  69
DOCKED: ATOM     69  C9  UNL     1      12.081  -9.170  -8.856 +0.00 +0.00    +0.213 C  
DOCKED: ATOM     70  N2  UNL     1      11.091  -9.613  -8.027 +0.00 -0.00    -0.329 N  
DOCKED: ATOM     71  O2  UNL     1      12.342  -9.766  -9.894 +0.00 -0.00    -0.276 OA 
DOCKED: ATOM     72  H15 UNL     1      10.602 -10.459  -8.288 +0.00 +0.00    +0.145 HD 
DOCKED: ATOM     73  H16 UNL     1      10.834  -9.154  -7.163 +0.00 +0.00    +0.145 HD 
DOCKED: ENDBRANCH  68  69
DOCKED: ENDBRANCH  45  68
DOCKED: ENDBRANCH  42  45
DOCKED: ENDBRANCH  40  41
DOCKED: BRANCH  40  74
DOCKED: ATOM     74  C4  UNL     1      12.323  -6.569  -3.376 +0.00 +0.00    +0.028 C  
DOCKED: BRANCH  74  76
DOCKED: ATOM     75  C1  UNL     1      12.706  -5.397  -1.118 +0.00 +0.00    +0.007 C  
DOCKED: ATOM     76  C2  UNL     1      12.102  -6.600  -1.845 +0.00 -0.00    -0.015 C  
DOCKED: ATOM     77  C3  UNL     1      10.647  -6.812  -1.434 +0.00 +0.00    +0.007 C  
DOCKED: ENDBRANCH  74  76
DOCKED: ENDBRANCH  40  74
DOCKED: ENDBRANCH   1  40
DOCKED: TORSDOF 34
DOCKED: TER
DOCKED: ENDMDL
________________________________________________________________________________


    FINAL DOCKED STATE:
    ________________________


Run:   6 / 20
Time taken for this run:   5.922s

DOCKED: MODEL        6
DOCKED: USER    Run = 6
DOCKED: USER
DOCKED: USER    Estimated Free Energy of Binding    = +10.14 kcal/mol  [=(1)+(2)+(3)-(4)]
DOCKED: USER
DOCKED: USER    (1) Final Intermolecular Energy     =  +0.00 kcal/mol
DOCKED: USER        vdW + Hbond + desolv Energy     =  +0.00 kcal/mol
DOCKED: USER        Electrostatic Energy            =  +0.00 kcal/mol
DOCKED: USER        Moving Ligand-Fixed Receptor    =  +0.00 kcal/mol
DOCKED: USER        Moving Ligand-Moving Receptor   =  +0.00 kcal/mol
DOCKED: USER    (2) Final Total Internal Energy     = -29.47 kcal/mol
DOCKED: USER    (3) Torsional Free Energy           = +10.14 kcal/mol
DOCKED: USER    (4) Unbound System's Energy         = -29.47 kcal/mol
DOCKED: USER
DOCKED: USER
DOCKED: REMARK  Name = ligands/ligand_0.pdb
DOCKED: REMARK  40 active torsions:
DOCKED: REMARK  status: ('A' for Active; 'I' for Inactive)
DOCKED: REMARK    1  A    between atoms: C1_1  and  C2_2
DOCKED: REMARK    2  A    between atoms: C2_2  and  C3_3
DOCKED: REMARK    3  A    between atoms: C2_2  and  C4_4
DOCKED: REMARK    4  A    between atoms: C4_4  and  C5_5
DOCKED: REMARK    5  A    between atoms: C5_5  and  N1_6
DOCKED: REMARK    6  A    between atoms: C5_5  and  C20_31
DOCKED: REMARK    7  A    between atoms: C6_7  and  C7_9
DOCKED: REMARK    8  A    between atoms: C7_9  and  C8_10
DOCKED: REMARK    9  A    between atoms: C7_9  and  N3_14
DOCKED: REMARK   10  A    between atoms: C8_10  and  C9_11
DOCKED: REMARK   11  A    between atoms: C10_15  and  C11_17
DOCKED: REMARK   12  A    between atoms: C11_17  and  N4_18
DOCKED: REMARK   13  A    between atoms: C11_17  and  C17_28
DOCKED: REMARK   14  A    between atoms: C12_19  and  C13_21
DOCKED: REMARK   15  A    between atoms: C13_21  and  N5_22
DOCKED: REMARK   16  A    between atoms: C13_21  and  C14_23
DOCKED: REMARK   17  A    between atoms: C14_23  and  C15_24
DOCKED: REMARK   18  A    between atoms: C15_24  and  C16_25
DOCKED: REMARK   19  A    between atoms: C16_25  and  O6_27
DOCKED: REMARK   20  A    between atoms: C17_28  and  C18_29
DOCKED: REMARK   21  A    between atoms: C17_28  and  C19_30
DOCKED: REMARK   22  A    between atoms: C20_31  and  O7_32
DOCKED: REMARK   23  A    between atoms: C20_31  and  C21_33
DOCKED: REMARK   24  A    between atoms: C21_33  and  C22_34
DOCKED: REMARK   25  A    between atoms: C22_34  and  C23_35
DOCKED: REMARK   26  A    between atoms: C22_34  and  C24_36
DOCKED: REMARK   27  A    between atoms: N6_38  and  C25_39
DOCKED: REMARK   28  A    between atoms: C25_39  and  C26_40
DOCKED: REMARK   29  A    between atoms: C25_39  and  C27_41
DOCKED: REMARK   30  A    between atoms: N7_43  and  C28_44
DOCKED: REMARK   31  A    between atoms: C28_44  and  C29_45
DOCKED: REMARK   32  A    between atoms: C28_44  and  C32_50
DOCKED: REMARK   33  A    between atoms: C29_45  and  C30_46
DOCKED: REMARK   34  A    between atoms: C30_46  and  C31_47
DOCKED: REMARK   35  A    between atoms: C31_47  and  O11_49
DOCKED: REMARK   36  A    between atoms: N8_52  and  C33_53
DOCKED: REMARK   37  A    between atoms: C33_53  and  C34_54
DOCKED: REMARK   38  A    between atoms: C33_53  and  C41_61
DOCKED: REMARK   39  A    between atoms: C34_54  and  C35_55
DOCKED: REMARK   40  A    between atoms: C41_61  and  O14_63
DOCKED: REMARK                            x       y       z     vdW  Elec       q    Type
DOCKED: REMARK                         _______ _______ _______ _____ _____    ______ ____
DOCKED: USER                              x       y       z     vdW  Elec       q    Type
DOCKED: USER                           _______ _______ _______ _____ _____    ______ ____
DOCKED: ROOT
DOCKED: ATOM      1  C20 UNL     1      11.152 -10.584   1.475 +0.00 +0.00    +0.135 C  
DOCKED: ENDROOT
DOCKED: BRANCH   1   2
DOCKED: ATOM      2  O7  UNL     1      10.320  -9.683   2.199 +0.00 -0.00    -0.390 OA 
DOCKED: ATOM      3  H36 UNL     1      10.744  -8.798   2.197 +0.00 +0.00    +0.210 HD 
DOCKED: ENDBRANCH   1   2
DOCKED: BRANCH   1   4
DOCKED: ATOM      4  C21 UNL     1      10.287 -11.629   0.742 +0.00 +0.00    +0.045 C  
DOCKED: BRANCH   4   5
DOCKED: ATOM      5  C22 UNL     1       9.295 -11.108  -0.317 +0.00 +0.00    +0.074 C  
DOCKED: ATOM      6  C23 UNL     1       9.165 -12.109  -1.473 +0.00 +0.00    +0.017 C  
DOCKED: BRANCH   5   7
DOCKED: ATOM      7  C24 UNL     1       7.901 -10.899   0.284 +0.00 +0.00    +0.217 C  
DOCKED: ATOM      8  O8  UNL     1       6.908 -10.613  -0.378 +0.00 -0.00    -0.276 OA 
DOCKED: ATOM      9  N6  UNL     1       7.853 -11.013   1.661 +0.00 -0.00    -0.304 N  
DOCKED: ATOM     10  H43 UNL     1       8.741 -10.929   2.151 +0.00 +0.00    +0.149 HD 
DOCKED: BRANCH   9  11
DOCKED: ATOM     11  C25 UNL     1       6.657 -10.544   2.353 +0.00 +0.00    +0.156 C  
DOCKED: ATOM     12  C26 UNL     1       5.431 -11.336   1.917 +0.00 +0.00    +0.038 C  
DOCKED: BRANCH  11  13
DOCKED: ATOM     13  C27 UNL     1       6.860 -10.685   3.879 +0.00 +0.00    +0.234 C  
DOCKED: ATOM     14  O9  UNL     1       6.617 -11.727   4.494 +0.00 -0.00    -0.274 OA 
DOCKED: ATOM     15  N7  UNL     1       7.296  -9.537   4.505 +0.00 -0.00    -0.302 N  
DOCKED: ATOM     16  H48 UNL     1       7.219  -8.655   4.008 +0.00 +0.00    +0.150 HD 
DOCKED: BRANCH  15  17
DOCKED: ATOM     17  C28 UNL     1       7.356  -9.442   5.960 +0.00 +0.00    +0.159 C  
DOCKED: BRANCH  17  18
DOCKED: ATOM     18  C32 UNL     1       7.144  -7.960   6.330 +0.00 +0.00    +0.234 C  
DOCKED: ATOM     19  O12 UNL     1       6.536  -7.615   7.338 +0.00 -0.00    -0.274 OA 
DOCKED: ATOM     20  N8  UNL     1       7.595  -7.080   5.368 +0.00 -0.00    -0.301 N  
DOCKED: ATOM     21  H55 UNL     1       8.428  -7.396   4.885 +0.00 +0.00    +0.150 HD 
DOCKED: BRANCH  20  22
DOCKED: ATOM     22  C33 UNL     1       7.554  -5.637   5.627 +0.00 +0.00    +0.186 C  
DOCKED: BRANCH  22  23
DOCKED: ATOM     23  C41 UNL     1       8.590  -4.919   4.756 +0.00 +0.00    +0.326 C  
DOCKED: ATOM     24  O13 UNL     1       8.590  -3.744   4.418 +0.00 -0.00    -0.249 OA 
DOCKED: BRANCH  23  25
DOCKED: ATOM     25  O14 UNL     1       9.557  -5.749   4.303 +0.00 -0.00    -0.479 OA 
DOCKED: ATOM     26  H64 UNL     1       9.177  -6.105   3.473 +0.00 +0.00    +0.295 HD 
DOCKED: ENDBRANCH  23  25
DOCKED: ENDBRANCH  22  23
DOCKED: BRANCH  22  27
DOCKED: ATOM     27  C34 UNL     1       7.902  -5.306   7.088 +0.00 +0.00    +0.069 C  
DOCKED: BRANCH  27  28
DOCKED: ATOM     28  C35 UNL     1       9.328  -5.630   7.468 +0.00 -0.00    -0.045 A  
DOCKED: ATOM     29  C36 UNL     1      10.338  -4.668   7.308 +0.00 +0.00    +0.004 A  
DOCKED: ATOM     30  C37 UNL     1      11.662  -4.971   7.631 +0.00 +0.00    +0.000 A  
DOCKED: ATOM     31  C38 UNL     1      11.988  -6.234   8.120 +0.00 +0.00    +0.000 A  
DOCKED: ATOM     32  C39 UNL     1      10.992  -7.195   8.289 +0.00 +0.00    +0.000 A  
DOCKED: ATOM     33  C40 UNL     1       9.668  -6.896   7.960 +0.00 +0.00    +0.004 A  
DOCKED: ENDBRANCH  27  28
DOCKED: ENDBRANCH  22  27
DOCKED: ENDBRANCH  20  22
DOCKED: ENDBRANCH  17  18
DOCKED: BRANCH  17  34
DOCKED: ATOM     34  C29 UNL     1       8.725  -9.926   6.459 +0.00 +0.00    +0.043 C  
DOCKED: BRANCH  34  35
DOCKED: ATOM     35  C30 UNL     1       9.804  -9.987   5.375 +0.00 +0.00    +0.123 C  
DOCKED: BRANCH  35  36
DOCKED: ATOM     36  C31 UNL     1      10.154  -8.644   4.796 +0.00 +0.00    +0.305 C  
DOCKED: ATOM     37  O10 UNL     1      11.041  -7.902   5.194 +0.00 -0.00    -0.251 OA 
DOCKED: BRANCH  36  38
DOCKED: ATOM     38  O11 UNL     1       9.344  -8.268   3.795 +0.00 -0.00    -0.481 OA 
DOCKED: ATOM     39  H54 UNL     1       9.910  -7.734   3.198 +0.00 +0.00    +0.295 HD 
DOCKED: ENDBRANCH  36  38
DOCKED: ENDBRANCH  35  36
DOCKED: ENDBRANCH  34  35
DOCKED: ENDBRANCH  17  34
DOCKED: ENDBRANCH  15  17
DOCKED: ENDBRANCH  11  13
DOCKED: ENDBRANCH   9  11
DOCKED: ENDBRANCH   5   7
DOCKED: ENDBRANCH   4   5
DOCKED: ENDBRANCH   1   4
DOCKED: BRANCH   1  40
DOCKED: ATOM     40  C5  UNL     1      12.274  -9.891   0.653 +0.00 +0.00    +0.102 C  
DOCKED: BRANCH  40  41
DOCKED: ATOM     41  N1  UNL     1      12.258  -8.418   0.684 +0.00 -0.00    -0.308 N  
DOCKED: ATOM     42  C6  UNL     1      13.138  -7.587   0.026 +0.00 +0.00    +0.234 C  
DOCKED: ATOM     43  O1  UNL     1      14.117  -8.001  -0.590 +0.00 -0.00    -0.274 OA 
DOCKED: ATOM     44  H11 UNL     1      11.452  -7.986   1.128 +0.00 +0.00    +0.149 HD 
DOCKED: BRANCH  42  45
DOCKED: ATOM     45  C7  UNL     1      12.743  -6.102   0.041 +0.00 +0.00    +0.168 C  
DOCKED: BRANCH  45  46
DOCKED: ATOM     46  N3  UNL     1      11.392  -5.955  -0.498 +0.00 -0.00    -0.302 N  
DOCKED: ATOM     47  C10 UNL     1      11.156  -5.139  -1.583 +0.00 +0.00    +0.234 C  
DOCKED: ATOM     48  O3  UNL     1      12.056  -4.546  -2.186 +0.00 -0.00    -0.274 OA 
DOCKED: ATOM     49  H17 UNL     1      10.737  -6.710  -0.334 +0.00 +0.00    +0.150 HD 
DOCKED: BRANCH  47  50
DOCKED: ATOM     50  C11 UNL     1       9.669  -5.013  -1.990 +0.00 +0.00    +0.161 C  
DOCKED: BRANCH  50  51
DOCKED: ATOM     51  N4  UNL     1       8.899  -5.821  -1.046 +0.00 -0.00    -0.302 N  
DOCKED: ATOM     52  C12 UNL     1       8.626  -7.139  -1.364 +0.00 +0.00    +0.230 C  
DOCKED: ATOM     53  O4  UNL     1       8.650  -7.566  -2.516 +0.00 -0.00    -0.274 OA 
DOCKED: ATOM     54  H19 UNL     1       9.100  -5.633  -0.073 +0.00 +0.00    +0.150 HD 
DOCKED: BRANCH  52  55
DOCKED: ATOM     55  C13 UNL     1       8.275  -8.043  -0.150 +0.00 +0.00    +0.138 C  
DOCKED: BRANCH  55  56
DOCKED: ATOM     56  N5  UNL     1       9.283  -7.857   0.915 +0.00 -0.00    -0.320 NA 
DOCKED: ATOM     57  H21 UNL     1       9.272  -6.865   1.173 +0.00 +0.00    +0.119 HD 
DOCKED: ATOM     58  H22 UNL     1       8.923  -8.306   1.764 +0.00 +0.00    +0.119 HD 
DOCKED: ENDBRANCH  55  56
DOCKED: BRANCH  55  59
DOCKED: ATOM     59  C14 UNL     1       6.874  -7.705   0.371 +0.00 +0.00    +0.039 C  
DOCKED: BRANCH  59  60
DOCKED: ATOM     60  C15 UNL     1       6.699  -6.248   0.800 +0.00 +0.00    +0.122 C  
DOCKED: BRANCH  60  61
DOCKED: ATOM     61  C16 UNL     1       7.707  -5.897   1.858 +0.00 +0.00    +0.305 C  
DOCKED: ATOM     62  O5  UNL     1       8.422  -4.907   1.855 +0.00 -0.00    -0.251 OA 
DOCKED: BRANCH  61  63
DOCKED: ATOM     63  O6  UNL     1       7.795  -6.833   2.821 +0.00 -0.00    -0.481 OA 
DOCKED: ATOM     64  H27 UNL     1       8.733  -7.152   2.799 +0.00 +0.00    +0.295 HD 
DOCKED: ENDBRANCH  61  63
DOCKED: ENDBRANCH  60  61
DOCKED: ENDBRANCH  59  60
DOCKED: ENDBRANCH  55  59
DOCKED: ENDBRANCH  52  55
DOCKED: ENDBRANCH  50  51
DOCKED: BRANCH  50  65
DOCKED: ATOM     65  C17 UNL     1       9.218  -3.538  -2.043 +0.00 +0.00    +0.012 C  
DOCKED: ATOM     66  C18 UNL     1       7.693  -3.446  -2.161 +0.00 +0.00    +0.009 C  
DOCKED: ATOM     67  C19 UNL     1       9.692  -2.709  -0.846 +0.00 +0.00    +0.009 C  
DOCKED: ENDBRANCH  50  65
DOCKED: ENDBRANCH  47  50
DOCKED: ENDBRANCH  45  46
DOCKED: BRANCH  45  68
DOCKED: ATOM     68  C8  UNL     1      12.827  -5.615   1.493 +0.00 +0.00    +0.127 C  
DOCKED: BRANCH  68  69
DOCKED: ATOM     69  C9  UNL     1      11.485  -5.636   2.185 +0.00 +0.00    +0.213 C  
DOCKED: ATOM     70  N2  UNL     1      11.033  -4.406   2.565 +0.00 -0.00    -0.329 N  
DOCKED: ATOM     71  O2  UNL     1      10.823  -6.643   2.404 +0.00 -0.00    -0.276 OA 
DOCKED: ATOM     72  H15 UNL     1      10.147  -4.360   3.052 +0.00 +0.00    +0.145 HD 
DOCKED: ATOM     73  H16 UNL     1      11.539  -3.545   2.403 +0.00 +0.00    +0.145 HD 
DOCKED: ENDBRANCH  68  69
DOCKED: ENDBRANCH  45  68
DOCKED: ENDBRANCH  42  45
DOCKED: ENDBRANCH  40  41
DOCKED: BRANCH  40  74
DOCKED: ATOM     74  C4  UNL     1      13.707 -10.372   1.002 +0.00 +0.00    +0.028 C  
DOCKED: BRANCH  74  76
DOCKED: ATOM     75  C1  UNL     1      15.519  -8.922   2.111 +0.00 +0.00    +0.007 C  
DOCKED: ATOM     76  C2  UNL     1      14.359  -9.896   2.322 +0.00 -0.00    -0.015 C  
DOCKED: ATOM     77  C3  UNL     1      13.363  -9.348   3.341 +0.00 +0.00    +0.007 C  
DOCKED: ENDBRANCH  74  76
DOCKED: ENDBRANCH  40  74
DOCKED: ENDBRANCH   1  40
DOCKED: TORSDOF 34
DOCKED: TER
DOCKED: ENDMDL
________________________________________________________________________________


    FINAL DOCKED STATE:
    ________________________


Run:   7 / 20
Time taken for this run:   5.922s

DOCKED: MODEL        7
DOCKED: USER    Run = 7
DOCKED: USER
DOCKED: USER    Estimated Free Energy of Binding    = +10.14 kcal/mol  [=(1)+(2)+(3)-(4)]
DOCKED: USER
DOCKED: USER    (1) Final Intermolecular Energy     =  +0.00 kcal/mol
DOCKED: USER        vdW + Hbond + desolv Energy     =  +0.00 kcal/mol
DOCKED: USER        Electrostatic Energy            =  +0.00 kcal/mol
DOCKED: USER        Moving Ligand-Fixed Receptor    =  +0.00 kcal/mol
DOCKED: USER        Moving Ligand-Moving Receptor   =  +0.00 kcal/mol
DOCKED: USER    (2) Final Total Internal Energy     = -30.01 kcal/mol
DOCKED: USER    (3) Torsional Free Energy           = +10.14 kcal/mol
DOCKED: USER    (4) Unbound System's Energy         = -30.01 kcal/mol
DOCKED: USER
DOCKED: USER
DOCKED: REMARK  Name = ligands/ligand_0.pdb
DOCKED: REMARK  40 active torsions:
DOCKED: REMARK  status: ('A' for Active; 'I' for Inactive)
DOCKED: REMARK    1  A    between atoms: C1_1  and  C2_2
DOCKED: REMARK    2  A    between atoms: C2_2  and  C3_3
DOCKED: REMARK    3  A    between atoms: C2_2  and  C4_4
DOCKED: REMARK    4  A    between atoms: C4_4  and  C5_5
DOCKED: REMARK    5  A    between atoms: C5_5  and  N1_6
DOCKED: REMARK    6  A    between atoms: C5_5  and  C20_31
DOCKED: REMARK    7  A    between atoms: C6_7  and  C7_9
DOCKED: REMARK    8  A    between atoms: C7_9  and  C8_10
DOCKED: REMARK    9  A    between atoms: C7_9  and  N3_14
DOCKED: REMARK   10  A    between atoms: C8_10  and  C9_11
DOCKED: REMARK   11  A    between atoms: C10_15  and  C11_17
DOCKED: REMARK   12  A    between atoms: C11_17  and  N4_18
DOCKED: REMARK   13  A    between atoms: C11_17  and  C17_28
DOCKED: REMARK   14  A    between atoms: C12_19  and  C13_21
DOCKED: REMARK   15  A    between atoms: C13_21  and  N5_22
DOCKED: REMARK   16  A    between atoms: C13_21  and  C14_23
DOCKED: REMARK   17  A    between atoms: C14_23  and  C15_24
DOCKED: REMARK   18  A    between atoms: C15_24  and  C16_25
DOCKED: REMARK   19  A    between atoms: C16_25  and  O6_27
DOCKED: REMARK   20  A    between atoms: C17_28  and  C18_29
DOCKED: REMARK   21  A    between atoms: C17_28  and  C19_30
DOCKED: REMARK   22  A    between atoms: C20_31  and  O7_32
DOCKED: REMARK   23  A    between atoms: C20_31  and  C21_33
DOCKED: REMARK   24  A    between atoms: C21_33  and  C22_34
DOCKED: REMARK   25  A    between atoms: C22_34  and  C23_35
DOCKED: REMARK   26  A    between atoms: C22_34  and  C24_36
DOCKED: REMARK   27  A    between atoms: N6_38  and  C25_39
DOCKED: REMARK   28  A    between atoms: C25_39  and  C26_40
DOCKED: REMARK   29  A    between atoms: C25_39  and  C27_41
DOCKED: REMARK   30  A    between atoms: N7_43  and  C28_44
DOCKED: REMARK   31  A    between atoms: C28_44  and  C29_45
DOCKED: REMARK   32  A    between atoms: C28_44  and  C32_50
DOCKED: REMARK   33  A    between atoms: C29_45  and  C30_46
DOCKED: REMARK   34  A    between atoms: C30_46  and  C31_47
DOCKED: REMARK   35  A    between atoms: C31_47  and  O11_49
DOCKED: REMARK   36  A    between atoms: N8_52  and  C33_53
DOCKED: REMARK   37  A    between atoms: C33_53  and  C34_54
DOCKED: REMARK   38  A    between atoms: C33_53  and  C41_61
DOCKED: REMARK   39  A    between atoms: C34_54  and  C35_55
DOCKED: REMARK   40  A    between atoms: C41_61  and  O14_63
DOCKED: REMARK                            x       y       z     vdW  Elec       q    Type
DOCKED: REMARK                         _______ _______ _______ _____ _____    ______ ____
DOCKED: USER                              x       y       z     vdW  Elec       q    Type
DOCKED: USER                           _______ _______ _______ _____ _____    ______ ____
DOCKED: ROOT
DOCKED: ATOM      1  C20 UNL     1       7.939  -3.679  -1.723 +0.00 +0.00    +0.135 C  
DOCKED: ENDROOT
DOCKED: BRANCH   1   2
DOCKED: ATOM      2  O7  UNL     1       6.726  -3.360  -1.047 +0.00 -0.00    -0.390 OA 
DOCKED: ATOM      3  H36 UNL     1       6.406  -2.492  -1.375 +0.00 +0.00    +0.210 HD 
DOCKED: ENDBRANCH   1   2
DOCKED: BRANCH   1   4
DOCKED: ATOM      4  C21 UNL     1       8.047  -5.203  -1.925 +0.00 +0.00    +0.045 C  
DOCKED: BRANCH   4   5
DOCKED: ATOM      5  C22 UNL     1       6.854  -5.912  -2.596 +0.00 +0.00    +0.074 C  
DOCKED: ATOM      6  C23 UNL     1       7.309  -7.213  -3.272 +0.00 +0.00    +0.017 C  
DOCKED: BRANCH   5   7
DOCKED: ATOM      7  C24 UNL     1       5.772  -6.269  -1.571 +0.00 +0.00    +0.217 C  
DOCKED: ATOM      8  O8  UNL     1       4.671  -6.723  -1.870 +0.00 -0.00    -0.276 OA 
DOCKED: ATOM      9  N6  UNL     1       6.118  -5.993  -0.261 +0.00 -0.00    -0.304 N  
DOCKED: ATOM     10  H43 UNL     1       6.886  -5.339  -0.127 +0.00 +0.00    +0.149 HD 
DOCKED: BRANCH   9  11
DOCKED: ATOM     11  C25 UNL     1       5.067  -6.012   0.751 +0.00 +0.00    +0.156 C  
DOCKED: ATOM     12  C26 UNL     1       4.645  -7.440   1.069 +0.00 +0.00    +0.038 C  
DOCKED: BRANCH  11  13
DOCKED: ATOM     13  C27 UNL     1       5.577  -5.315   2.033 +0.00 +0.00    +0.234 C  
DOCKED: ATOM     14  O9  UNL     1       5.487  -5.824   3.154 +0.00 -0.00    -0.274 OA 
DOCKED: ATOM     15  N7  UNL     1       6.106  -4.059   1.828 +0.00 -0.00    -0.302 N  
DOCKED: ATOM     16  H48 UNL     1       5.911  -3.588   0.950 +0.00 +0.00    +0.150 HD 
DOCKED: BRANCH  15  17
DOCKED: ATOM     17  C28 UNL     1       6.458  -3.191   2.948 +0.00 +0.00    +0.159 C  
DOCKED: BRANCH  17  18
DOCKED: ATOM     18  C32 UNL     1       5.327  -2.153   3.094 +0.00 +0.00    +0.234 C  
DOCKED: ATOM     19  O12 UNL     1       5.418  -1.183   3.839 +0.00 -0.00    -0.274 OA 
DOCKED: ATOM     20  N8  UNL     1       4.179  -2.486   2.405 +0.00 -0.00    -0.301 N  
DOCKED: ATOM     21  H55 UNL     1       4.353  -2.966   1.530 +0.00 +0.00    +0.150 HD 
DOCKED: BRANCH  20  22
DOCKED: ATOM     22  C33 UNL     1       3.056  -1.544   2.367 +0.00 +0.00    +0.186 C  
DOCKED: BRANCH  22  23
DOCKED: ATOM     23  C41 UNL     1       3.364  -0.401   1.394 +0.00 +0.00    +0.326 C  
DOCKED: ATOM     24  O13 UNL     1       3.459   0.790   1.654 +0.00 -0.00    -0.249 OA 
DOCKED: BRANCH  23  25
DOCKED: ATOM     25  O14 UNL     1       3.480  -0.821   0.114 +0.00 -0.00    -0.479 OA 
DOCKED: ATOM     26  H64 UNL     1       4.224  -1.458   0.153 +0.00 +0.00    +0.295 HD 
DOCKED: ENDBRANCH  23  25
DOCKED: ENDBRANCH  22  23
DOCKED: BRANCH  22  27
DOCKED: ATOM     27  C34 UNL     1       2.803  -0.897   3.740 +0.00 +0.00    +0.069 C  
DOCKED: BRANCH  27  28
DOCKED: ATOM     28  C35 UNL     1       2.667  -1.890   4.870 +0.00 -0.00    -0.045 A  
DOCKED: ATOM     29  C36 UNL     1       2.068  -3.139   4.647 +0.00 +0.00    +0.004 A  
DOCKED: ATOM     30  C37 UNL     1       1.915  -4.049   5.695 +0.00 +0.00    +0.000 A  
DOCKED: ATOM     31  C38 UNL     1       2.363  -3.721   6.972 +0.00 +0.00    +0.000 A  
DOCKED: ATOM     32  C39 UNL     1       2.965  -2.485   7.204 +0.00 +0.00    +0.000 A  
DOCKED: ATOM     33  C40 UNL     1       3.113  -1.572   6.159 +0.00 +0.00    +0.004 A  
DOCKED: ENDBRANCH  27  28
DOCKED: ENDBRANCH  22  27
DOCKED: ENDBRANCH  20  22
DOCKED: ENDBRANCH  17  18
DOCKED: BRANCH  17  34
DOCKED: ATOM     34  C29 UNL     1       7.794  -2.490   2.665 +0.00 +0.00    +0.043 C  
DOCKED: BRANCH  34  35
DOCKED: ATOM     35  C30 UNL     1       7.657  -1.137   1.963 +0.00 +0.00    +0.123 C  
DOCKED: BRANCH  35  36
DOCKED: ATOM     36  C31 UNL     1       7.103  -1.234   0.568 +0.00 +0.00    +0.305 C  
DOCKED: ATOM     37  O10 UNL     1       7.719  -1.011  -0.464 +0.00 -0.00    -0.251 OA 
DOCKED: BRANCH  36  38
DOCKED: ATOM     38  O11 UNL     1       5.798  -1.543   0.534 +0.00 -0.00    -0.481 OA 
DOCKED: ATOM     39  H54 UNL     1       5.577  -1.604  -0.419 +0.00 +0.00    +0.295 HD 
DOCKED: ENDBRANCH  36  38
DOCKED: ENDBRANCH  35  36
DOCKED: ENDBRANCH  34  35
DOCKED: ENDBRANCH  17  34
DOCKED: ENDBRANCH  15  17
DOCKED: ENDBRANCH  11  13
DOCKED: ENDBRANCH   9  11
DOCKED: ENDBRANCH   5   7
DOCKED: ENDBRANCH   4   5
DOCKED: ENDBRANCH   1   4
DOCKED: BRANCH   1  40
DOCKED: ATOM     40  C5  UNL     1       8.235  -2.777  -2.954 +0.00 +0.00    +0.102 C  
DOCKED: BRANCH  40  41
DOCKED: ATOM     41  N1  UNL     1       7.380  -1.584  -3.080 +0.00 -0.00    -0.308 N  
DOCKED: ATOM     42  C6  UNL     1       7.344  -0.728  -4.159 +0.00 +0.00    +0.234 C  
DOCKED: ATOM     43  O1  UNL     1       8.115  -0.816  -5.111 +0.00 -0.00    -0.274 OA 
DOCKED: ATOM     44  H11 UNL     1       6.672  -1.460  -2.362 +0.00 +0.00    +0.149 HD 
DOCKED: BRANCH  42  45
DOCKED: ATOM     45  C7  UNL     1       6.194   0.291  -4.123 +0.00 +0.00    +0.168 C  
DOCKED: BRANCH  45  46
DOCKED: ATOM     46  N3  UNL     1       4.920  -0.413  -4.252 +0.00 -0.00    -0.302 N  
DOCKED: ATOM     47  C10 UNL     1       4.074  -0.144  -5.307 +0.00 +0.00    +0.234 C  
DOCKED: ATOM     48  O3  UNL     1       4.361   0.643  -6.214 +0.00 -0.00    -0.274 OA 
DOCKED: ATOM     49  H17 UNL     1       4.840  -1.323  -3.815 +0.00 +0.00    +0.150 HD 
DOCKED: BRANCH  47  50
DOCKED: ATOM     50  C11 UNL     1       2.725  -0.900  -5.268 +0.00 +0.00    +0.161 C  
DOCKED: BRANCH  50  51
DOCKED: ATOM     51  N4  UNL     1       2.864  -1.968  -4.279 +0.00 -0.00    -0.302 N  
DOCKED: ATOM     52  C12 UNL     1       3.377  -3.188  -4.682 +0.00 +0.00    +0.230 C  
DOCKED: ATOM     53  O4  UNL     1       3.369  -3.560  -5.853 +0.00 -0.00    -0.274 OA 
DOCKED: ATOM     54  H19 UNL     1       3.142  -1.654  -3.359 +0.00 +0.00    +0.150 HD 
DOCKED: BRANCH  52  55
DOCKED: ATOM     55  C13 UNL     1       3.958  -4.062  -3.536 +0.00 +0.00    +0.138 C  
DOCKED: BRANCH  55  56
DOCKED: ATOM     56  N5  UNL     1       4.993  -3.299  -2.807 +0.00 -0.00    -0.320 NA 
DOCKED: ATOM     57  H21 UNL     1       4.522  -2.520  -2.337 +0.00 +0.00    +0.119 HD 
DOCKED: ATOM     58  H22 UNL     1       5.302  -3.874  -2.016 +0.00 +0.00    +0.119 HD 
DOCKED: ENDBRANCH  55  56
DOCKED: BRANCH  55  59
DOCKED: ATOM     59  C14 UNL     1       2.837  -4.494  -2.583 +0.00 +0.00    +0.039 C  
DOCKED: BRANCH  59  60
DOCKED: ATOM     60  C15 UNL     1       2.432  -3.425  -1.567 +0.00 +0.00    +0.122 C  
DOCKED: BRANCH  60  61
DOCKED: ATOM     61  C16 UNL     1       3.162  -3.643  -0.271 +0.00 +0.00    +0.305 C  
DOCKED: ATOM     62  O5  UNL     1       2.651  -4.001   0.779 +0.00 -0.00    -0.251 OA 
DOCKED: BRANCH  61  63
DOCKED: ATOM     63  O6  UNL     1       4.472  -3.345  -0.357 +0.00 -0.00    -0.481 OA 
DOCKED: ATOM     64  H27 UNL     1       4.520  -2.491  -0.858 +0.00 +0.00    +0.295 HD 
DOCKED: ENDBRANCH  61  63
DOCKED: ENDBRANCH  60  61
DOCKED: ENDBRANCH  59  60
DOCKED: ENDBRANCH  55  59
DOCKED: ENDBRANCH  52  55
DOCKED: ENDBRANCH  50  51
DOCKED: BRANCH  50  65
DOCKED: ATOM     65  C17 UNL     1       1.548   0.054  -4.976 +0.00 +0.00    +0.012 C  
DOCKED: ATOM     66  C18 UNL     1       0.308  -0.738  -4.548 +0.00 +0.00    +0.009 C  
DOCKED: ATOM     67  C19 UNL     1       1.868   1.119  -3.923 +0.00 +0.00    +0.009 C  
DOCKED: ENDBRANCH  50  65
DOCKED: ENDBRANCH  47  50
DOCKED: ENDBRANCH  45  46
DOCKED: BRANCH  45  68
DOCKED: ATOM     68  C8  UNL     1       6.288   1.050  -2.794 +0.00 +0.00    +0.127 C  
DOCKED: BRANCH  68  69
DOCKED: ATOM     69  C9  UNL     1       5.596   0.322  -1.667 +0.00 +0.00    +0.213 C  
DOCKED: ATOM     70  N2  UNL     1       5.567   1.012  -0.489 +0.00 -0.00    -0.329 N  
DOCKED: ATOM     71  O2  UNL     1       5.085  -0.789  -1.755 +0.00 -0.00    -0.276 OA 
DOCKED: ATOM     72  H15 UNL     1       5.133   0.564   0.308 +0.00 +0.00    +0.145 HD 
DOCKED: ATOM     73  H16 UNL     1       5.969   1.932  -0.367 +0.00 +0.00    +0.145 HD 
DOCKED: ENDBRANCH  68  69
DOCKED: ENDBRANCH  45  68
DOCKED: ENDBRANCH  42  45
DOCKED: ENDBRANCH  40  41
DOCKED: BRANCH  40  74
DOCKED: ATOM     74  C4  UNL     1       9.716  -2.334  -3.076 +0.00 +0.00    +0.028 C  
DOCKED: BRANCH  74  76
DOCKED: ATOM     75  C1  UNL     1      10.830  -1.809  -0.819 +0.00 +0.00    +0.007 C  
DOCKED: ATOM     76  C2  UNL     1      10.256  -1.246  -2.119 +0.00 -0.00    -0.015 C  
DOCKED: ATOM     77  C3  UNL     1      11.236  -0.276  -2.774 +0.00 +0.00    +0.007 C  
DOCKED: ENDBRANCH  74  76
DOCKED: ENDBRANCH  40  74
DOCKED: ENDBRANCH   1  40
DOCKED: TORSDOF 34
DOCKED: TER
DOCKED: ENDMDL
________________________________________________________________________________


    FINAL DOCKED STATE:
    ________________________


Run:   8 / 20
Time taken for this run:   5.922s

DOCKED: MODEL        8
DOCKED: USER    Run = 8
DOCKED: USER
DOCKED: USER    Estimated Free Energy of Binding    = +10.14 kcal/mol  [=(1)+(2)+(3)-(4)]
DOCKED: USER
DOCKED: USER    (1) Final Intermolecular Energy     =  +0.00 kcal/mol
DOCKED: USER        vdW + Hbond + desolv Energy     =  +0.00 kcal/mol
DOCKED: USER        Electrostatic Energy            =  +0.00 kcal/mol
DOCKED: USER        Moving Ligand-Fixed Receptor    =  +0.00 kcal/mol
DOCKED: USER        Moving Ligand-Moving Receptor   =  +0.00 kcal/mol
DOCKED: USER    (2) Final Total Internal Energy     = -30.76 kcal/mol
DOCKED: USER    (3) Torsional Free Energy           = +10.14 kcal/mol
DOCKED: USER    (4) Unbound System's Energy         = -30.76 kcal/mol
DOCKED: USER
DOCKED: USER
DOCKED: REMARK  Name = ligands/ligand_0.pdb
DOCKED: REMARK  40 active torsions:
DOCKED: REMARK  status: ('A' for Active; 'I' for Inactive)
DOCKED: REMARK    1  A    between atoms: C1_1  and  C2_2
DOCKED: REMARK    2  A    between atoms: C2_2  and  C3_3
DOCKED: REMARK    3  A    between atoms: C2_2  and  C4_4
DOCKED: REMARK    4  A    between atoms: C4_4  and  C5_5
DOCKED: REMARK    5  A    between atoms: C5_5  and  N1_6
DOCKED: REMARK    6  A    between atoms: C5_5  and  C20_31
DOCKED: REMARK    7  A    between atoms: C6_7  and  C7_9
DOCKED: REMARK    8  A    between atoms: C7_9  and  C8_10
DOCKED: REMARK    9  A    between atoms: C7_9  and  N3_14
DOCKED: REMARK   10  A    between atoms: C8_10  and  C9_11
DOCKED: REMARK   11  A    between atoms: C10_15  and  C11_17
DOCKED: REMARK   12  A    between atoms: C11_17  and  N4_18
DOCKED: REMARK   13  A    between atoms: C11_17  and  C17_28
DOCKED: REMARK   14  A    between atoms: C12_19  and  C13_21
DOCKED: REMARK   15  A    between atoms: C13_21  and  N5_22
DOCKED: REMARK   16  A    between atoms: C13_21  and  C14_23
DOCKED: REMARK   17  A    between atoms: C14_23  and  C15_24
DOCKED: REMARK   18  A    between atoms: C15_24  and  C16_25
DOCKED: REMARK   19  A    between atoms: C16_25  and  O6_27
DOCKED: REMARK   20  A    between atoms: C17_28  and  C18_29
DOCKED: REMARK   21  A    between atoms: C17_28  and  C19_30
DOCKED: REMARK   22  A    between atoms: C20_31  and  O7_32
DOCKED: REMARK   23  A    between atoms: C20_31  and  C21_33
DOCKED: REMARK   24  A    between atoms: C21_33  and  C22_34
DOCKED: REMARK   25  A    between atoms: C22_34  and  C23_35
DOCKED: REMARK   26  A    between atoms: C22_34  and  C24_36
DOCKED: REMARK   27  A    between atoms: N6_38  and  C25_39
DOCKED: REMARK   28  A    between atoms: C25_39  and  C26_40
DOCKED: REMARK   29  A    between atoms: C25_39  and  C27_41
DOCKED: REMARK   30  A    between atoms: N7_43  and  C28_44
DOCKED: REMARK   31  A    between atoms: C28_44  and  C29_45
DOCKED: REMARK   32  A    between atoms: C28_44  and  C32_50
DOCKED: REMARK   33  A    between atoms: C29_45  and  C30_46
DOCKED: REMARK   34  A    between atoms: C30_46  and  C31_47
DOCKED: REMARK   35  A    between atoms: C31_47  and  O11_49
DOCKED: REMARK   36  A    between atoms: N8_52  and  C33_53
DOCKED: REMARK   37  A    between atoms: C33_53  and  C34_54
DOCKED: REMARK   38  A    between atoms: C33_53  and  C41_61
DOCKED: REMARK   39  A    between atoms: C34_54  and  C35_55
DOCKED: REMARK   40  A    between atoms: C41_61  and  O14_63
DOCKED: REMARK                            x       y       z     vdW  Elec       q    Type
DOCKED: REMARK                         _______ _______ _______ _____ _____    ______ ____
DOCKED: USER                              x       y       z     vdW  Elec       q    Type
DOCKED: USER                           _______ _______ _______ _____ _____    ______ ____
DOCKED: ROOT
DOCKED: ATOM      1  C20 UNL     1      10.019  -7.283  -2.141 +0.00 +0.00    +0.135 C  
DOCKED: ENDROOT
DOCKED: BRANCH   1   2
DOCKED: ATOM      2  O7  UNL     1      10.221  -5.971  -1.626 +0.00 -0.00    -0.390 OA 
DOCKED: ATOM      3  H36 UNL     1       9.968  -5.322  -2.317 +0.00 +0.00    +0.210 HD 
DOCKED: ENDBRANCH   1   2
DOCKED: BRANCH   1   4
DOCKED: ATOM      4  C21 UNL     1       8.511  -7.591  -2.227 +0.00 +0.00    +0.045 C  
DOCKED: BRANCH   4   5
DOCKED: ATOM      5  C22 UNL     1       7.920  -8.532  -1.158 +0.00 +0.00    +0.074 C  
DOCKED: ATOM      6  C23 UNL     1       8.278  -9.993  -1.467 +0.00 +0.00    +0.017 C  
DOCKED: BRANCH   5   7
DOCKED: ATOM      7  C24 UNL     1       8.463  -8.199   0.236 +0.00 +0.00    +0.217 C  
DOCKED: ATOM      8  O8  UNL     1       8.529  -9.011   1.154 +0.00 -0.00    -0.276 OA 
DOCKED: ATOM      9  N6  UNL     1       8.837  -6.878   0.399 +0.00 -0.00    -0.304 N  
DOCKED: ATOM     10  H43 UNL     1       8.460  -6.217  -0.276 +0.00 +0.00    +0.149 HD 
DOCKED: BRANCH   9  11
DOCKED: ATOM     11  C25 UNL     1       9.081  -6.390   1.753 +0.00 +0.00    +0.156 C  
DOCKED: ATOM     12  C26 UNL     1      10.456  -6.821   2.246 +0.00 +0.00    +0.038 C  
DOCKED: BRANCH  11  13
DOCKED: ATOM     13  C27 UNL     1       8.974  -4.848   1.769 +0.00 +0.00    +0.234 C  
DOCKED: ATOM     14  O9  UNL     1       8.434  -4.224   2.687 +0.00 -0.00    -0.274 OA 
DOCKED: ATOM     15  N7  UNL     1       9.494  -4.228   0.654 +0.00 -0.00    -0.302 N  
DOCKED: ATOM     16  H48 UNL     1       9.674  -4.789  -0.174 +0.00 +0.00    +0.150 HD 
DOCKED: BRANCH  15  17
DOCKED: ATOM     17  C28 UNL     1       9.307  -2.800   0.422 +0.00 +0.00    +0.159 C  
DOCKED: BRANCH  17  18
DOCKED: ATOM     18  C32 UNL     1       9.514  -2.551  -1.085 +0.00 +0.00    +0.234 C  
DOCKED: ATOM     19  O12 UNL     1       9.896  -3.431  -1.850 +0.00 -0.00    -0.274 OA 
DOCKED: ATOM     20  N8  UNL     1       9.345  -1.233  -1.456 +0.00 -0.00    -0.301 N  
DOCKED: ATOM     21  H55 UNL     1       8.626  -0.750  -0.929 +0.00 +0.00    +0.150 HD 
DOCKED: BRANCH  20  22
DOCKED: ATOM     22  C33 UNL     1       9.409  -0.863  -2.874 +0.00 +0.00    +0.186 C  
DOCKED: BRANCH  22  23
DOCKED: ATOM     23  C41 UNL     1       8.845  -1.996  -3.737 +0.00 +0.00    +0.326 C  
DOCKED: ATOM     24  O13 UNL     1       7.670  -2.296  -3.894 +0.00 -0.00    -0.249 OA 
DOCKED: BRANCH  23  25
DOCKED: ATOM     25  O14 UNL     1       9.812  -2.739  -4.322 +0.00 -0.00    -0.479 OA 
DOCKED: ATOM     26  H64 UNL     1      10.180  -3.256  -3.575 +0.00 +0.00    +0.295 HD 
DOCKED: ENDBRANCH  23  25
DOCKED: ENDBRANCH  22  23
DOCKED: BRANCH  22  27
DOCKED: ATOM     27  C34 UNL     1      10.856  -0.631  -3.341 +0.00 +0.00    +0.069 C  
DOCKED: BRANCH  27  28
DOCKED: ATOM     28  C35 UNL     1      11.731   0.049  -2.315 +0.00 -0.00    -0.045 A  
DOCKED: ATOM     29  C36 UNL     1      13.101  -0.245  -2.246 +0.00 +0.00    +0.004 A  
DOCKED: ATOM     30  C37 UNL     1      13.909   0.360  -1.281 +0.00 +0.00    +0.000 A  
DOCKED: ATOM     31  C38 UNL     1      13.356   1.268  -0.381 +0.00 +0.00    +0.000 A  
DOCKED: ATOM     32  C39 UNL     1      11.997   1.572  -0.444 +0.00 +0.00    +0.000 A  
DOCKED: ATOM     33  C40 UNL     1      11.187   0.963  -1.403 +0.00 +0.00    +0.004 A  
DOCKED: ENDBRANCH  27  28
DOCKED: ENDBRANCH  22  27
DOCKED: ENDBRANCH  20  22
DOCKED: ENDBRANCH  17  18
DOCKED: BRANCH  17  34
DOCKED: ATOM     34  C29 UNL     1      10.328  -1.999   1.242 +0.00 +0.00    +0.043 C  
DOCKED: BRANCH  34  35
DOCKED: ATOM     35  C30 UNL     1      11.671  -2.706   1.438 +0.00 +0.00    +0.123 C  
DOCKED: BRANCH  35  36
DOCKED: ATOM     36  C31 UNL     1      12.294  -3.183   0.155 +0.00 +0.00    +0.305 C  
DOCKED: ATOM     37  O10 UNL     1      13.100  -2.562  -0.523 +0.00 -0.00    -0.251 OA 
DOCKED: BRANCH  36  38
DOCKED: ATOM     38  O11 UNL     1      11.836  -4.378  -0.248 +0.00 -0.00    -0.481 OA 
DOCKED: ATOM     39  H54 UNL     1      11.473  -4.221  -1.144 +0.00 +0.00    +0.295 HD 
DOCKED: ENDBRANCH  36  38
DOCKED: ENDBRANCH  35  36
DOCKED: ENDBRANCH  34  35
DOCKED: ENDBRANCH  17  34
DOCKED: ENDBRANCH  15  17
DOCKED: ENDBRANCH  11  13
DOCKED: ENDBRANCH   9  11
DOCKED: ENDBRANCH   5   7
DOCKED: ENDBRANCH   4   5
DOCKED: ENDBRANCH   1   4
DOCKED: BRANCH   1  40
DOCKED: ATOM     40  C5  UNL     1      10.883  -7.614  -3.390 +0.00 +0.00    +0.102 C  
DOCKED: BRANCH  40  41
DOCKED: ATOM     41  N1  UNL     1      11.428  -6.447  -4.105 +0.00 -0.00    -0.308 N  
DOCKED: ATOM     42  C6  UNL     1      12.263  -6.490  -5.200 +0.00 +0.00    +0.234 C  
DOCKED: ATOM     43  O1  UNL     1      12.734  -7.533  -5.644 +0.00 -0.00    -0.274 OA 
DOCKED: ATOM     44  H11 UNL     1      11.052  -5.541  -3.840 +0.00 +0.00    +0.149 HD 
DOCKED: BRANCH  42  45
DOCKED: ATOM     45  C7  UNL     1      12.482  -5.132  -5.885 +0.00 +0.00    +0.168 C  
DOCKED: BRANCH  45  46
DOCKED: ATOM     46  N3  UNL     1      11.189  -4.484  -6.101 +0.00 -0.00    -0.302 N  
DOCKED: ATOM     47  C10 UNL     1      10.698  -4.310  -7.377 +0.00 +0.00    +0.234 C  
DOCKED: ATOM     48  O3  UNL     1      11.277  -4.731  -8.384 +0.00 -0.00    -0.274 OA 
DOCKED: ATOM     49  H17 UNL     1      10.515  -4.518  -5.346 +0.00 +0.00    +0.150 HD 
DOCKED: BRANCH  47  50
DOCKED: ATOM     50  C11 UNL     1       9.362  -3.534  -7.459 +0.00 +0.00    +0.161 C  
DOCKED: BRANCH  50  51
DOCKED: ATOM     51  N4  UNL     1       8.584  -3.900  -6.276 +0.00 -0.00    -0.302 N  
DOCKED: ATOM     52  C12 UNL     1       8.294  -5.234  -6.055 +0.00 +0.00    +0.230 C  
DOCKED: ATOM     53  O4  UNL     1       8.310  -6.077  -6.950 +0.00 -0.00    -0.274 OA 
DOCKED: ATOM     54  H19 UNL     1       8.790  -3.350  -5.452 +0.00 +0.00    +0.150 HD 
DOCKED: BRANCH  52  55
DOCKED: ATOM     55  C13 UNL     1       7.935  -5.589  -4.585 +0.00 +0.00    +0.138 C  
DOCKED: BRANCH  55  56
DOCKED: ATOM     56  N5  UNL     1       8.952  -5.019  -3.675 +0.00 -0.00    -0.320 NA 
DOCKED: ATOM     57  H21 UNL     1       9.708  -4.649  -4.259 +0.00 +0.00    +0.119 HD 
DOCKED: ATOM     58  H22 UNL     1       8.556  -4.167  -3.265 +0.00 +0.00    +0.119 HD 
DOCKED: ENDBRANCH  55  56
DOCKED: BRANCH  55  59
DOCKED: ATOM     59  C14 UNL     1       6.542  -5.051  -4.239 +0.00 +0.00    +0.039 C  
DOCKED: BRANCH  59  60
DOCKED: ATOM     60  C15 UNL     1       6.089  -5.359  -2.811 +0.00 +0.00    +0.122 C  
DOCKED: BRANCH  60  61
DOCKED: ATOM     61  C16 UNL     1       6.784  -4.444  -1.841 +0.00 +0.00    +0.305 C  
DOCKED: ATOM     62  O5  UNL     1       6.419  -3.317  -1.543 +0.00 -0.00    -0.251 OA 
DOCKED: BRANCH  61  63
DOCKED: ATOM     63  O6  UNL     1       7.920  -4.974  -1.351 +0.00 -0.00    -0.481 OA 
DOCKED: ATOM     64  H27 UNL     1       8.653  -4.583  -1.890 +0.00 +0.00    +0.295 HD 
DOCKED: ENDBRANCH  61  63
DOCKED: ENDBRANCH  60  61
DOCKED: ENDBRANCH  59  60
DOCKED: ENDBRANCH  55  59
DOCKED: ENDBRANCH  52  55
DOCKED: ENDBRANCH  50  51
DOCKED: BRANCH  50  65
DOCKED: ATOM     65  C17 UNL     1       9.594  -2.014  -7.592 +0.00 +0.00    +0.012 C  
DOCKED: ATOM     66  C18 UNL     1       8.396  -1.237  -7.037 +0.00 +0.00    +0.009 C  
DOCKED: ATOM     67  C19 UNL     1      10.880  -1.529  -6.916 +0.00 +0.00    +0.009 C  
DOCKED: ENDBRANCH  50  65
DOCKED: ENDBRANCH  47  50
DOCKED: ENDBRANCH  45  46
DOCKED: BRANCH  45  68
DOCKED: ATOM     68  C8  UNL     1      13.387  -4.293  -4.974 +0.00 +0.00    +0.127 C  
DOCKED: BRANCH  68  69
DOCKED: ATOM     69  C9  UNL     1      12.796  -4.098  -3.599 +0.00 +0.00    +0.213 C  
DOCKED: ATOM     70  N2  UNL     1      13.721  -3.919  -2.612 +0.00 -0.00    -0.329 N  
DOCKED: ATOM     71  O2  UNL     1      11.597  -4.087  -3.344 +0.00 -0.00    -0.276 OA 
DOCKED: ATOM     72  H15 UNL     1      13.383  -3.803  -1.665 +0.00 +0.00    +0.145 HD 
DOCKED: ATOM     73  H16 UNL     1      14.720  -3.915  -2.771 +0.00 +0.00    +0.145 HD 
DOCKED: ENDBRANCH  68  69
DOCKED: ENDBRANCH  45  68
DOCKED: ENDBRANCH  42  45
DOCKED: ENDBRANCH  40  41
DOCKED: BRANCH  40  74
DOCKED: ATOM     74  C4  UNL     1      12.043  -8.606  -3.116 +0.00 +0.00    +0.028 C  
DOCKED: BRANCH  74  76
DOCKED: ATOM     75  C1  UNL     1      13.268  -7.001  -1.524 +0.00 +0.00    +0.007 C  
DOCKED: ATOM     76  C2  UNL     1      12.876  -8.449  -1.823 +0.00 -0.00    -0.015 C  
DOCKED: ATOM     77  C3  UNL     1      12.249  -9.109  -0.597 +0.00 +0.00    +0.007 C  
DOCKED: ENDBRANCH  74  76
DOCKED: ENDBRANCH  40  74
DOCKED: ENDBRANCH   1  40
DOCKED: TORSDOF 34
DOCKED: TER
DOCKED: ENDMDL
________________________________________________________________________________


    FINAL DOCKED STATE:
    ________________________


Run:   9 / 20
Time taken for this run:   5.922s

DOCKED: MODEL        9
DOCKED: USER    Run = 9
DOCKED: USER
DOCKED: USER    Estimated Free Energy of Binding    = +10.14 kcal/mol  [=(1)+(2)+(3)-(4)]
DOCKED: USER
DOCKED: USER    (1) Final Intermolecular Energy     =  +0.00 kcal/mol
DOCKED: USER        vdW + Hbond + desolv Energy     =  +0.00 kcal/mol
DOCKED: USER        Electrostatic Energy            =  +0.00 kcal/mol
DOCKED: USER        Moving Ligand-Fixed Receptor    =  +0.00 kcal/mol
DOCKED: USER        Moving Ligand-Moving Receptor   =  +0.00 kcal/mol
DOCKED: USER    (2) Final Total Internal Energy     = -31.39 kcal/mol
DOCKED: USER    (3) Torsional Free Energy           = +10.14 kcal/mol
DOCKED: USER    (4) Unbound System's Energy         = -31.39 kcal/mol
DOCKED: USER
DOCKED: USER
DOCKED: REMARK  Name = ligands/ligand_0.pdb
DOCKED: REMARK  40 active torsions:
DOCKED: REMARK  status: ('A' for Active; 'I' for Inactive)
DOCKED: REMARK    1  A    between atoms: C1_1  and  C2_2
DOCKED: REMARK    2  A    between atoms: C2_2  and  C3_3
DOCKED: REMARK    3  A    between atoms: C2_2  and  C4_4
DOCKED: REMARK    4  A    between atoms: C4_4  and  C5_5
DOCKED: REMARK    5  A    between atoms: C5_5  and  N1_6
DOCKED: REMARK    6  A    between atoms: C5_5  and  C20_31
DOCKED: REMARK    7  A    between atoms: C6_7  and  C7_9
DOCKED: REMARK    8  A    between atoms: C7_9  and  C8_10
DOCKED: REMARK    9  A    between atoms: C7_9  and  N3_14
DOCKED: REMARK   10  A    between atoms: C8_10  and  C9_11
DOCKED: REMARK   11  A    between atoms: C10_15  and  C11_17
DOCKED: REMARK   12  A    between atoms: C11_17  and  N4_18
DOCKED: REMARK   13  A    between atoms: C11_17  and  C17_28
DOCKED: REMARK   14  A    between atoms: C12_19  and  C13_21
DOCKED: REMARK   15  A    between atoms: C13_21  and  N5_22
DOCKED: REMARK   16  A    between atoms: C13_21  and  C14_23
DOCKED: REMARK   17  A    between atoms: C14_23  and  C15_24
DOCKED: REMARK   18  A    between atoms: C15_24  and  C16_25
DOCKED: REMARK   19  A    between atoms: C16_25  and  O6_27
DOCKED: REMARK   20  A    between atoms: C17_28  and  C18_29
DOCKED: REMARK   21  A    between atoms: C17_28  and  C19_30
DOCKED: REMARK   22  A    between atoms: C20_31  and  O7_32
DOCKED: REMARK   23  A    between atoms: C20_31  and  C21_33
DOCKED: REMARK   24  A    between atoms: C21_33  and  C22_34
DOCKED: REMARK   25  A    between atoms: C22_34  and  C23_35
DOCKED: REMARK   26  A    between atoms: C22_34  and  C24_36
DOCKED: REMARK   27  A    between atoms: N6_38  and  C25_39
DOCKED: REMARK   28  A    between atoms: C25_39  and  C26_40
DOCKED: REMARK   29  A    between atoms: C25_39  and  C27_41
DOCKED: REMARK   30  A    between atoms: N7_43  and  C28_44
DOCKED: REMARK   31  A    between atoms: C28_44  and  C29_45
DOCKED: REMARK   32  A    between atoms: C28_44  and  C32_50
DOCKED: REMARK   33  A    between atoms: C29_45  and  C30_46
DOCKED: REMARK   34  A    between atoms: C30_46  and  C31_47
DOCKED: REMARK   35  A    between atoms: C31_47  and  O11_49
DOCKED: REMARK   36  A    between atoms: N8_52  and  C33_53
DOCKED: REMARK   37  A    between atoms: C33_53  and  C34_54
DOCKED: REMARK   38  A    between atoms: C33_53  and  C41_61
DOCKED: REMARK   39  A    between atoms: C34_54  and  C35_55
DOCKED: REMARK   40  A    between atoms: C41_61  and  O14_63
DOCKED: REMARK                            x       y       z     vdW  Elec       q    Type
DOCKED: REMARK                         _______ _______ _______ _____ _____    ______ ____
DOCKED: USER                              x       y       z     vdW  Elec       q    Type
DOCKED: USER                           _______ _______ _______ _____ _____    ______ ____
DOCKED: ROOT
DOCKED: ATOM      1  C20 UNL     1       5.628  -5.082  -1.284 +0.00 +0.00    +0.135 C  
DOCKED: ENDROOT
DOCKED: BRANCH   1   2
DOCKED: ATOM      2  O7  UNL     1       5.166  -3.741  -1.415 +0.00 -0.00    -0.390 OA 
DOCKED: ATOM      3  H36 UNL     1       5.540  -3.209  -0.680 +0.00 +0.00    +0.210 HD 
DOCKED: ENDBRANCH   1   2
DOCKED: BRANCH   1   4
DOCKED: ATOM      4  C21 UNL     1       4.438  -6.060  -1.351 +0.00 +0.00    +0.045 C  
DOCKED: BRANCH   4   5
DOCKED: ATOM      5  C22 UNL     1       3.448  -6.048  -0.170 +0.00 +0.00    +0.074 C  
DOCKED: ATOM      6  C23 UNL     1       3.137  -7.481   0.288 +0.00 +0.00    +0.017 C  
DOCKED: BRANCH   5   7
DOCKED: ATOM      7  C24 UNL     1       4.022  -5.286   1.030 +0.00 +0.00    +0.217 C  
DOCKED: ATOM      8  O8  UNL     1       4.382  -4.114   0.984 +0.00 -0.00    -0.276 OA 
DOCKED: ATOM      9  N6  UNL     1       4.152  -6.047   2.177 +0.00 -0.00    -0.304 N  
DOCKED: ATOM     10  H43 UNL     1       4.141  -7.056   2.051 +0.00 +0.00    +0.149 HD 
DOCKED: BRANCH   9  11
DOCKED: ATOM     11  C25 UNL     1       4.954  -5.515   3.273 +0.00 +0.00    +0.156 C  
DOCKED: ATOM     12  C26 UNL     1       6.308  -5.033   2.771 +0.00 +0.00    +0.038 C  
DOCKED: BRANCH  11  13
DOCKED: ATOM     13  C27 UNL     1       4.194  -4.348   3.945 +0.00 +0.00    +0.234 C  
DOCKED: ATOM     14  O9  UNL     1       3.282  -4.522   4.758 +0.00 -0.00    -0.274 OA 
DOCKED: ATOM     15  N7  UNL     1       4.591  -3.095   3.532 +0.00 -0.00    -0.302 N  
DOCKED: ATOM     16  H48 UNL     1       5.141  -3.017   2.681 +0.00 +0.00    +0.150 HD 
DOCKED: BRANCH  15  17
DOCKED: ATOM     17  C28 UNL     1       3.854  -1.898   3.922 +0.00 +0.00    +0.159 C  
DOCKED: BRANCH  17  18
DOCKED: ATOM     18  C32 UNL     1       2.665  -1.756   2.950 +0.00 +0.00    +0.234 C  
DOCKED: ATOM     19  O12 UNL     1       1.553  -1.393   3.321 +0.00 -0.00    -0.274 OA 
DOCKED: ATOM     20  N8  UNL     1       2.943  -2.186   1.670 +0.00 -0.00    -0.301 N  
DOCKED: ATOM     21  H55 UNL     1       3.897  -2.006   1.377 +0.00 +0.00    +0.150 HD 
DOCKED: BRANCH  20  22
DOCKED: ATOM     22  C33 UNL     1       1.942  -2.017   0.612 +0.00 +0.00    +0.186 C  
DOCKED: BRANCH  22  23
DOCKED: ATOM     23  C41 UNL     1       2.628  -1.978  -0.758 +0.00 +0.00    +0.326 C  
DOCKED: ATOM     24  O13 UNL     1       2.107  -2.127  -1.854 +0.00 -0.00    -0.249 OA 
DOCKED: BRANCH  23  25
DOCKED: ATOM     25  O14 UNL     1       3.966  -1.806  -0.667 +0.00 -0.00    -0.479 OA 
DOCKED: ATOM     26  H64 UNL     1       4.229  -2.447   0.026 +0.00 +0.00    +0.295 HD 
DOCKED: ENDBRANCH  23  25
DOCKED: ENDBRANCH  22  23
DOCKED: BRANCH  22  27
DOCKED: ATOM     27  C34 UNL     1       1.173  -0.692   0.757 +0.00 +0.00    +0.069 C  
DOCKED: BRANCH  27  28
DOCKED: ATOM     28  C35 UNL     1       1.954   0.523   0.313 +0.00 -0.00    -0.045 A  
DOCKED: ATOM     29  C36 UNL     1       2.964   1.053   1.131 +0.00 +0.00    +0.004 A  
DOCKED: ATOM     30  C37 UNL     1       3.668   2.192   0.738 +0.00 +0.00    +0.000 A  
DOCKED: ATOM     31  C38 UNL     1       3.376   2.808  -0.477 +0.00 +0.00    +0.000 A  
DOCKED: ATOM     32  C39 UNL     1       2.379   2.285  -1.301 +0.00 +0.00    +0.000 A  
DOCKED: ATOM     33  C40 UNL     1       1.668   1.150  -0.906 +0.00 +0.00    +0.004 A  
DOCKED: ENDBRANCH  27  28
DOCKED: ENDBRANCH  22  27
DOCKED: ENDBRANCH  20  22
DOCKED: ENDBRANCH  17  18
DOCKED: BRANCH  17  34
DOCKED: ATOM     34  C29 UNL     1       4.769  -0.668   3.829 +0.00 +0.00    +0.043 C  
DOCKED: BRANCH  34  35
DOCKED: ATOM     35  C30 UNL     1       6.060  -0.902   3.042 +0.00 +0.00    +0.123 C  
DOCKED: BRANCH  35  36
DOCKED: ATOM     36  C31 UNL     1       5.836  -1.141   1.574 +0.00 +0.00    +0.305 C  
DOCKED: ATOM     37  O10 UNL     1       5.467  -0.306   0.761 +0.00 -0.00    -0.251 OA 
DOCKED: BRANCH  36  38
DOCKED: ATOM     38  O11 UNL     1       6.022  -2.418   1.207 +0.00 -0.00    -0.481 OA 
DOCKED: ATOM     39  H54 UNL     1       5.794  -2.444   0.254 +0.00 +0.00    +0.295 HD 
DOCKED: ENDBRANCH  36  38
DOCKED: ENDBRANCH  35  36
DOCKED: ENDBRANCH  34  35
DOCKED: ENDBRANCH  17  34
DOCKED: ENDBRANCH  15  17
DOCKED: ENDBRANCH  11  13
DOCKED: ENDBRANCH   9  11
DOCKED: ENDBRANCH   5   7
DOCKED: ENDBRANCH   4   5
DOCKED: ENDBRANCH   1   4
DOCKED: BRANCH   1  40
DOCKED: ATOM     40  C5  UNL     1       6.869  -5.414  -2.160 +0.00 +0.00    +0.102 C  
DOCKED: BRANCH  40  41
DOCKED: ATOM     41  N1  UNL     1       7.770  -4.280  -2.430 +0.00 -0.00    -0.308 N  
DOCKED: ATOM     42  C6  UNL     1       8.150  -3.318  -1.521 +0.00 +0.00    +0.234 C  
DOCKED: ATOM     43  O1  UNL     1       7.683  -3.245  -0.387 +0.00 -0.00    -0.274 OA 
DOCKED: ATOM     44  H11 UNL     1       8.245  -4.286  -3.329 +0.00 +0.00    +0.149 HD 
DOCKED: BRANCH  42  45
DOCKED: ATOM     45  C7  UNL     1       9.279  -2.395  -2.005 +0.00 +0.00    +0.168 C  
DOCKED: BRANCH  45  46
DOCKED: ATOM     46  N3  UNL     1       8.750  -1.464  -3.001 +0.00 -0.00    -0.302 N  
DOCKED: ATOM     47  C10 UNL     1       8.721  -1.808  -4.335 +0.00 +0.00    +0.234 C  
DOCKED: ATOM     48  O3  UNL     1       9.076  -2.915  -4.752 +0.00 -0.00    -0.274 OA 
DOCKED: ATOM     49  H17 UNL     1       8.083  -0.770  -2.686 +0.00 +0.00    +0.150 HD 
DOCKED: BRANCH  47  50
DOCKED: ATOM     50  C11 UNL     1       8.216  -0.694  -5.283 +0.00 +0.00    +0.161 C  
DOCKED: BRANCH  50  51
DOCKED: ATOM     51  N4  UNL     1       6.793  -0.509  -5.001 +0.00 -0.00    -0.302 N  
DOCKED: ATOM     52  C12 UNL     1       5.912  -1.526  -5.323 +0.00 +0.00    +0.230 C  
DOCKED: ATOM     53  O4  UNL     1       6.172  -2.395  -6.153 +0.00 -0.00    -0.274 OA 
DOCKED: ATOM     54  H19 UNL     1       6.596  -0.008  -4.146 +0.00 +0.00    +0.150 HD 
DOCKED: BRANCH  52  55
DOCKED: ATOM     55  C13 UNL     1       4.559  -1.483  -4.560 +0.00 +0.00    +0.138 C  
DOCKED: BRANCH  55  56
DOCKED: ATOM     56  N5  UNL     1       4.576  -2.475  -3.464 +0.00 -0.00    -0.320 NA 
DOCKED: ATOM     57  H21 UNL     1       5.557  -2.648  -3.226 +0.00 +0.00    +0.119 HD 
DOCKED: ATOM     58  H22 UNL     1       4.227  -2.009  -2.620 +0.00 +0.00    +0.119 HD 
DOCKED: ENDBRANCH  55  56
DOCKED: BRANCH  55  59
DOCKED: ATOM     59  C14 UNL     1       4.311  -0.075  -4.007 +0.00 +0.00    +0.039 C  
DOCKED: BRANCH  59  60
DOCKED: ATOM     60  C15 UNL     1       4.438   0.032  -2.487 +0.00 +0.00    +0.122 C  
DOCKED: BRANCH  60  61
DOCKED: ATOM     61  C16 UNL     1       5.874  -0.142  -2.075 +0.00 +0.00    +0.305 C  
DOCKED: ATOM     62  O5  UNL     1       6.726   0.733  -2.088 +0.00 -0.00    -0.251 OA 
DOCKED: BRANCH  61  63
DOCKED: ATOM     63  O6  UNL     1       6.163  -1.410  -1.729 +0.00 -0.00    -0.481 OA 
DOCKED: ATOM     64  H27 UNL     1       5.569  -1.621  -0.965 +0.00 +0.00    +0.295 HD 
DOCKED: ENDBRANCH  61  63
DOCKED: ENDBRANCH  60  61
DOCKED: ENDBRANCH  59  60
DOCKED: ENDBRANCH  55  59
DOCKED: ENDBRANCH  52  55
DOCKED: ENDBRANCH  50  51
DOCKED: BRANCH  50  65
DOCKED: ATOM     65  C17 UNL     1       9.042   0.600  -5.129 +0.00 +0.00    +0.012 C  
DOCKED: ATOM     66  C18 UNL     1       8.291   1.619  -4.266 +0.00 +0.00    +0.009 C  
DOCKED: ATOM     67  C19 UNL     1      10.442   0.369  -4.552 +0.00 +0.00    +0.009 C  
DOCKED: ENDBRANCH  50  65
DOCKED: ENDBRANCH  47  50
DOCKED: ENDBRANCH  45  46
DOCKED: BRANCH  45  68
DOCKED: ATOM     68  C8  UNL     1       9.833  -1.657  -0.780 +0.00 +0.00    +0.127 C  
DOCKED: BRANCH  68  69
DOCKED: ATOM     69  C9  UNL     1       9.186  -0.307  -0.582 +0.00 +0.00    +0.213 C  
DOCKED: ATOM     70  N2  UNL     1       7.895  -0.364  -0.143 +0.00 -0.00    -0.329 N  
DOCKED: ATOM     71  O2  UNL     1       9.734   0.771  -0.780 +0.00 -0.00    -0.276 OA 
DOCKED: ATOM     72  H15 UNL     1       7.403   0.511  -0.011 +0.00 +0.00    +0.145 HD 
DOCKED: ATOM     73  H16 UNL     1       7.401  -1.227   0.040 +0.00 +0.00    +0.145 HD 
DOCKED: ENDBRANCH  68  69
DOCKED: ENDBRANCH  45  68
DOCKED: ENDBRANCH  42  45
DOCKED: ENDBRANCH  40  41
DOCKED: BRANCH  40  74
DOCKED: ATOM     74  C4  UNL     1       7.718  -6.600  -1.635 +0.00 +0.00    +0.028 C  
DOCKED: BRANCH  74  76
DOCKED: ATOM     75  C1  UNL     1       7.762  -8.392   0.210 +0.00 +0.00    +0.007 C  
DOCKED: ATOM     76  C2  UNL     1       7.736  -6.898  -0.117 +0.00 -0.00    -0.015 C  
DOCKED: ATOM     77  C3  UNL     1       8.827  -6.152   0.647 +0.00 +0.00    +0.007 C  
DOCKED: ENDBRANCH  74  76
DOCKED: ENDBRANCH  40  74
DOCKED: ENDBRANCH   1  40
DOCKED: TORSDOF 34
DOCKED: TER
DOCKED: ENDMDL
________________________________________________________________________________


    FINAL DOCKED STATE:
    ________________________


Run:   10 / 20
Time taken for this run:   5.922s

DOCKED: MODEL        10
DOCKED: USER    Run = 10
DOCKED: USER
DOCKED: USER    Estimated Free Energy of Binding    = +10.14 kcal/mol  [=(1)+(2)+(3)-(4)]
DOCKED: USER
DOCKED: USER    (1) Final Intermolecular Energy     =  +0.00 kcal/mol
DOCKED: USER        vdW + Hbond + desolv Energy     =  +0.00 kcal/mol
DOCKED: USER        Electrostatic Energy            =  +0.00 kcal/mol
DOCKED: USER        Moving Ligand-Fixed Receptor    =  +0.00 kcal/mol
DOCKED: USER        Moving Ligand-Moving Receptor   =  +0.00 kcal/mol
DOCKED: USER    (2) Final Total Internal Energy     = -29.70 kcal/mol
DOCKED: USER    (3) Torsional Free Energy           = +10.14 kcal/mol
DOCKED: USER    (4) Unbound System's Energy         = -29.70 kcal/mol
DOCKED: USER
DOCKED: USER
DOCKED: REMARK  Name = ligands/ligand_0.pdb
DOCKED: REMARK  40 active torsions:
DOCKED: REMARK  status: ('A' for Active; 'I' for Inactive)
DOCKED: REMARK    1  A    between atoms: C1_1  and  C2_2
DOCKED: REMARK    2  A    between atoms: C2_2  and  C3_3
DOCKED: REMARK    3  A    between atoms: C2_2  and  C4_4
DOCKED: REMARK    4  A    between atoms: C4_4  and  C5_5
DOCKED: REMARK    5  A    between atoms: C5_5  and  N1_6
DOCKED: REMARK    6  A    between atoms: C5_5  and  C20_31
DOCKED: REMARK    7  A    between atoms: C6_7  and  C7_9
DOCKED: REMARK    8  A    between atoms: C7_9  and  C8_10
DOCKED: REMARK    9  A    between atoms: C7_9  and  N3_14
DOCKED: REMARK   10  A    between atoms: C8_10  and  C9_11
DOCKED: REMARK   11  A    between atoms: C10_15  and  C11_17
DOCKED: REMARK   12  A    between atoms: C11_17  and  N4_18
DOCKED: REMARK   13  A    between atoms: C11_17  and  C17_28
DOCKED: REMARK   14  A    between atoms: C12_19  and  C13_21
DOCKED: REMARK   15  A    between atoms: C13_21  and  N5_22
DOCKED: REMARK   16  A    between atoms: C13_21  and  C14_23
DOCKED: REMARK   17  A    between atoms: C14_23  and  C15_24
DOCKED: REMARK   18  A    between atoms: C15_24  and  C16_25
DOCKED: REMARK   19  A    between atoms: C16_25  and  O6_27
DOCKED: REMARK   20  A    between atoms: C17_28  and  C18_29
DOCKED: REMARK   21  A    between atoms: C17_28  and  C19_30
DOCKED: REMARK   22  A    between atoms: C20_31  and  O7_32
DOCKED: REMARK   23  A    between atoms: C20_31  and  C21_33
DOCKED: REMARK   24  A    between atoms: C21_33  and  C22_34
DOCKED: REMARK   25  A    between atoms: C22_34  and  C23_35
DOCKED: REMARK   26  A    between atoms: C22_34  and  C24_36
DOCKED: REMARK   27  A    between atoms: N6_38  and  C25_39
DOCKED: REMARK   28  A    between atoms: C25_39  and  C26_40
DOCKED: REMARK   29  A    between atoms: C25_39  and  C27_41
DOCKED: REMARK   30  A    between atoms: N7_43  and  C28_44
DOCKED: REMARK   31  A    between atoms: C28_44  and  C29_45
DOCKED: REMARK   32  A    between atoms: C28_44  and  C32_50
DOCKED: REMARK   33  A    between atoms: C29_45  and  C30_46
DOCKED: REMARK   34  A    between atoms: C30_46  and  C31_47
DOCKED: REMARK   35  A    between atoms: C31_47  and  O11_49
DOCKED: REMARK   36  A    between atoms: N8_52  and  C33_53
DOCKED: REMARK   37  A    between atoms: C33_53  and  C34_54
DOCKED: REMARK   38  A    between atoms: C33_53  and  C41_61
DOCKED: REMARK   39  A    between atoms: C34_54  and  C35_55
DOCKED: REMARK   40  A    between atoms: C41_61  and  O14_63
DOCKED: REMARK                            x       y       z     vdW  Elec       q    Type
DOCKED: REMARK                         _______ _______ _______ _____ _____    ______ ____
DOCKED: USER                              x       y       z     vdW  Elec       q    Type
DOCKED: USER                           _______ _______ _______ _____ _____    ______ ____
DOCKED: ROOT
DOCKED: ATOM      1  C20 UNL     1       8.504 -10.230   2.053 +0.00 +0.00    +0.135 C  
DOCKED: ENDROOT
DOCKED: BRANCH   1   2
DOCKED: ATOM      2  O7  UNL     1       7.750  -9.190   2.670 +0.00 -0.00    -0.390 OA 
DOCKED: ATOM      3  H36 UNL     1       8.259  -8.849   3.436 +0.00 +0.00    +0.210 HD 
DOCKED: ENDBRANCH   1   2
DOCKED: BRANCH   1   4
DOCKED: ATOM      4  C21 UNL     1       7.556 -11.317   1.506 +0.00 +0.00    +0.045 C  
DOCKED: BRANCH   4   5
DOCKED: ATOM      5  C22 UNL     1       6.989 -11.110   0.088 +0.00 +0.00    +0.074 C  
DOCKED: ATOM      6  C23 UNL     1       6.475 -12.438  -0.487 +0.00 +0.00    +0.017 C  
DOCKED: BRANCH   5   7
DOCKED: ATOM      7  C24 UNL     1       5.820 -10.119   0.096 +0.00 +0.00    +0.217 C  
DOCKED: ATOM      8  O8  UNL     1       5.331  -9.631  -0.918 +0.00 -0.00    -0.276 OA 
DOCKED: ATOM      9  N6  UNL     1       5.379  -9.772   1.360 +0.00 -0.00    -0.304 N  
DOCKED: ATOM     10  H43 UNL     1       6.022  -9.955   2.127 +0.00 +0.00    +0.149 HD 
DOCKED: BRANCH   9  11
DOCKED: ATOM     11  C25 UNL     1       4.486  -8.625   1.491 +0.00 +0.00    +0.156 C  
DOCKED: ATOM     12  C26 UNL     1       4.369  -8.192   2.947 +0.00 +0.00    +0.038 C  
DOCKED: BRANCH  11  13
DOCKED: ATOM     13  C27 UNL     1       5.024  -7.456   0.634 +0.00 +0.00    +0.234 C  
DOCKED: ATOM     14  O9  UNL     1       4.465  -7.068  -0.395 +0.00 -0.00    -0.274 OA 
DOCKED: ATOM     15  N7  UNL     1       6.202  -6.909   1.092 +0.00 -0.00    -0.302 N  
DOCKED: ATOM     16  H48 UNL     1       6.749  -7.431   1.769 +0.00 +0.00    +0.150 HD 
DOCKED: BRANCH  15  17
DOCKED: ATOM     17  C28 UNL     1       6.942  -5.929   0.301 +0.00 +0.00    +0.159 C  
DOCKED: BRANCH  17  18
DOCKED: ATOM     18  C32 UNL     1       7.632  -6.695  -0.845 +0.00 +0.00    +0.234 C  
DOCKED: ATOM     19  O12 UNL     1       8.853  -6.727  -0.972 +0.00 -0.00    -0.274 OA 
DOCKED: ATOM     20  N8  UNL     1       6.752  -7.229  -1.762 +0.00 -0.00    -0.301 N  
DOCKED: ATOM     21  H55 UNL     1       5.882  -7.550  -1.354 +0.00 +0.00    +0.150 HD 
DOCKED: BRANCH  20  22
DOCKED: ATOM     22  C33 UNL     1       7.258  -8.071  -2.851 +0.00 +0.00    +0.186 C  
DOCKED: BRANCH  22  23
DOCKED: ATOM     23  C41 UNL     1       6.088  -8.704  -3.611 +0.00 +0.00    +0.326 C  
DOCKED: ATOM     24  O13 UNL     1       6.148  -9.479  -4.556 +0.00 -0.00    -0.249 OA 
DOCKED: BRANCH  23  25
DOCKED: ATOM     25  O14 UNL     1       4.884  -8.274  -3.170 +0.00 -0.00    -0.479 OA 
DOCKED: ATOM     26  H64 UNL     1       4.986  -8.283  -2.195 +0.00 +0.00    +0.295 HD 
DOCKED: ENDBRANCH  23  25
DOCKED: ENDBRANCH  22  23
DOCKED: BRANCH  22  27
DOCKED: ATOM     27  C34 UNL     1       8.119  -9.232  -2.324 +0.00 +0.00    +0.069 C  
DOCKED: BRANCH  27  28
DOCKED: ATOM     28  C35 UNL     1       9.579  -9.133  -2.699 +0.00 -0.00    -0.045 A  
DOCKED: ATOM     29  C36 UNL     1      10.457 -10.189  -2.410 +0.00 +0.00    +0.004 A  
DOCKED: ATOM     30  C37 UNL     1      11.812 -10.091  -2.730 +0.00 +0.00    +0.000 A  
DOCKED: ATOM     31  C38 UNL     1      12.302  -8.941  -3.345 +0.00 +0.00    +0.000 A  
DOCKED: ATOM     32  C39 UNL     1      11.437  -7.888  -3.642 +0.00 +0.00    +0.000 A  
DOCKED: ATOM     33  C40 UNL     1      10.083  -7.982  -3.317 +0.00 +0.00    +0.004 A  
DOCKED: ENDBRANCH  27  28
DOCKED: ENDBRANCH  22  27
DOCKED: ENDBRANCH  20  22
DOCKED: ENDBRANCH  17  18
DOCKED: BRANCH  17  34
DOCKED: ATOM     34  C29 UNL     1       7.986  -5.229   1.182 +0.00 +0.00    +0.043 C  
DOCKED: BRANCH  34  35
DOCKED: ATOM     35  C30 UNL     1       7.625  -5.181   2.668 +0.00 +0.00    +0.123 C  
DOCKED: BRANCH  35  36
DOCKED: ATOM     36  C31 UNL     1       7.846  -6.484   3.385 +0.00 +0.00    +0.305 C  
DOCKED: ATOM     37  O10 UNL     1       6.991  -7.136   3.966 +0.00 -0.00    -0.251 OA 
DOCKED: BRANCH  36  38
DOCKED: ATOM     38  O11 UNL     1       9.130  -6.876   3.395 +0.00 -0.00    -0.481 OA 
DOCKED: ATOM     39  H54 UNL     1       9.108  -7.809   3.691 +0.00 +0.00    +0.295 HD 
DOCKED: ENDBRANCH  36  38
DOCKED: ENDBRANCH  35  36
DOCKED: ENDBRANCH  34  35
DOCKED: ENDBRANCH  17  34
DOCKED: ENDBRANCH  15  17
DOCKED: ENDBRANCH  11  13
DOCKED: ENDBRANCH   9  11
DOCKED: ENDBRANCH   5   7
DOCKED: ENDBRANCH   4   5
DOCKED: ENDBRANCH   1   4
DOCKED: BRANCH   1  40
DOCKED: ATOM     40  C5  UNL     1       9.625  -9.723   1.102 +0.00 +0.00    +0.102 C  
DOCKED: BRANCH  40  41
DOCKED: ATOM     41  N1  UNL     1      10.283  -8.472   1.517 +0.00 -0.00    -0.308 N  
DOCKED: ATOM     42  C6  UNL     1      11.047  -7.658   0.711 +0.00 +0.00    +0.234 C  
DOCKED: ATOM     43  O1  UNL     1      11.352  -7.950  -0.442 +0.00 -0.00    -0.274 OA 
DOCKED: ATOM     44  H11 UNL     1      10.045  -8.123   2.442 +0.00 +0.00    +0.149 HD 
DOCKED: BRANCH  42  45
DOCKED: ATOM     45  C7  UNL     1      11.410  -6.302   1.339 +0.00 +0.00    +0.168 C  
DOCKED: BRANCH  45  46
DOCKED: ATOM     46  N3  UNL     1      11.620  -6.475   2.775 +0.00 -0.00    -0.302 N  
DOCKED: ATOM     47  C10 UNL     1      11.822  -5.382   3.590 +0.00 +0.00    +0.234 C  
DOCKED: ATOM     48  O3  UNL     1      11.780  -4.219   3.177 +0.00 -0.00    -0.274 OA 
DOCKED: ATOM     49  H17 UNL     1      11.247  -7.312   3.207 +0.00 +0.00    +0.150 HD 
DOCKED: BRANCH  47  50
DOCKED: ATOM     50  C11 UNL     1      12.116  -5.720   5.071 +0.00 +0.00    +0.161 C  
DOCKED: BRANCH  50  51
DOCKED: ATOM     51  N4  UNL     1      10.996  -6.526   5.554 +0.00 -0.00    -0.302 N  
DOCKED: ATOM     52  C12 UNL     1      10.664  -6.473   6.896 +0.00 +0.00    +0.230 C  
DOCKED: ATOM     53  O4  UNL     1      11.454  -6.105   7.763 +0.00 -0.00    -0.274 OA 
DOCKED: ATOM     54  H19 UNL     1      10.220  -6.594   4.909 +0.00 +0.00    +0.150 HD 
DOCKED: BRANCH  52  55
DOCKED: ATOM     55  C13 UNL     1       9.215  -6.923   7.228 +0.00 +0.00    +0.138 C  
DOCKED: BRANCH  55  56
DOCKED: ATOM     56  N5  UNL     1       8.351  -6.727   6.044 +0.00 -0.00    -0.320 NA 
DOCKED: ATOM     57  H21 UNL     1       8.853  -7.107   5.236 +0.00 +0.00    +0.119 HD 
DOCKED: ATOM     58  H22 UNL     1       7.559  -7.372   6.130 +0.00 +0.00    +0.119 HD 
DOCKED: ENDBRANCH  55  56
DOCKED: BRANCH  55  59
DOCKED: ATOM     59  C14 UNL     1       9.207  -8.394   7.662 +0.00 +0.00    +0.039 C  
DOCKED: BRANCH  59  60
DOCKED: ATOM     60  C15 UNL     1       9.955  -9.331   6.714 +0.00 +0.00    +0.122 C  
DOCKED: BRANCH  60  61
DOCKED: ATOM     61  C16 UNL     1       9.529  -9.078   5.295 +0.00 +0.00    +0.305 C  
DOCKED: ATOM     62  O5  UNL     1      10.270  -8.764   4.377 +0.00 -0.00    -0.251 OA 
DOCKED: BRANCH  61  63
DOCKED: ATOM     63  O6  UNL     1       8.197  -9.180   5.128 +0.00 -0.00    -0.481 OA 
DOCKED: ATOM     64  H27 UNL     1       7.919  -8.343   4.676 +0.00 +0.00    +0.295 HD 
DOCKED: ENDBRANCH  61  63
DOCKED: ENDBRANCH  60  61
DOCKED: ENDBRANCH  59  60
DOCKED: ENDBRANCH  55  59
DOCKED: ENDBRANCH  52  55
DOCKED: ENDBRANCH  50  51
DOCKED: BRANCH  50  65
DOCKED: ATOM     65  C17 UNL     1      13.484  -6.415   5.234 +0.00 +0.00    +0.012 C  
DOCKED: ATOM     66  C18 UNL     1      13.362  -7.916   4.953 +0.00 +0.00    +0.009 C  
DOCKED: ATOM     67  C19 UNL     1      14.586  -5.814   4.356 +0.00 +0.00    +0.009 C  
DOCKED: ENDBRANCH  50  65
DOCKED: ENDBRANCH  47  50
DOCKED: ENDBRANCH  45  46
DOCKED: BRANCH  45  68
DOCKED: ATOM     68  C8  UNL     1      12.677  -5.793   0.641 +0.00 +0.00    +0.127 C  
DOCKED: BRANCH  68  69
DOCKED: ATOM     69  C9  UNL     1      12.368  -4.843  -0.492 +0.00 +0.00    +0.213 C  
DOCKED: ATOM     70  N2  UNL     1      11.341  -5.247  -1.296 +0.00 -0.00    -0.329 N  
DOCKED: ATOM     71  O2  UNL     1      12.955  -3.790  -0.706 +0.00 -0.00    -0.276 OA 
DOCKED: ATOM     72  H15 UNL     1      11.102  -4.660  -2.085 +0.00 +0.00    +0.145 HD 
DOCKED: ATOM     73  H16 UNL     1      10.823  -6.104  -1.158 +0.00 +0.00    +0.145 HD 
DOCKED: ENDBRANCH  68  69
DOCKED: ENDBRANCH  45  68
DOCKED: ENDBRANCH  42  45
DOCKED: ENDBRANCH  40  41
DOCKED: BRANCH  40  74
DOCKED: ATOM     74  C4  UNL     1      10.721 -10.776   0.795 +0.00 +0.00    +0.028 C  
DOCKED: BRANCH  74  76
DOCKED: ATOM     75  C1  UNL     1      12.898 -10.009   1.930 +0.00 +0.00    +0.007 C  
DOCKED: ATOM     76  C2  UNL     1      11.799 -11.071   1.864 +0.00 -0.00    -0.015 C  
DOCKED: ATOM     77  C3  UNL     1      11.233 -11.357   3.253 +0.00 +0.00    +0.007 C  
DOCKED: ENDBRANCH  74  76
DOCKED: ENDBRANCH  40  74
DOCKED: ENDBRANCH   1  40
DOCKED: TORSDOF 34
DOCKED: TER
DOCKED: ENDMDL
________________________________________________________________________________


    FINAL DOCKED STATE:
    ________________________


Run:   11 / 20
Time taken for this run:   5.922s

DOCKED: MODEL        11
DOCKED: USER    Run = 11
DOCKED: USER
DOCKED: USER    Estimated Free Energy of Binding    = +10.14 kcal/mol  [=(1)+(2)+(3)-(4)]
DOCKED: USER
DOCKED: USER    (1) Final Intermolecular Energy     =  +0.00 kcal/mol
DOCKED: USER        vdW + Hbond + desolv Energy     =  +0.00 kcal/mol
DOCKED: USER        Electrostatic Energy            =  +0.00 kcal/mol
DOCKED: USER        Moving Ligand-Fixed Receptor    =  +0.00 kcal/mol
DOCKED: USER        Moving Ligand-Moving Receptor   =  +0.00 kcal/mol
DOCKED: USER    (2) Final Total Internal Energy     = -28.07 kcal/mol
DOCKED: USER    (3) Torsional Free Energy           = +10.14 kcal/mol
DOCKED: USER    (4) Unbound System's Energy         = -28.07 kcal/mol
DOCKED: USER
DOCKED: USER
DOCKED: REMARK  Name = ligands/ligand_0.pdb
DOCKED: REMARK  40 active torsions:
DOCKED: REMARK  status: ('A' for Active; 'I' for Inactive)
DOCKED: REMARK    1  A    between atoms: C1_1  and  C2_2
DOCKED: REMARK    2  A    between atoms: C2_2  and  C3_3
DOCKED: REMARK    3  A    between atoms: C2_2  and  C4_4
DOCKED: REMARK    4  A    between atoms: C4_4  and  C5_5
DOCKED: REMARK    5  A    between atoms: C5_5  and  N1_6
DOCKED: REMARK    6  A    between atoms: C5_5  and  C20_31
DOCKED: REMARK    7  A    between atoms: C6_7  and  C7_9
DOCKED: REMARK    8  A    between atoms: C7_9  and  C8_10
DOCKED: REMARK    9  A    between atoms: C7_9  and  N3_14
DOCKED: REMARK   10  A    between atoms: C8_10  and  C9_11
DOCKED: REMARK   11  A    between atoms: C10_15  and  C11_17
DOCKED: REMARK   12  A    between atoms: C11_17  and  N4_18
DOCKED: REMARK   13  A    between atoms: C11_17  and  C17_28
DOCKED: REMARK   14  A    between atoms: C12_19  and  C13_21
DOCKED: REMARK   15  A    between atoms: C13_21  and  N5_22
DOCKED: REMARK   16  A    between atoms: C13_21  and  C14_23
DOCKED: REMARK   17  A    between atoms: C14_23  and  C15_24
DOCKED: REMARK   18  A    between atoms: C15_24  and  C16_25
DOCKED: REMARK   19  A    between atoms: C16_25  and  O6_27
DOCKED: REMARK   20  A    between atoms: C17_28  and  C18_29
DOCKED: REMARK   21  A    between atoms: C17_28  and  C19_30
DOCKED: REMARK   22  A    between atoms: C20_31  and  O7_32
DOCKED: REMARK   23  A    between atoms: C20_31  and  C21_33
DOCKED: REMARK   24  A    between atoms: C21_33  and  C22_34
DOCKED: REMARK   25  A    between atoms: C22_34  and  C23_35
DOCKED: REMARK   26  A    between atoms: C22_34  and  C24_36
DOCKED: REMARK   27  A    between atoms: N6_38  and  C25_39
DOCKED: REMARK   28  A    between atoms: C25_39  and  C26_40
DOCKED: REMARK   29  A    between atoms: C25_39  and  C27_41
DOCKED: REMARK   30  A    between atoms: N7_43  and  C28_44
DOCKED: REMARK   31  A    between atoms: C28_44  and  C29_45
DOCKED: REMARK   32  A    between atoms: C28_44  and  C32_50
DOCKED: REMARK   33  A    between atoms: C29_45  and  C30_46
DOCKED: REMARK   34  A    between atoms: C30_46  and  C31_47
DOCKED: REMARK   35  A    between atoms: C31_47  and  O11_49
DOCKED: REMARK   36  A    between atoms: N8_52  and  C33_53
DOCKED: REMARK   37  A    between atoms: C33_53  and  C34_54
DOCKED: REMARK   38  A    between atoms: C33_53  and  C41_61
DOCKED: REMARK   39  A    between atoms: C34_54  and  C35_55
DOCKED: REMARK   40  A    between atoms: C41_61  and  O14_63
DOCKED: REMARK                            x       y       z     vdW  Elec       q    Type
DOCKED: REMARK                         _______ _______ _______ _____ _____    ______ ____
DOCKED: USER                              x       y       z     vdW  Elec       q    Type
DOCKED: USER                           _______ _______ _______ _____ _____    ______ ____
DOCKED: ROOT
DOCKED: ATOM      1  C20 UNL     1       5.569  -3.025  -3.618 +0.00 +0.00    +0.135 C  
DOCKED: ENDROOT
DOCKED: BRANCH   1   2
DOCKED: ATOM      2  O7  UNL     1       4.313  -3.335  -3.021 +0.00 -0.00    -0.390 OA 
DOCKED: ATOM      3  H36 UNL     1       4.155  -2.707  -2.283 +0.00 +0.00    +0.210 HD 
DOCKED: ENDBRANCH   1   2
DOCKED: BRANCH   1   4
DOCKED: ATOM      4  C21 UNL     1       6.434  -4.297  -3.719 +0.00 +0.00    +0.045 C  
DOCKED: BRANCH   4   5
DOCKED: ATOM      5  C22 UNL     1       7.326  -4.642  -2.509 +0.00 +0.00    +0.074 C  
DOCKED: ATOM      6  C23 UNL     1       8.515  -3.674  -2.422 +0.00 +0.00    +0.017 C  
DOCKED: BRANCH   5   7
DOCKED: ATOM      7  C24 UNL     1       6.543  -4.544  -1.196 +0.00 +0.00    +0.217 C  
DOCKED: ATOM      8  O8  UNL     1       5.554  -3.834  -1.042 +0.00 -0.00    -0.276 OA 
DOCKED: ATOM      9  N6  UNL     1       7.072  -5.295  -0.162 +0.00 -0.00    -0.304 N  
DOCKED: ATOM     10  H43 UNL     1       8.041  -5.587  -0.268 +0.00 +0.00    +0.149 HD 
DOCKED: BRANCH   9  11
DOCKED: ATOM     11  C25 UNL     1       6.590  -5.045   1.192 +0.00 +0.00    +0.156 C  
DOCKED: ATOM     12  C26 UNL     1       7.043  -6.146   2.142 +0.00 +0.00    +0.038 C  
DOCKED: BRANCH  11  13
DOCKED: ATOM     13  C27 UNL     1       7.118  -3.676   1.680 +0.00 +0.00    +0.234 C  
DOCKED: ATOM     14  O9  UNL     1       8.060  -3.565   2.469 +0.00 -0.00    -0.274 OA 
DOCKED: ATOM     15  N7  UNL     1       6.424  -2.591   1.192 +0.00 -0.00    -0.302 N  
DOCKED: ATOM     16  H48 UNL     1       5.511  -2.745   0.776 +0.00 +0.00    +0.150 HD 
DOCKED: BRANCH  15  17
DOCKED: ATOM     17  C28 UNL     1       6.669  -1.243   1.698 +0.00 +0.00    +0.159 C  
DOCKED: BRANCH  17  18
DOCKED: ATOM     18  C32 UNL     1       5.553  -0.927   2.714 +0.00 +0.00    +0.234 C  
DOCKED: ATOM     19  O12 UNL     1       5.693  -0.095   3.605 +0.00 -0.00    -0.274 OA 
DOCKED: ATOM     20  N8  UNL     1       4.448  -1.743   2.593 +0.00 -0.00    -0.301 N  
DOCKED: ATOM     21  H55 UNL     1       4.241  -2.010   1.638 +0.00 +0.00    +0.150 HD 
DOCKED: BRANCH  20  22
DOCKED: ATOM     22  C33 UNL     1       3.265  -1.492   3.423 +0.00 +0.00    +0.186 C  
DOCKED: BRANCH  22  23
DOCKED: ATOM     23  C41 UNL     1       2.799  -2.797   4.078 +0.00 +0.00    +0.326 C  
DOCKED: ATOM     24  O13 UNL     1       1.958  -2.927   4.956 +0.00 -0.00    -0.249 OA 
DOCKED: BRANCH  23  25
DOCKED: ATOM     25  O14 UNL     1       3.470  -3.879   3.624 +0.00 -0.00    -0.479 OA 
DOCKED: ATOM     26  H64 UNL     1       3.493  -3.739   2.654 +0.00 +0.00    +0.295 HD 
DOCKED: ENDBRANCH  23  25
DOCKED: ENDBRANCH  22  23
DOCKED: BRANCH  22  27
DOCKED: ATOM     27  C34 UNL     1       2.081  -0.971   2.591 +0.00 +0.00    +0.069 C  
DOCKED: BRANCH  27  28
DOCKED: ATOM     28  C35 UNL     1       2.089   0.526   2.383 +0.00 -0.00    -0.045 A  
DOCKED: ATOM     29  C36 UNL     1       1.156   1.126   1.523 +0.00 +0.00    +0.004 A  
DOCKED: ATOM     30  C37 UNL     1       1.178   2.504   1.306 +0.00 +0.00    +0.000 A  
DOCKED: ATOM     31  C38 UNL     1       2.125   3.296   1.949 +0.00 +0.00    +0.000 A  
DOCKED: ATOM     32  C39 UNL     1       3.053   2.712   2.811 +0.00 +0.00    +0.000 A  
DOCKED: ATOM     33  C40 UNL     1       3.038   1.332   3.024 +0.00 +0.00    +0.004 A  
DOCKED: ENDBRANCH  27  28
DOCKED: ENDBRANCH  22  27
DOCKED: ENDBRANCH  20  22
DOCKED: ENDBRANCH  17  18
DOCKED: BRANCH  17  34
DOCKED: ATOM     34  C29 UNL     1       6.638  -0.237   0.539 +0.00 +0.00    +0.043 C  
DOCKED: BRANCH  34  35
DOCKED: ATOM     35  C30 UNL     1       6.561  -0.878  -0.848 +0.00 +0.00    +0.123 C  
DOCKED: BRANCH  35  36
DOCKED: ATOM     36  C31 UNL     1       5.157  -1.020  -1.370 +0.00 +0.00    +0.305 C  
DOCKED: ATOM     37  O10 UNL     1       4.753  -0.625  -2.454 +0.00 -0.00    -0.251 OA 
DOCKED: BRANCH  36  38
DOCKED: ATOM     38  O11 UNL     1       4.318  -1.590  -0.491 +0.00 -0.00    -0.481 OA 
DOCKED: ATOM     39  H54 UNL     1       4.128  -2.477  -0.861 +0.00 +0.00    +0.295 HD 
DOCKED: ENDBRANCH  36  38
DOCKED: ENDBRANCH  35  36
DOCKED: ENDBRANCH  34  35
DOCKED: ENDBRANCH  17  34
DOCKED: ENDBRANCH  15  17
DOCKED: ENDBRANCH  11  13
DOCKED: ENDBRANCH   9  11
DOCKED: ENDBRANCH   5   7
DOCKED: ENDBRANCH   4   5
DOCKED: ENDBRANCH   1   4
DOCKED: BRANCH   1  40
DOCKED: ATOM     40  C5  UNL     1       5.465  -2.135  -4.888 +0.00 +0.00    +0.102 C  
DOCKED: BRANCH  40  41
DOCKED: ATOM     41  N1  UNL     1       4.305  -1.227  -4.927 +0.00 -0.00    -0.308 N  
DOCKED: ATOM     42  C6  UNL     1       3.991  -0.364  -5.954 +0.00 +0.00    +0.234 C  
DOCKED: ATOM     43  O1  UNL     1       4.720  -0.184  -6.926 +0.00 -0.00    -0.274 OA 
DOCKED: ATOM     44  H11 UNL     1       3.617  -1.343  -4.188 +0.00 +0.00    +0.149 HD 
DOCKED: BRANCH  42  45
DOCKED: ATOM     45  C7  UNL     1       2.603   0.286  -5.836 +0.00 +0.00    +0.168 C  
DOCKED: BRANCH  45  46
DOCKED: ATOM     46  N3  UNL     1       2.373   0.686  -4.448 +0.00 -0.00    -0.302 N  
DOCKED: ATOM     47  C10 UNL     1       3.154   1.658  -3.861 +0.00 +0.00    +0.234 C  
DOCKED: ATOM     48  O3  UNL     1       4.033   2.275  -4.472 +0.00 -0.00    -0.274 OA 
DOCKED: ATOM     49  H17 UNL     1       1.446   0.542  -4.066 +0.00 +0.00    +0.150 HD 
DOCKED: BRANCH  47  50
DOCKED: ATOM     50  C11 UNL     1       2.854   1.917  -2.365 +0.00 +0.00    +0.161 C  
DOCKED: BRANCH  50  51
DOCKED: ATOM     51  N4  UNL     1       2.563   0.618  -1.759 +0.00 -0.00    -0.302 N  
DOCKED: ATOM     52  C12 UNL     1       1.306   0.068  -1.933 +0.00 +0.00    +0.230 C  
DOCKED: ATOM     53  O4  UNL     1       0.319   0.739  -2.228 +0.00 -0.00    -0.274 OA 
DOCKED: ATOM     54  H19 UNL     1       3.337  -0.033  -1.771 +0.00 +0.00    +0.150 HD 
DOCKED: BRANCH  52  55
DOCKED: ATOM     55  C13 UNL     1       1.232  -1.469  -1.718 +0.00 +0.00    +0.138 C  
DOCKED: BRANCH  55  56
DOCKED: ATOM     56  N5  UNL     1       2.413  -2.113  -2.332 +0.00 -0.00    -0.320 NA 
DOCKED: ATOM     57  H21 UNL     1       3.155  -2.122  -1.626 +0.00 +0.00    +0.119 HD 
DOCKED: ATOM     58  H22 UNL     1       2.200  -3.111  -2.437 +0.00 +0.00    +0.119 HD 
DOCKED: ENDBRANCH  55  56
DOCKED: BRANCH  55  59
DOCKED: ATOM     59  C14 UNL     1       1.163  -1.789  -0.220 +0.00 +0.00    +0.039 C  
DOCKED: BRANCH  59  60
DOCKED: ATOM     60  C15 UNL     1       1.280  -3.278   0.109 +0.00 +0.00    +0.122 C  
DOCKED: BRANCH  60  61
DOCKED: ATOM     61  C16 UNL     1       2.722  -3.701   0.076 +0.00 +0.00    +0.305 C  
DOCKED: ATOM     62  O5  UNL     1       3.530  -3.536   0.977 +0.00 -0.00    -0.251 OA 
DOCKED: BRANCH  61  63
DOCKED: ATOM     63  O6  UNL     1       3.075  -4.251  -1.101 +0.00 -0.00    -0.481 OA 
DOCKED: ATOM     64  H27 UNL     1       3.748  -3.638  -1.492 +0.00 +0.00    +0.295 HD 
DOCKED: ENDBRANCH  61  63
DOCKED: ENDBRANCH  60  61
DOCKED: ENDBRANCH  59  60
DOCKED: ENDBRANCH  55  59
DOCKED: ENDBRANCH  52  55
DOCKED: ENDBRANCH  50  51
DOCKED: BRANCH  50  65
DOCKED: ATOM     65  C17 UNL     1       4.012   2.668  -1.676 +0.00 +0.00    +0.012 C  
DOCKED: ATOM     66  C18 UNL     1       3.630   4.129  -1.422 +0.00 +0.00    +0.009 C  
DOCKED: ATOM     67  C19 UNL     1       4.468   2.020  -0.364 +0.00 +0.00    +0.009 C  
DOCKED: ENDBRANCH  50  65
DOCKED: ENDBRANCH  47  50
DOCKED: ENDBRANCH  45  46
DOCKED: BRANCH  45  68
DOCKED: ATOM     68  C8  UNL     1       2.574   1.491  -6.783 +0.00 +0.00    +0.127 C  
DOCKED: BRANCH  68  69
DOCKED: ATOM     69  C9  UNL     1       1.439   2.438  -6.475 +0.00 +0.00    +0.213 C  
DOCKED: ATOM     70  N2  UNL     1       1.800   3.520  -5.726 +0.00 -0.00    -0.329 N  
DOCKED: ATOM     71  O2  UNL     1       0.281   2.291  -6.847 +0.00 -0.00    -0.276 OA 
DOCKED: ATOM     72  H15 UNL     1       1.075   4.179  -5.471 +0.00 +0.00    +0.145 HD 
DOCKED: ATOM     73  H16 UNL     1       2.742   3.689  -5.399 +0.00 +0.00    +0.145 HD 
DOCKED: ENDBRANCH  68  69
DOCKED: ENDBRANCH  45  68
DOCKED: ENDBRANCH  42  45
DOCKED: ENDBRANCH  40  41
DOCKED: BRANCH  40  74
DOCKED: ATOM     74  C4  UNL     1       6.743  -1.312  -5.193 +0.00 +0.00    +0.028 C  
DOCKED: BRANCH  74  76
DOCKED: ATOM     75  C1  UNL     1       8.716  -0.438  -3.793 +0.00 +0.00    +0.007 C  
DOCKED: ATOM     76  C2  UNL     1       7.237  -0.280  -4.152 +0.00 -0.00    -0.015 C  
DOCKED: ATOM     77  C3  UNL     1       6.915   1.168  -4.515 +0.00 +0.00    +0.007 C  
DOCKED: ENDBRANCH  74  76
DOCKED: ENDBRANCH  40  74
DOCKED: ENDBRANCH   1  40
DOCKED: TORSDOF 34
DOCKED: TER
DOCKED: ENDMDL
________________________________________________________________________________


    FINAL DOCKED STATE:
    ________________________


Run:   12 / 20
Time taken for this run:   5.922s

DOCKED: MODEL        12
DOCKED: USER    Run = 12
DOCKED: USER
DOCKED: USER    Estimated Free Energy of Binding    = +10.14 kcal/mol  [=(1)+(2)+(3)-(4)]
DOCKED: USER
DOCKED: USER    (1) Final Intermolecular Energy     =  +0.00 kcal/mol
DOCKED: USER        vdW + Hbond + desolv Energy     =  +0.00 kcal/mol
DOCKED: USER        Electrostatic Energy            =  +0.00 kcal/mol
DOCKED: USER        Moving Ligand-Fixed Receptor    =  +0.00 kcal/mol
DOCKED: USER        Moving Ligand-Moving Receptor   =  +0.00 kcal/mol
DOCKED: USER    (2) Final Total Internal Energy     = -28.94 kcal/mol
DOCKED: USER    (3) Torsional Free Energy           = +10.14 kcal/mol
DOCKED: USER    (4) Unbound System's Energy         = -28.94 kcal/mol
DOCKED: USER
DOCKED: USER
DOCKED: REMARK  Name = ligands/ligand_0.pdb
DOCKED: REMARK  40 active torsions:
DOCKED: REMARK  status: ('A' for Active; 'I' for Inactive)
DOCKED: REMARK    1  A    between atoms: C1_1  and  C2_2
DOCKED: REMARK    2  A    between atoms: C2_2  and  C3_3
DOCKED: REMARK    3  A    between atoms: C2_2  and  C4_4
DOCKED: REMARK    4  A    between atoms: C4_4  and  C5_5
DOCKED: REMARK    5  A    between atoms: C5_5  and  N1_6
DOCKED: REMARK    6  A    between atoms: C5_5  and  C20_31
DOCKED: REMARK    7  A    between atoms: C6_7  and  C7_9
DOCKED: REMARK    8  A    between atoms: C7_9  and  C8_10
DOCKED: REMARK    9  A    between atoms: C7_9  and  N3_14
DOCKED: REMARK   10  A    between atoms: C8_10  and  C9_11
DOCKED: REMARK   11  A    between atoms: C10_15  and  C11_17
DOCKED: REMARK   12  A    between atoms: C11_17  and  N4_18
DOCKED: REMARK   13  A    between atoms: C11_17  and  C17_28
DOCKED: REMARK   14  A    between atoms: C12_19  and  C13_21
DOCKED: REMARK   15  A    between atoms: C13_21  and  N5_22
DOCKED: REMARK   16  A    between atoms: C13_21  and  C14_23
DOCKED: REMARK   17  A    between atoms: C14_23  and  C15_24
DOCKED: REMARK   18  A    between atoms: C15_24  and  C16_25
DOCKED: REMARK   19  A    between atoms: C16_25  and  O6_27
DOCKED: REMARK   20  A    between atoms: C17_28  and  C18_29
DOCKED: REMARK   21  A    between atoms: C17_28  and  C19_30
DOCKED: REMARK   22  A    between atoms: C20_31  and  O7_32
DOCKED: REMARK   23  A    between atoms: C20_31  and  C21_33
DOCKED: REMARK   24  A    between atoms: C21_33  and  C22_34
DOCKED: REMARK   25  A    between atoms: C22_34  and  C23_35
DOCKED: REMARK   26  A    between atoms: C22_34  and  C24_36
DOCKED: REMARK   27  A    between atoms: N6_38  and  C25_39
DOCKED: REMARK   28  A    between atoms: C25_39  and  C26_40
DOCKED: REMARK   29  A    between atoms: C25_39  and  C27_41
DOCKED: REMARK   30  A    between atoms: N7_43  and  C28_44
DOCKED: REMARK   31  A    between atoms: C28_44  and  C29_45
DOCKED: REMARK   32  A    between atoms: C28_44  and  C32_50
DOCKED: REMARK   33  A    between atoms: C29_45  and  C30_46
DOCKED: REMARK   34  A    between atoms: C30_46  and  C31_47
DOCKED: REMARK   35  A    between atoms: C31_47  and  O11_49
DOCKED: REMARK   36  A    between atoms: N8_52  and  C33_53
DOCKED: REMARK   37  A    between atoms: C33_53  and  C34_54
DOCKED: REMARK   38  A    between atoms: C33_53  and  C41_61
DOCKED: REMARK   39  A    between atoms: C34_54  and  C35_55
DOCKED: REMARK   40  A    between atoms: C41_61  and  O14_63
DOCKED: REMARK                            x       y       z     vdW  Elec       q    Type
DOCKED: REMARK                         _______ _______ _______ _____ _____    ______ ____
DOCKED: USER                              x       y       z     vdW  Elec       q    Type
DOCKED: USER                           _______ _______ _______ _____ _____    ______ ____
DOCKED: ROOT
DOCKED: ATOM      1  C20 UNL     1       5.065  -7.744  -3.134 +0.00 +0.00    +0.135 C  
DOCKED: ENDROOT
DOCKED: BRANCH   1   2
DOCKED: ATOM      2  O7  UNL     1       4.002  -7.647  -2.190 +0.00 -0.00    -0.390 OA 
DOCKED: ATOM      3  H36 UNL     1       4.381  -7.401  -1.319 +0.00 +0.00    +0.210 HD 
DOCKED: ENDBRANCH   1   2
DOCKED: BRANCH   1   4
DOCKED: ATOM      4  C21 UNL     1       4.770  -6.853  -4.356 +0.00 +0.00    +0.045 C  
DOCKED: BRANCH   4   5
DOCKED: ATOM      5  C22 UNL     1       3.620  -7.288  -5.286 +0.00 +0.00    +0.074 C  
DOCKED: ATOM      6  C23 UNL     1       3.797  -8.752  -5.715 +0.00 +0.00    +0.017 C  
DOCKED: BRANCH   5   7
DOCKED: ATOM      7  C24 UNL     1       2.262  -7.165  -4.586 +0.00 +0.00    +0.217 C  
DOCKED: ATOM      8  O8  UNL     1       1.510  -6.204  -4.719 +0.00 -0.00    -0.276 OA 
DOCKED: ATOM      9  N6  UNL     1       1.962  -8.216  -3.740 +0.00 -0.00    -0.304 N  
DOCKED: ATOM     10  H43 UNL     1       2.747  -8.791  -3.440 +0.00 +0.00    +0.149 HD 
DOCKED: BRANCH   9  11
DOCKED: ATOM     11  C25 UNL     1       0.850  -8.059  -2.808 +0.00 +0.00    +0.156 C  
DOCKED: ATOM     12  C26 UNL     1      -0.485  -8.162  -3.533 +0.00 +0.00    +0.038 C  
DOCKED: BRANCH  11  13
DOCKED: ATOM     13  C27 UNL     1       0.942  -9.146  -1.713 +0.00 +0.00    +0.234 C  
DOCKED: ATOM     14  O9  UNL     1       0.114 -10.055  -1.600 +0.00 -0.00    -0.274 OA 
DOCKED: ATOM     15  N7  UNL     1       2.002  -8.995  -0.846 +0.00 -0.00    -0.302 N  
DOCKED: ATOM     16  H48 UNL     1       2.481  -8.100  -0.817 +0.00 +0.00    +0.150 HD 
DOCKED: BRANCH  15  17
DOCKED: ATOM     17  C28 UNL     1       2.127  -9.819   0.352 +0.00 +0.00    +0.159 C  
DOCKED: BRANCH  17  18
DOCKED: ATOM     18  C32 UNL     1       2.194  -8.863   1.560 +0.00 +0.00    +0.234 C  
DOCKED: ATOM     19  O12 UNL     1       2.200  -7.642   1.432 +0.00 -0.00    -0.274 OA 
DOCKED: ATOM     20  N8  UNL     1       2.363  -9.508   2.767 +0.00 -0.00    -0.301 N  
DOCKED: ATOM     21  H55 UNL     1       1.891 -10.403   2.821 +0.00 +0.00    +0.150 HD 
DOCKED: BRANCH  20  22
DOCKED: ATOM     22  C33 UNL     1       2.340  -8.735   4.013 +0.00 +0.00    +0.186 C  
DOCKED: BRANCH  22  23
DOCKED: ATOM     23  C41 UNL     1       3.232  -7.496   3.878 +0.00 +0.00    +0.326 C  
DOCKED: ATOM     24  O13 UNL     1       3.128  -6.438   4.482 +0.00 -0.00    -0.249 OA 
DOCKED: BRANCH  23  25
DOCKED: ATOM     25  O14 UNL     1       4.186  -7.640   2.932 +0.00 -0.00    -0.479 OA 
DOCKED: ATOM     26  H64 UNL     1       3.783  -7.224   2.141 +0.00 +0.00    +0.295 HD 
DOCKED: ENDBRANCH  23  25
DOCKED: ENDBRANCH  22  23
DOCKED: BRANCH  22  27
DOCKED: ATOM     27  C34 UNL     1       2.891  -9.546   5.200 +0.00 +0.00    +0.069 C  
DOCKED: BRANCH  27  28
DOCKED: ATOM     28  C35 UNL     1       4.132 -10.344   4.875 +0.00 -0.00    -0.045 A  
DOCKED: ATOM     29  C36 UNL     1       5.399  -9.748   4.960 +0.00 +0.00    +0.004 A  
DOCKED: ATOM     30  C37 UNL     1       6.546 -10.473   4.633 +0.00 +0.00    +0.000 A  
DOCKED: ATOM     31  C38 UNL     1       6.439 -11.800   4.224 +0.00 +0.00    +0.000 A  
DOCKED: ATOM     32  C39 UNL     1       5.185 -12.405   4.142 +0.00 +0.00    +0.000 A  
DOCKED: ATOM     33  C40 UNL     1       4.036 -11.679   4.461 +0.00 +0.00    +0.004 A  
DOCKED: ENDBRANCH  27  28
DOCKED: ENDBRANCH  22  27
DOCKED: ENDBRANCH  20  22
DOCKED: ENDBRANCH  17  18
DOCKED: BRANCH  17  34
DOCKED: ATOM     34  C29 UNL     1       3.403 -10.669   0.271 +0.00 +0.00    +0.043 C  
DOCKED: BRANCH  34  35
DOCKED: ATOM     35  C30 UNL     1       4.515 -10.225   1.224 +0.00 +0.00    +0.123 C  
DOCKED: BRANCH  35  36
DOCKED: ATOM     36  C31 UNL     1       5.258  -9.004   0.756 +0.00 +0.00    +0.305 C  
DOCKED: ATOM     37  O10 UNL     1       6.452  -8.789   0.910 +0.00 -0.00    -0.251 OA 
DOCKED: BRANCH  36  38
DOCKED: ATOM     38  O11 UNL     1       4.467  -8.088   0.177 +0.00 -0.00    -0.481 OA 
DOCKED: ATOM     39  H54 UNL     1       4.291  -7.426   0.878 +0.00 +0.00    +0.295 HD 
DOCKED: ENDBRANCH  36  38
DOCKED: ENDBRANCH  35  36
DOCKED: ENDBRANCH  34  35
DOCKED: ENDBRANCH  17  34
DOCKED: ENDBRANCH  15  17
DOCKED: ENDBRANCH  11  13
DOCKED: ENDBRANCH   9  11
DOCKED: ENDBRANCH   5   7
DOCKED: ENDBRANCH   4   5
DOCKED: ENDBRANCH   1   4
DOCKED: BRANCH   1  40
DOCKED: ATOM     40  C5  UNL     1       6.483  -7.639  -2.505 +0.00 +0.00    +0.102 C  
DOCKED: BRANCH  40  41
DOCKED: ATOM     41  N1  UNL     1       6.600  -6.709  -1.368 +0.00 -0.00    -0.308 N  
DOCKED: ATOM     42  C6  UNL     1       7.617  -5.802  -1.169 +0.00 +0.00    +0.234 C  
DOCKED: ATOM     43  O1  UNL     1       8.612  -5.743  -1.886 +0.00 -0.00    -0.274 OA 
DOCKED: ATOM     44  H11 UNL     1       5.795  -6.651  -0.750 +0.00 +0.00    +0.149 HD 
DOCKED: BRANCH  42  45
DOCKED: ATOM     45  C7  UNL     1       7.362  -4.800  -0.032 +0.00 +0.00    +0.168 C  
DOCKED: BRANCH  45  46
DOCKED: ATOM     46  N3  UNL     1       6.055  -4.173  -0.224 +0.00 -0.00    -0.302 N  
DOCKED: ATOM     47  C10 UNL     1       5.956  -2.821  -0.474 +0.00 +0.00    +0.234 C  
DOCKED: ATOM     48  O3  UNL     1       6.942  -2.089  -0.606 +0.00 -0.00    -0.274 OA 
DOCKED: ATOM     49  H17 UNL     1       5.295  -4.761  -0.547 +0.00 +0.00    +0.150 HD 
DOCKED: BRANCH  47  50
DOCKED: ATOM     50  C11 UNL     1       4.509  -2.282  -0.569 +0.00 +0.00    +0.161 C  
DOCKED: BRANCH  50  51
DOCKED: ATOM     51  N4  UNL     1       3.617  -3.410  -0.307 +0.00 -0.00    -0.302 N  
DOCKED: ATOM     52  C12 UNL     1       2.808  -3.872  -1.330 +0.00 +0.00    +0.230 C  
DOCKED: ATOM     53  O4  UNL     1       2.510  -3.186  -2.306 +0.00 -0.00    -0.274 OA 
DOCKED: ATOM     54  H19 UNL     1       4.002  -4.116   0.305 +0.00 +0.00    +0.150 HD 
DOCKED: BRANCH  52  55
DOCKED: ATOM     55  C13 UNL     1       2.295  -5.327  -1.149 +0.00 +0.00    +0.138 C  
DOCKED: BRANCH  55  56
DOCKED: ATOM     56  N5  UNL     1       3.324  -6.134  -0.459 +0.00 -0.00    -0.320 NA 
DOCKED: ATOM     57  H21 UNL     1       3.950  -5.480   0.021 +0.00 +0.00    +0.119 HD 
DOCKED: ATOM     58  H22 UNL     1       2.867  -6.612   0.325 +0.00 +0.00    +0.119 HD 
DOCKED: ENDBRANCH  55  56
DOCKED: BRANCH  55  59
DOCKED: ATOM     59  C14 UNL     1       0.986  -5.329  -0.351 +0.00 +0.00    +0.039 C  
DOCKED: BRANCH  59  60
DOCKED: ATOM     60  C15 UNL     1       0.982  -4.379   0.848 +0.00 +0.00    +0.122 C  
DOCKED: BRANCH  60  61
DOCKED: ATOM     61  C16 UNL     1       1.619  -5.045   2.036 +0.00 +0.00    +0.305 C  
DOCKED: ATOM     62  O5  UNL     1       1.032  -5.414   3.041 +0.00 -0.00    -0.251 OA 
DOCKED: BRANCH  61  63
DOCKED: ATOM     63  O6  UNL     1       2.955  -5.156   1.914 +0.00 -0.00    -0.481 OA 
DOCKED: ATOM     64  H27 UNL     1       3.128  -6.116   1.736 +0.00 +0.00    +0.295 HD 
DOCKED: ENDBRANCH  61  63
DOCKED: ENDBRANCH  60  61
DOCKED: ENDBRANCH  59  60
DOCKED: ENDBRANCH  55  59
DOCKED: ENDBRANCH  52  55
DOCKED: ENDBRANCH  50  51
DOCKED: BRANCH  50  65
DOCKED: ATOM     65  C17 UNL     1       4.284  -1.090   0.384 +0.00 +0.00    +0.012 C  
DOCKED: ATOM     66  C18 UNL     1       2.875  -0.516   0.203 +0.00 +0.00    +0.009 C  
DOCKED: ATOM     67  C19 UNL     1       4.514  -1.432   1.859 +0.00 +0.00    +0.009 C  
DOCKED: ENDBRANCH  50  65
DOCKED: ENDBRANCH  47  50
DOCKED: ENDBRANCH  45  46
DOCKED: BRANCH  45  68
DOCKED: ATOM     68  C8  UNL     1       7.428  -5.573   1.290 +0.00 +0.00    +0.127 C  
DOCKED: BRANCH  68  69
DOCKED: ATOM     69  C9  UNL     1       6.061  -5.825   1.879 +0.00 +0.00    +0.213 C  
DOCKED: ATOM     70  N2  UNL     1       6.034  -5.851   3.243 +0.00 -0.00    -0.329 N  
DOCKED: ATOM     71  O2  UNL     1       5.035  -5.992   1.229 +0.00 -0.00    -0.276 OA 
DOCKED: ATOM     72  H15 UNL     1       5.147  -6.036   3.693 +0.00 +0.00    +0.145 HD 
DOCKED: ATOM     73  H16 UNL     1       6.851  -5.714   3.824 +0.00 +0.00    +0.145 HD 
DOCKED: ENDBRANCH  68  69
DOCKED: ENDBRANCH  45  68
DOCKED: ENDBRANCH  42  45
DOCKED: ENDBRANCH  40  41
DOCKED: BRANCH  40  74
DOCKED: ATOM     74  C4  UNL     1       7.096  -9.001  -2.089 +0.00 +0.00    +0.028 C  
DOCKED: BRANCH  74  76
DOCKED: ATOM     75  C1  UNL     1       6.113 -10.790  -3.654 +0.00 +0.00    +0.007 C  
DOCKED: ATOM     76  C2  UNL     1       6.238 -10.282  -2.217 +0.00 -0.00    -0.015 C  
DOCKED: ATOM     77  C3  UNL     1       6.661 -11.406  -1.275 +0.00 +0.00    +0.007 C  
DOCKED: ENDBRANCH  74  76
DOCKED: ENDBRANCH  40  74
DOCKED: ENDBRANCH   1  40
DOCKED: TORSDOF 34
DOCKED: TER
DOCKED: ENDMDL
________________________________________________________________________________


    FINAL DOCKED STATE:
    ________________________


Run:   13 / 20
Time taken for this run:   5.922s

DOCKED: MODEL        13
DOCKED: USER    Run = 13
DOCKED: USER
DOCKED: USER    Estimated Free Energy of Binding    = +10.14 kcal/mol  [=(1)+(2)+(3)-(4)]
DOCKED: USER
DOCKED: USER    (1) Final Intermolecular Energy     =  +0.00 kcal/mol
DOCKED: USER        vdW + Hbond + desolv Energy     =  +0.00 kcal/mol
DOCKED: USER        Electrostatic Energy            =  +0.00 kcal/mol
DOCKED: USER        Moving Ligand-Fixed Receptor    =  +0.00 kcal/mol
DOCKED: USER        Moving Ligand-Moving Receptor   =  +0.00 kcal/mol
DOCKED: USER    (2) Final Total Internal Energy     = -29.29 kcal/mol
DOCKED: USER    (3) Torsional Free Energy           = +10.14 kcal/mol
DOCKED: USER    (4) Unbound System's Energy         = -29.29 kcal/mol
DOCKED: USER
DOCKED: USER
DOCKED: REMARK  Name = ligands/ligand_0.pdb
DOCKED: REMARK  40 active torsions:
DOCKED: REMARK  status: ('A' for Active; 'I' for Inactive)
DOCKED: REMARK    1  A    between atoms: C1_1  and  C2_2
DOCKED: REMARK    2  A    between atoms: C2_2  and  C3_3
DOCKED: REMARK    3  A    between atoms: C2_2  and  C4_4
DOCKED: REMARK    4  A    between atoms: C4_4  and  C5_5
DOCKED: REMARK    5  A    between atoms: C5_5  and  N1_6
DOCKED: REMARK    6  A    between atoms: C5_5  and  C20_31
DOCKED: REMARK    7  A    between atoms: C6_7  and  C7_9
DOCKED: REMARK    8  A    between atoms: C7_9  and  C8_10
DOCKED: REMARK    9  A    between atoms: C7_9  and  N3_14
DOCKED: REMARK   10  A    between atoms: C8_10  and  C9_11
DOCKED: REMARK   11  A    between atoms: C10_15  and  C11_17
DOCKED: REMARK   12  A    between atoms: C11_17  and  N4_18
DOCKED: REMARK   13  A    between atoms: C11_17  and  C17_28
DOCKED: REMARK   14  A    between atoms: C12_19  and  C13_21
DOCKED: REMARK   15  A    between atoms: C13_21  and  N5_22
DOCKED: REMARK   16  A    between atoms: C13_21  and  C14_23
DOCKED: REMARK   17  A    between atoms: C14_23  and  C15_24
DOCKED: REMARK   18  A    between atoms: C15_24  and  C16_25
DOCKED: REMARK   19  A    between atoms: C16_25  and  O6_27
DOCKED: REMARK   20  A    between atoms: C17_28  and  C18_29
DOCKED: REMARK   21  A    between atoms: C17_28  and  C19_30
DOCKED: REMARK   22  A    between atoms: C20_31  and  O7_32
DOCKED: REMARK   23  A    between atoms: C20_31  and  C21_33
DOCKED: REMARK   24  A    between atoms: C21_33  and  C22_34
DOCKED: REMARK   25  A    between atoms: C22_34  and  C23_35
DOCKED: REMARK   26  A    between atoms: C22_34  and  C24_36
DOCKED: REMARK   27  A    between atoms: N6_38  and  C25_39
DOCKED: REMARK   28  A    between atoms: C25_39  and  C26_40
DOCKED: REMARK   29  A    between atoms: C25_39  and  C27_41
DOCKED: REMARK   30  A    between atoms: N7_43  and  C28_44
DOCKED: REMARK   31  A    between atoms: C28_44  and  C29_45
DOCKED: REMARK   32  A    between atoms: C28_44  and  C32_50
DOCKED: REMARK   33  A    between atoms: C29_45  and  C30_46
DOCKED: REMARK   34  A    between atoms: C30_46  and  C31_47
DOCKED: REMARK   35  A    between atoms: C31_47  and  O11_49
DOCKED: REMARK   36  A    between atoms: N8_52  and  C33_53
DOCKED: REMARK   37  A    between atoms: C33_53  and  C34_54
DOCKED: REMARK   38  A    between atoms: C33_53  and  C41_61
DOCKED: REMARK   39  A    between atoms: C34_54  and  C35_55
DOCKED: REMARK   40  A    between atoms: C41_61  and  O14_63
DOCKED: REMARK                            x       y       z     vdW  Elec       q    Type
DOCKED: REMARK                         _______ _______ _______ _____ _____    ______ ____
DOCKED: USER                              x       y       z     vdW  Elec       q    Type
DOCKED: USER                           _______ _______ _______ _____ _____    ______ ____
DOCKED: ROOT
DOCKED: ATOM      1  C20 UNL     1       6.237  -1.015  -1.165 +0.00 +0.00    +0.135 C  
DOCKED: ENDROOT
DOCKED: BRANCH   1   2
DOCKED: ATOM      2  O7  UNL     1       6.275  -0.142  -2.291 +0.00 -0.00    -0.390 OA 
DOCKED: ATOM      3  H36 UNL     1       6.493   0.761  -1.977 +0.00 +0.00    +0.210 HD 
DOCKED: ENDBRANCH   1   2
DOCKED: BRANCH   1   4
DOCKED: ATOM      4  C21 UNL     1       6.078  -2.475  -1.634 +0.00 +0.00    +0.045 C  
DOCKED: BRANCH   4   5
DOCKED: ATOM      5  C22 UNL     1       6.280  -2.761  -3.135 +0.00 +0.00    +0.074 C  
DOCKED: ATOM      6  C23 UNL     1       6.274  -4.273  -3.403 +0.00 +0.00    +0.017 C  
DOCKED: BRANCH   5   7
DOCKED: ATOM      7  C24 UNL     1       5.163  -2.131  -3.976 +0.00 +0.00    +0.217 C  
DOCKED: ATOM      8  O8  UNL     1       4.056  -2.638  -4.129 +0.00 -0.00    -0.276 OA 
DOCKED: ATOM      9  N6  UNL     1       5.519  -0.949  -4.598 +0.00 -0.00    -0.304 N  
DOCKED: ATOM     10  H43 UNL     1       6.517  -0.769  -4.686 +0.00 +0.00    +0.149 HD 
DOCKED: BRANCH   9  11
DOCKED: ATOM     11  C25 UNL     1       4.648  -0.429  -5.646 +0.00 +0.00    +0.156 C  
DOCKED: ATOM     12  C26 UNL     1       4.178  -1.548  -6.566 +0.00 +0.00    +0.038 C  
DOCKED: BRANCH  11  13
DOCKED: ATOM     13  C27 UNL     1       3.430   0.270  -5.001 +0.00 +0.00    +0.234 C  
DOCKED: ATOM     14  O9  UNL     1       2.405   0.547  -5.630 +0.00 -0.00    -0.274 OA 
DOCKED: ATOM     15  N7  UNL     1       3.597   0.597  -3.673 +0.00 -0.00    -0.302 N  
DOCKED: ATOM     16  H48 UNL     1       4.536   0.594  -3.287 +0.00 +0.00    +0.150 HD 
DOCKED: BRANCH  15  17
DOCKED: ATOM     17  C28 UNL     1       2.625   1.425  -2.966 +0.00 +0.00    +0.159 C  
DOCKED: BRANCH  17  18
DOCKED: ATOM     18  C32 UNL     1       2.968   2.896  -3.275 +0.00 +0.00    +0.234 C  
DOCKED: ATOM     19  O12 UNL     1       2.215   3.821  -2.985 +0.00 -0.00    -0.274 OA 
DOCKED: ATOM     20  N8  UNL     1       4.129   3.052  -4.002 +0.00 -0.00    -0.301 N  
DOCKED: ATOM     21  H55 UNL     1       4.847   2.373  -3.776 +0.00 +0.00    +0.150 HD 
DOCKED: BRANCH  20  22
DOCKED: ATOM     22  C33 UNL     1       4.637   4.400  -4.281 +0.00 +0.00    +0.186 C  
DOCKED: BRANCH  22  23
DOCKED: ATOM     23  C41 UNL     1       5.223   5.013  -3.005 +0.00 +0.00    +0.326 C  
DOCKED: ATOM     24  O13 UNL     1       4.834   6.013  -2.416 +0.00 -0.00    -0.249 OA 
DOCKED: BRANCH  23  25
DOCKED: ATOM     25  O14 UNL     1       6.319   4.357  -2.564 +0.00 -0.00    -0.479 OA 
DOCKED: ATOM     26  H64 UNL     1       5.954   3.514  -2.221 +0.00 +0.00    +0.295 HD 
DOCKED: ENDBRANCH  23  25
DOCKED: ENDBRANCH  22  23
DOCKED: BRANCH  22  27
DOCKED: ATOM     27  C34 UNL     1       3.520   5.347  -4.752 +0.00 +0.00    +0.069 C  
DOCKED: BRANCH  27  28
DOCKED: ATOM     28  C35 UNL     1       2.655   4.776  -5.851 +0.00 -0.00    -0.045 A  
DOCKED: ATOM     29  C36 UNL     1       3.224   3.987  -6.862 +0.00 +0.00    +0.004 A  
DOCKED: ATOM     30  C37 UNL     1       2.433   3.481  -7.896 +0.00 +0.00    +0.000 A  
DOCKED: ATOM     31  C38 UNL     1       1.068   3.754  -7.926 +0.00 +0.00    +0.000 A  
DOCKED: ATOM     32  C39 UNL     1       0.490   4.532  -6.923 +0.00 +0.00    +0.000 A  
DOCKED: ATOM     33  C40 UNL     1       1.281   5.045  -5.892 +0.00 +0.00    +0.004 A  
DOCKED: ENDBRANCH  27  28
DOCKED: ENDBRANCH  22  27
DOCKED: ENDBRANCH  20  22
DOCKED: ENDBRANCH  17  18
DOCKED: BRANCH  17  34
DOCKED: ATOM     34  C29 UNL     1       2.713   1.161  -1.456 +0.00 +0.00    +0.043 C  
DOCKED: BRANCH  34  35
DOCKED: ATOM     35  C30 UNL     1       3.195   2.360  -0.636 +0.00 +0.00    +0.123 C  
DOCKED: BRANCH  35  36
DOCKED: ATOM     36  C31 UNL     1       4.670   2.624  -0.764 +0.00 +0.00    +0.305 C  
DOCKED: ATOM     37  O10 UNL     1       5.306   3.457  -0.134 +0.00 -0.00    -0.251 OA 
DOCKED: BRANCH  36  38
DOCKED: ATOM     38  O11 UNL     1       5.264   1.883  -1.713 +0.00 -0.00    -0.481 OA 
DOCKED: ATOM     39  H54 UNL     1       6.179   2.230  -1.770 +0.00 +0.00    +0.295 HD 
DOCKED: ENDBRANCH  36  38
DOCKED: ENDBRANCH  35  36
DOCKED: ENDBRANCH  34  35
DOCKED: ENDBRANCH  17  34
DOCKED: ENDBRANCH  15  17
DOCKED: ENDBRANCH  11  13
DOCKED: ENDBRANCH   9  11
DOCKED: ENDBRANCH   5   7
DOCKED: ENDBRANCH   4   5
DOCKED: ENDBRANCH   1   4
DOCKED: BRANCH   1  40
DOCKED: ATOM     40  C5  UNL     1       7.334  -0.727  -0.103 +0.00 +0.00    +0.102 C  
DOCKED: BRANCH  40  41
DOCKED: ATOM     41  N1  UNL     1       8.230   0.401  -0.413 +0.00 -0.00    -0.308 N  
DOCKED: ATOM     42  C6  UNL     1       9.424   0.679   0.214 +0.00 +0.00    +0.234 C  
DOCKED: ATOM     43  O1  UNL     1       9.828   0.056   1.193 +0.00 -0.00    -0.274 OA 
DOCKED: ATOM     44  H11 UNL     1       8.002   0.942  -1.243 +0.00 +0.00    +0.149 HD 
DOCKED: BRANCH  42  45
DOCKED: ATOM     45  C7  UNL     1      10.262   1.771  -0.468 +0.00 +0.00    +0.168 C  
DOCKED: BRANCH  45  46
DOCKED: ATOM     46  N3  UNL     1      10.207   1.588  -1.918 +0.00 -0.00    -0.302 N  
DOCKED: ATOM     47  C10 UNL     1      10.484   0.360  -2.480 +0.00 +0.00    +0.234 C  
DOCKED: ATOM     48  O3  UNL     1      10.730  -0.647  -1.808 +0.00 -0.00    -0.274 OA 
DOCKED: ATOM     49  H17 UNL     1       9.618   2.218  -2.449 +0.00 +0.00    +0.150 HD 
DOCKED: BRANCH  47  50
DOCKED: ATOM     50  C11 UNL     1      10.472   0.335  -4.027 +0.00 +0.00    +0.161 C  
DOCKED: BRANCH  50  51
DOCKED: ATOM     51  N4  UNL     1       9.417   1.252  -4.458 +0.00 -0.00    -0.302 N  
DOCKED: ATOM     52  C12 UNL     1       8.283   0.732  -5.055 +0.00 +0.00    +0.230 C  
DOCKED: ATOM     53  O4  UNL     1       8.257  -0.378  -5.582 +0.00 -0.00    -0.274 OA 
DOCKED: ATOM     54  H19 UNL     1       9.271   2.042  -3.844 +0.00 +0.00    +0.150 HD 
DOCKED: BRANCH  52  55
DOCKED: ATOM     55  C13 UNL     1       7.040   1.663  -5.016 +0.00 +0.00    +0.138 C  
DOCKED: BRANCH  55  56
DOCKED: ATOM     56  N5  UNL     1       6.828   2.150  -3.636 +0.00 -0.00    -0.320 NA 
DOCKED: ATOM     57  H21 UNL     1       6.977   1.354  -3.007 +0.00 +0.00    +0.119 HD 
DOCKED: ATOM     58  H22 UNL     1       7.614   2.763  -3.400 +0.00 +0.00    +0.119 HD 
DOCKED: ENDBRANCH  55  56
DOCKED: BRANCH  55  59
DOCKED: ATOM     59  C14 UNL     1       7.234   2.841  -5.977 +0.00 +0.00    +0.039 C  
DOCKED: BRANCH  59  60
DOCKED: ATOM     60  C15 UNL     1       7.626   4.151  -5.292 +0.00 +0.00    +0.122 C  
DOCKED: BRANCH  60  61
DOCKED: ATOM     61  C16 UNL     1       8.945   3.990  -4.589 +0.00 +0.00    +0.305 C  
DOCKED: ATOM     62  O5  UNL     1      10.012   3.748  -5.131 +0.00 -0.00    -0.251 OA 
DOCKED: BRANCH  61  63
DOCKED: ATOM     63  O6  UNL     1       8.835   4.088  -3.251 +0.00 -0.00    -0.481 OA 
DOCKED: ATOM     64  H27 UNL     1       7.867   4.001  -3.055 +0.00 +0.00    +0.295 HD 
DOCKED: ENDBRANCH  61  63
DOCKED: ENDBRANCH  60  61
DOCKED: ENDBRANCH  59  60
DOCKED: ENDBRANCH  55  59
DOCKED: ENDBRANCH  52  55
DOCKED: ENDBRANCH  50  51
DOCKED: BRANCH  50  65
DOCKED: ATOM     65  C17 UNL     1      11.857   0.678  -4.612 +0.00 +0.00    +0.012 C  
DOCKED: ATOM     66  C18 UNL     1      11.777   0.826  -6.134 +0.00 +0.00    +0.009 C  
DOCKED: ATOM     67  C19 UNL     1      12.485   1.936  -4.005 +0.00 +0.00    +0.009 C  
DOCKED: ENDBRANCH  50  65
DOCKED: ENDBRANCH  47  50
DOCKED: ENDBRANCH  45  46
DOCKED: BRANCH  45  68
DOCKED: ATOM     68  C8  UNL     1       9.685   3.128  -0.049 +0.00 +0.00    +0.127 C  
DOCKED: BRANCH  68  69
DOCKED: ATOM     69  C9  UNL     1       8.315   3.376  -0.633 +0.00 +0.00    +0.213 C  
DOCKED: ATOM     70  N2  UNL     1       7.745   4.553  -0.243 +0.00 -0.00    -0.329 N  
DOCKED: ATOM     71  O2  UNL     1       7.729   2.618  -1.398 +0.00 -0.00    -0.276 OA 
DOCKED: ATOM     72  H15 UNL     1       6.816   4.763  -0.587 +0.00 +0.00    +0.145 HD 
DOCKED: ATOM     73  H16 UNL     1       8.189   5.213   0.381 +0.00 +0.00    +0.145 HD 
DOCKED: ENDBRANCH  68  69
DOCKED: ENDBRANCH  45  68
DOCKED: ENDBRANCH  42  45
DOCKED: ENDBRANCH  40  41
DOCKED: BRANCH  40  74
DOCKED: ATOM     74  C4  UNL     1       6.790  -0.539   1.337 +0.00 +0.00    +0.028 C  
DOCKED: BRANCH  74  76
DOCKED: ATOM     75  C1  UNL     1       4.652   0.359   2.450 +0.00 +0.00    +0.007 C  
DOCKED: ATOM     76  C2  UNL     1       5.914   0.696   1.654 +0.00 -0.00    -0.015 C  
DOCKED: ATOM     77  C3  UNL     1       6.678   1.848   2.302 +0.00 +0.00    +0.007 C  
DOCKED: ENDBRANCH  74  76
DOCKED: ENDBRANCH  40  74
DOCKED: ENDBRANCH   1  40
DOCKED: TORSDOF 34
DOCKED: TER
DOCKED: ENDMDL
________________________________________________________________________________


    FINAL DOCKED STATE:
    ________________________


Run:   14 / 20
Time taken for this run:   5.922s

DOCKED: MODEL        14
DOCKED: USER    Run = 14
DOCKED: USER
DOCKED: USER    Estimated Free Energy of Binding    = +10.14 kcal/mol  [=(1)+(2)+(3)-(4)]
DOCKED: USER
DOCKED: USER    (1) Final Intermolecular Energy     =  +0.00 kcal/mol
DOCKED: USER        vdW + Hbond + desolv Energy     =  +0.00 kcal/mol
DOCKED: USER        Electrostatic Energy            =  +0.00 kcal/mol
DOCKED: USER        Moving Ligand-Fixed Receptor    =  +0.00 kcal/mol
DOCKED: USER        Moving Ligand-Moving Receptor   =  +0.00 kcal/mol
DOCKED: USER    (2) Final Total Internal Energy     = -29.23 kcal/mol
DOCKED: USER    (3) Torsional Free Energy           = +10.14 kcal/mol
DOCKED: USER    (4) Unbound System's Energy         = -29.23 kcal/mol
DOCKED: USER
DOCKED: USER
DOCKED: REMARK  Name = ligands/ligand_0.pdb
DOCKED: REMARK  40 active torsions:
DOCKED: REMARK  status: ('A' for Active; 'I' for Inactive)
DOCKED: REMARK    1  A    between atoms: C1_1  and  C2_2
DOCKED: REMARK    2  A    between atoms: C2_2  and  C3_3
DOCKED: REMARK    3  A    between atoms: C2_2  and  C4_4
DOCKED: REMARK    4  A    between atoms: C4_4  and  C5_5
DOCKED: REMARK    5  A    between atoms: C5_5  and  N1_6
DOCKED: REMARK    6  A    between atoms: C5_5  and  C20_31
DOCKED: REMARK    7  A    between atoms: C6_7  and  C7_9
DOCKED: REMARK    8  A    between atoms: C7_9  and  C8_10
DOCKED: REMARK    9  A    between atoms: C7_9  and  N3_14
DOCKED: REMARK   10  A    between atoms: C8_10  and  C9_11
DOCKED: REMARK   11  A    between atoms: C10_15  and  C11_17
DOCKED: REMARK   12  A    between atoms: C11_17  and  N4_18
DOCKED: REMARK   13  A    between atoms: C11_17  and  C17_28
DOCKED: REMARK   14  A    between atoms: C12_19  and  C13_21
DOCKED: REMARK   15  A    between atoms: C13_21  and  N5_22
DOCKED: REMARK   16  A    between atoms: C13_21  and  C14_23
DOCKED: REMARK   17  A    between atoms: C14_23  and  C15_24
DOCKED: REMARK   18  A    between atoms: C15_24  and  C16_25
DOCKED: REMARK   19  A    between atoms: C16_25  and  O6_27
DOCKED: REMARK   20  A    between atoms: C17_28  and  C18_29
DOCKED: REMARK   21  A    between atoms: C17_28  and  C19_30
DOCKED: REMARK   22  A    between atoms: C20_31  and  O7_32
DOCKED: REMARK   23  A    between atoms: C20_31  and  C21_33
DOCKED: REMARK   24  A    between atoms: C21_33  and  C22_34
DOCKED: REMARK   25  A    between atoms: C22_34  and  C23_35
DOCKED: REMARK   26  A    between atoms: C22_34  and  C24_36
DOCKED: REMARK   27  A    between atoms: N6_38  and  C25_39
DOCKED: REMARK   28  A    between atoms: C25_39  and  C26_40
DOCKED: REMARK   29  A    between atoms: C25_39  and  C27_41
DOCKED: REMARK   30  A    between atoms: N7_43  and  C28_44
DOCKED: REMARK   31  A    between atoms: C28_44  and  C29_45
DOCKED: REMARK   32  A    between atoms: C28_44  and  C32_50
DOCKED: REMARK   33  A    between atoms: C29_45  and  C30_46
DOCKED: REMARK   34  A    between atoms: C30_46  and  C31_47
DOCKED: REMARK   35  A    between atoms: C31_47  and  O11_49
DOCKED: REMARK   36  A    between atoms: N8_52  and  C33_53
DOCKED: REMARK   37  A    between atoms: C33_53  and  C34_54
DOCKED: REMARK   38  A    between atoms: C33_53  and  C41_61
DOCKED: REMARK   39  A    between atoms: C34_54  and  C35_55
DOCKED: REMARK   40  A    between atoms: C41_61  and  O14_63
DOCKED: REMARK                            x       y       z     vdW  Elec       q    Type
DOCKED: REMARK                         _______ _______ _______ _____ _____    ______ ____
DOCKED: USER                              x       y       z     vdW  Elec       q    Type
DOCKED: USER                           _______ _______ _______ _____ _____    ______ ____
DOCKED: ROOT
DOCKED: ATOM      1  C20 UNL     1       7.316  -7.593  -1.341 +0.00 +0.00    +0.135 C  
DOCKED: ENDROOT
DOCKED: BRANCH   1   2
DOCKED: ATOM      2  O7  UNL     1       7.846  -6.291  -1.115 +0.00 -0.00    -0.390 OA 
DOCKED: ATOM      3  H36 UNL     1       8.473  -6.080  -1.840 +0.00 +0.00    +0.210 HD 
DOCKED: ENDBRANCH   1   2
DOCKED: BRANCH   1   4
DOCKED: ATOM      4  C21 UNL     1       5.786  -7.582  -1.150 +0.00 +0.00    +0.045 C  
DOCKED: BRANCH   4   5
DOCKED: ATOM      5  C22 UNL     1       4.999  -6.442  -1.828 +0.00 +0.00    +0.074 C  
DOCKED: ATOM      6  C23 UNL     1       4.659  -5.342  -0.811 +0.00 +0.00    +0.017 C  
DOCKED: BRANCH   5   7
DOCKED: ATOM      7  C24 UNL     1       5.811  -5.802  -2.958 +0.00 +0.00    +0.217 C  
DOCKED: ATOM      8  O8  UNL     1       6.776  -5.066  -2.774 +0.00 -0.00    -0.276 OA 
DOCKED: ATOM      9  N6  UNL     1       5.338  -6.083  -4.227 +0.00 -0.00    -0.304 N  
DOCKED: ATOM     10  H43 UNL     1       4.378  -6.416  -4.286 +0.00 +0.00    +0.149 HD 
DOCKED: BRANCH   9  11
DOCKED: ATOM     11  C25 UNL     1       5.845  -5.294  -5.345 +0.00 +0.00    +0.156 C  
DOCKED: ATOM     12  C26 UNL     1       5.264  -5.787  -6.664 +0.00 +0.00    +0.038 C  
DOCKED: BRANCH  11  13
DOCKED: ATOM     13  C27 UNL     1       5.481  -3.807  -5.130 +0.00 +0.00    +0.234 C  
DOCKED: ATOM     14  O9  UNL     1       4.563  -3.248  -5.736 +0.00 -0.00    -0.274 OA 
DOCKED: ATOM     15  N7  UNL     1       6.293  -3.145  -4.236 +0.00 -0.00    -0.302 N  
DOCKED: ATOM     16  H48 UNL     1       7.180  -3.568  -3.980 +0.00 +0.00    +0.150 HD 
DOCKED: BRANCH  15  17
DOCKED: ATOM     17  C28 UNL     1       6.208  -1.698  -4.061 +0.00 +0.00    +0.159 C  
DOCKED: BRANCH  17  18
DOCKED: ATOM     18  C32 UNL     1       7.594  -1.115  -4.401 +0.00 +0.00    +0.234 C  
DOCKED: ATOM     19  O12 UNL     1       7.754   0.061  -4.714 +0.00 -0.00    -0.274 OA 
DOCKED: ATOM     20  N8  UNL     1       8.599  -2.059  -4.432 +0.00 -0.00    -0.301 N  
DOCKED: ATOM     21  H55 UNL     1       8.484  -2.800  -3.750 +0.00 +0.00    +0.150 HD 
DOCKED: BRANCH  20  22
DOCKED: ATOM     22  C33 UNL     1       9.988  -1.637  -4.639 +0.00 +0.00    +0.186 C  
DOCKED: BRANCH  22  23
DOCKED: ATOM     23  C41 UNL     1      10.318  -0.453  -3.724 +0.00 +0.00    +0.326 C  
DOCKED: ATOM     24  O13 UNL     1      10.658   0.673  -4.060 +0.00 -0.00    -0.249 OA 
DOCKED: BRANCH  23  25
DOCKED: ATOM     25  O14 UNL     1      10.255  -0.773  -2.412 +0.00 -0.00    -0.479 OA 
DOCKED: ATOM     26  H64 UNL     1       9.766  -1.623  -2.411 +0.00 +0.00    +0.295 HD 
DOCKED: ENDBRANCH  23  25
DOCKED: ENDBRANCH  22  23
DOCKED: BRANCH  22  27
DOCKED: ATOM     27  C34 UNL     1      10.232  -1.159  -6.081 +0.00 +0.00    +0.069 C  
DOCKED: BRANCH  27  28
DOCKED: ATOM     28  C35 UNL     1       9.900  -2.191  -7.134 +0.00 -0.00    -0.045 A  
DOCKED: ATOM     29  C36 UNL     1       8.562  -2.496  -7.428 +0.00 +0.00    +0.004 A  
DOCKED: ATOM     30  C37 UNL     1       8.250  -3.469  -8.379 +0.00 +0.00    +0.000 A  
DOCKED: ATOM     31  C38 UNL     1       9.270  -4.140  -9.050 +0.00 +0.00    +0.000 A  
DOCKED: ATOM     32  C39 UNL     1      10.603  -3.840  -8.770 +0.00 +0.00    +0.000 A  
DOCKED: ATOM     33  C40 UNL     1      10.917  -2.873  -7.814 +0.00 +0.00    +0.004 A  
DOCKED: ENDBRANCH  27  28
DOCKED: ENDBRANCH  22  27
DOCKED: ENDBRANCH  20  22
DOCKED: ENDBRANCH  17  18
DOCKED: BRANCH  17  34
DOCKED: ATOM     34  C29 UNL     1       5.831  -1.369  -2.609 +0.00 +0.00    +0.043 C  
DOCKED: BRANCH  34  35
DOCKED: ATOM     35  C30 UNL     1       6.312  -2.400  -1.586 +0.00 +0.00    +0.123 C  
DOCKED: BRANCH  35  36
DOCKED: ATOM     36  C31 UNL     1       7.804  -2.415  -1.400 +0.00 +0.00    +0.305 C  
DOCKED: ATOM     37  O10 UNL     1       8.442  -1.673  -0.666 +0.00 -0.00    -0.251 OA 
DOCKED: BRANCH  36  38
DOCKED: ATOM     38  O11 UNL     1       8.430  -3.308  -2.182 +0.00 -0.00    -0.481 OA 
DOCKED: ATOM     39  H54 UNL     1       8.195  -4.182  -1.805 +0.00 +0.00    +0.295 HD 
DOCKED: ENDBRANCH  36  38
DOCKED: ENDBRANCH  35  36
DOCKED: ENDBRANCH  34  35
DOCKED: ENDBRANCH  17  34
DOCKED: ENDBRANCH  15  17
DOCKED: ENDBRANCH  11  13
DOCKED: ENDBRANCH   9  11
DOCKED: ENDBRANCH   5   7
DOCKED: ENDBRANCH   4   5
DOCKED: ENDBRANCH   1   4
DOCKED: BRANCH   1  40
DOCKED: ATOM     40  C5  UNL     1       7.866  -8.290  -2.617 +0.00 +0.00    +0.102 C  
DOCKED: BRANCH  40  41
DOCKED: ATOM     41  N1  UNL     1       8.282  -7.381  -3.700 +0.00 -0.00    -0.308 N  
DOCKED: ATOM     42  C6  UNL     1       8.422  -7.720  -5.027 +0.00 +0.00    +0.234 C  
DOCKED: ATOM     43  O1  UNL     1       8.310  -8.871  -5.441 +0.00 -0.00    -0.274 OA 
DOCKED: ATOM     44  H11 UNL     1       8.347  -6.395  -3.460 +0.00 +0.00    +0.149 HD 
DOCKED: BRANCH  42  45
DOCKED: ATOM     45  C7  UNL     1       8.635  -6.524  -5.969 +0.00 +0.00    +0.168 C  
DOCKED: BRANCH  45  46
DOCKED: ATOM     46  N3  UNL     1       9.861  -5.823  -5.592 +0.00 -0.00    -0.302 N  
DOCKED: ATOM     47  C10 UNL     1       9.894  -5.024  -4.469 +0.00 +0.00    +0.234 C  
DOCKED: ATOM     48  O3  UNL     1       8.933  -4.903  -3.703 +0.00 -0.00    -0.274 OA 
DOCKED: ATOM     49  H17 UNL     1      10.741  -6.212  -5.910 +0.00 +0.00    +0.150 HD 
DOCKED: BRANCH  47  50
DOCKED: ATOM     50  C11 UNL     1      11.229  -4.277  -4.241 +0.00 +0.00    +0.161 C  
DOCKED: BRANCH  50  51
DOCKED: ATOM     51  N4  UNL     1      11.408  -4.158  -2.795 +0.00 -0.00    -0.302 N  
DOCKED: ATOM     52  C12 UNL     1      12.337  -3.255  -2.309 +0.00 +0.00    +0.230 C  
DOCKED: ATOM     53  O4  UNL     1      13.270  -2.830  -2.987 +0.00 -0.00    -0.274 OA 
DOCKED: ATOM     54  H19 UNL     1      10.556  -4.247  -2.258 +0.00 +0.00    +0.150 HD 
DOCKED: BRANCH  52  55
DOCKED: ATOM     55  C13 UNL     1      12.118  -2.824  -0.833 +0.00 +0.00    +0.138 C  
DOCKED: BRANCH  55  56
DOCKED: ATOM     56  N5  UNL     1      10.701  -2.452  -0.630 +0.00 -0.00    -0.320 NA 
DOCKED: ATOM     57  H21 UNL     1      10.635  -1.436  -0.745 +0.00 +0.00    +0.119 HD 
DOCKED: ATOM     58  H22 UNL     1      10.173  -2.797  -1.438 +0.00 +0.00    +0.119 HD 
DOCKED: ENDBRANCH  55  56
DOCKED: BRANCH  55  59
DOCKED: ATOM     59  C14 UNL     1      12.515  -3.963   0.113 +0.00 +0.00    +0.039 C  
DOCKED: BRANCH  59  60
DOCKED: ATOM     60  C15 UNL     1      11.330  -4.709   0.728 +0.00 +0.00    +0.122 C  
DOCKED: BRANCH  60  61
DOCKED: ATOM     61  C16 UNL     1      10.422  -5.218  -0.357 +0.00 +0.00    +0.305 C  
DOCKED: ATOM     62  O5  UNL     1      10.686  -6.120  -1.137 +0.00 -0.00    -0.251 OA 
DOCKED: BRANCH  61  63
DOCKED: ATOM     63  O6  UNL     1       9.267  -4.531  -0.432 +0.00 -0.00    -0.481 OA 
DOCKED: ATOM     64  H27 UNL     1       9.525  -3.574  -0.443 +0.00 +0.00    +0.295 HD 
DOCKED: ENDBRANCH  61  63
DOCKED: ENDBRANCH  60  61
DOCKED: ENDBRANCH  59  60
DOCKED: ENDBRANCH  55  59
DOCKED: ENDBRANCH  52  55
DOCKED: ENDBRANCH  50  51
DOCKED: BRANCH  50  65
DOCKED: ATOM     65  C17 UNL     1      12.404  -4.986  -4.946 +0.00 +0.00    +0.012 C  
DOCKED: ATOM     66  C18 UNL     1      13.326  -3.962  -5.617 +0.00 +0.00    +0.009 C  
DOCKED: ATOM     67  C19 UNL     1      13.225  -5.885  -4.017 +0.00 +0.00    +0.009 C  
DOCKED: ENDBRANCH  50  65
DOCKED: ENDBRANCH  47  50
DOCKED: ENDBRANCH  45  46
DOCKED: BRANCH  45  68
DOCKED: ATOM     68  C8  UNL     1       8.715  -7.070  -7.400 +0.00 +0.00    +0.127 C  
DOCKED: BRANCH  68  69
DOCKED: ATOM     69  C9  UNL     1      10.036  -7.744  -7.686 +0.00 +0.00    +0.213 C  
DOCKED: ATOM     70  N2  UNL     1      10.008  -9.103  -7.572 +0.00 -0.00    -0.329 N  
DOCKED: ATOM     71  O2  UNL     1      11.068  -7.162  -8.000 +0.00 -0.00    -0.276 OA 
DOCKED: ATOM     72  H15 UNL     1      10.871  -9.608  -7.732 +0.00 +0.00    +0.145 HD 
DOCKED: ATOM     73  H16 UNL     1       9.181  -9.629  -7.321 +0.00 +0.00    +0.145 HD 
DOCKED: ENDBRANCH  68  69
DOCKED: ENDBRANCH  45  68
DOCKED: ENDBRANCH  42  45
DOCKED: ENDBRANCH  40  41
DOCKED: BRANCH  40  74
DOCKED: ATOM     74  C4  UNL     1       9.018  -9.291  -2.347 +0.00 +0.00    +0.028 C  
DOCKED: BRANCH  74  76
DOCKED: ATOM     75  C1  UNL     1      11.360  -9.209  -1.286 +0.00 +0.00    +0.007 C  
DOCKED: ATOM     76  C2  UNL     1      10.481  -8.803  -2.470 +0.00 -0.00    -0.015 C  
DOCKED: ATOM     77  C3  UNL     1      11.147  -9.169  -3.795 +0.00 +0.00    +0.007 C  
DOCKED: ENDBRANCH  74  76
DOCKED: ENDBRANCH  40  74
DOCKED: ENDBRANCH   1  40
DOCKED: TORSDOF 34
DOCKED: TER
DOCKED: ENDMDL
________________________________________________________________________________


    FINAL DOCKED STATE:
    ________________________


Run:   15 / 20
Time taken for this run:   5.922s

DOCKED: MODEL        15
DOCKED: USER    Run = 15
DOCKED: USER
DOCKED: USER    Estimated Free Energy of Binding    = +10.14 kcal/mol  [=(1)+(2)+(3)-(4)]
DOCKED: USER
DOCKED: USER    (1) Final Intermolecular Energy     =  +0.00 kcal/mol
DOCKED: USER        vdW + Hbond + desolv Energy     =  +0.00 kcal/mol
DOCKED: USER        Electrostatic Energy            =  +0.00 kcal/mol
DOCKED: USER        Moving Ligand-Fixed Receptor    =  +0.00 kcal/mol
DOCKED: USER        Moving Ligand-Moving Receptor   =  +0.00 kcal/mol
DOCKED: USER    (2) Final Total Internal Energy     = -31.83 kcal/mol
DOCKED: USER    (3) Torsional Free Energy           = +10.14 kcal/mol
DOCKED: USER    (4) Unbound System's Energy         = -31.83 kcal/mol
DOCKED: USER
DOCKED: USER
DOCKED: REMARK  Name = ligands/ligand_0.pdb
DOCKED: REMARK  40 active torsions:
DOCKED: REMARK  status: ('A' for Active; 'I' for Inactive)
DOCKED: REMARK    1  A    between atoms: C1_1  and  C2_2
DOCKED: REMARK    2  A    between atoms: C2_2  and  C3_3
DOCKED: REMARK    3  A    between atoms: C2_2  and  C4_4
DOCKED: REMARK    4  A    between atoms: C4_4  and  C5_5
DOCKED: REMARK    5  A    between atoms: C5_5  and  N1_6
DOCKED: REMARK    6  A    between atoms: C5_5  and  C20_31
DOCKED: REMARK    7  A    between atoms: C6_7  and  C7_9
DOCKED: REMARK    8  A    between atoms: C7_9  and  C8_10
DOCKED: REMARK    9  A    between atoms: C7_9  and  N3_14
DOCKED: REMARK   10  A    between atoms: C8_10  and  C9_11
DOCKED: REMARK   11  A    between atoms: C10_15  and  C11_17
DOCKED: REMARK   12  A    between atoms: C11_17  and  N4_18
DOCKED: REMARK   13  A    between atoms: C11_17  and  C17_28
DOCKED: REMARK   14  A    between atoms: C12_19  and  C13_21
DOCKED: REMARK   15  A    between atoms: C13_21  and  N5_22
DOCKED: REMARK   16  A    between atoms: C13_21  and  C14_23
DOCKED: REMARK   17  A    between atoms: C14_23  and  C15_24
DOCKED: REMARK   18  A    between atoms: C15_24  and  C16_25
DOCKED: REMARK   19  A    between atoms: C16_25  and  O6_27
DOCKED: REMARK   20  A    between atoms: C17_28  and  C18_29
DOCKED: REMARK   21  A    between atoms: C17_28  and  C19_30
DOCKED: REMARK   22  A    between atoms: C20_31  and  O7_32
DOCKED: REMARK   23  A    between atoms: C20_31  and  C21_33
DOCKED: REMARK   24  A    between atoms: C21_33  and  C22_34
DOCKED: REMARK   25  A    between atoms: C22_34  and  C23_35
DOCKED: REMARK   26  A    between atoms: C22_34  and  C24_36
DOCKED: REMARK   27  A    between atoms: N6_38  and  C25_39
DOCKED: REMARK   28  A    between atoms: C25_39  and  C26_40
DOCKED: REMARK   29  A    between atoms: C25_39  and  C27_41
DOCKED: REMARK   30  A    between atoms: N7_43  and  C28_44
DOCKED: REMARK   31  A    between atoms: C28_44  and  C29_45
DOCKED: REMARK   32  A    between atoms: C28_44  and  C32_50
DOCKED: REMARK   33  A    between atoms: C29_45  and  C30_46
DOCKED: REMARK   34  A    between atoms: C30_46  and  C31_47
DOCKED: REMARK   35  A    between atoms: C31_47  and  O11_49
DOCKED: REMARK   36  A    between atoms: N8_52  and  C33_53
DOCKED: REMARK   37  A    between atoms: C33_53  and  C34_54
DOCKED: REMARK   38  A    between atoms: C33_53  and  C41_61
DOCKED: REMARK   39  A    between atoms: C34_54  and  C35_55
DOCKED: REMARK   40  A    between atoms: C41_61  and  O14_63
DOCKED: REMARK                            x       y       z     vdW  Elec       q    Type
DOCKED: REMARK                         _______ _______ _______ _____ _____    ______ ____
DOCKED: USER                              x       y       z     vdW  Elec       q    Type
DOCKED: USER                           _______ _______ _______ _____ _____    ______ ____
DOCKED: ROOT
DOCKED: ATOM      1  C20 UNL     1       7.621  -9.849   4.549 +0.00 +0.00    +0.135 C  
DOCKED: ENDROOT
DOCKED: BRANCH   1   2
DOCKED: ATOM      2  O7  UNL     1       7.195  -8.675   5.234 +0.00 -0.00    -0.390 OA 
DOCKED: ATOM      3  H36 UNL     1       7.927  -8.369   5.812 +0.00 +0.00    +0.210 HD 
DOCKED: ENDBRANCH   1   2
DOCKED: BRANCH   1   4
DOCKED: ATOM      4  C21 UNL     1       6.406 -10.737   4.217 +0.00 +0.00    +0.045 C  
DOCKED: BRANCH   4   5
DOCKED: ATOM      5  C22 UNL     1       5.006 -10.117   4.402 +0.00 +0.00    +0.074 C  
DOCKED: ATOM      6  C23 UNL     1       4.020 -10.694   3.375 +0.00 +0.00    +0.017 C  
DOCKED: BRANCH   5   7
DOCKED: ATOM      7  C24 UNL     1       4.451 -10.406   5.801 +0.00 +0.00    +0.217 C  
DOCKED: ATOM      8  O8  UNL     1       3.254 -10.423   6.069 +0.00 -0.00    -0.276 OA 
DOCKED: ATOM      9  N6  UNL     1       5.420 -10.603   6.767 +0.00 -0.00    -0.304 N  
DOCKED: ATOM     10  H43 UNL     1       6.353 -10.261   6.545 +0.00 +0.00    +0.149 HD 
DOCKED: BRANCH   9  11
DOCKED: ATOM     11  C25 UNL     1       5.014 -10.587   8.168 +0.00 +0.00    +0.156 C  
DOCKED: ATOM     12  C26 UNL     1       6.208 -10.829   9.082 +0.00 +0.00    +0.038 C  
DOCKED: BRANCH  11  13
DOCKED: ATOM     13  C27 UNL     1       4.364  -9.224   8.498 +0.00 +0.00    +0.234 C  
DOCKED: ATOM     14  O9  UNL     1       3.413  -9.106   9.275 +0.00 -0.00    -0.274 OA 
DOCKED: ATOM     15  N7  UNL     1       4.908  -8.154   7.822 +0.00 -0.00    -0.302 N  
DOCKED: ATOM     16  H48 UNL     1       5.490  -8.338   7.010 +0.00 +0.00    +0.150 HD 
DOCKED: BRANCH  15  17
DOCKED: ATOM     17  C28 UNL     1       4.292  -6.832   7.872 +0.00 +0.00    +0.159 C  
DOCKED: BRANCH  17  18
DOCKED: ATOM     18  C32 UNL     1       4.499  -6.178   6.490 +0.00 +0.00    +0.234 C  
DOCKED: ATOM     19  O12 UNL     1       3.616  -5.541   5.926 +0.00 -0.00    -0.274 OA 
DOCKED: ATOM     20  N8  UNL     1       5.716  -6.478   5.914 +0.00 -0.00    -0.301 N  
DOCKED: ATOM     21  H55 UNL     1       6.473  -6.567   6.582 +0.00 +0.00    +0.150 HD 
DOCKED: BRANCH  20  22
DOCKED: ATOM     22  C33 UNL     1       6.096  -5.845   4.647 +0.00 +0.00    +0.186 C  
DOCKED: BRANCH  22  23
DOCKED: ATOM     23  C41 UNL     1       7.603  -5.998   4.416 +0.00 +0.00    +0.326 C  
DOCKED: ATOM     24  O13 UNL     1       8.192  -6.015   3.345 +0.00 -0.00    -0.249 OA 
DOCKED: BRANCH  23  25
DOCKED: ATOM     25  O14 UNL     1       8.292  -6.182   5.565 +0.00 -0.00    -0.479 OA 
DOCKED: ATOM     26  H64 UNL     1       7.745  -6.834   6.053 +0.00 +0.00    +0.295 HD 
DOCKED: ENDBRANCH  23  25
DOCKED: ENDBRANCH  22  23
DOCKED: BRANCH  22  27
DOCKED: ATOM     27  C34 UNL     1       5.803  -4.334   4.651 +0.00 +0.00    +0.069 C  
DOCKED: BRANCH  27  28
DOCKED: ATOM     28  C35 UNL     1       6.764  -3.524   5.489 +0.00 -0.00    -0.045 A  
DOCKED: ATOM     29  C36 UNL     1       7.851  -2.872   4.886 +0.00 +0.00    +0.004 A  
DOCKED: ATOM     30  C37 UNL     1       8.758  -2.145   5.660 +0.00 +0.00    +0.000 A  
DOCKED: ATOM     31  C38 UNL     1       8.585  -2.060   7.039 +0.00 +0.00    +0.000 A  
DOCKED: ATOM     32  C39 UNL     1       7.505  -2.699   7.647 +0.00 +0.00    +0.000 A  
DOCKED: ATOM     33  C40 UNL     1       6.601  -3.432   6.876 +0.00 +0.00    +0.004 A  
DOCKED: ENDBRANCH  27  28
DOCKED: ENDBRANCH  22  27
DOCKED: ENDBRANCH  20  22
DOCKED: ENDBRANCH  17  18
DOCKED: BRANCH  17  34
DOCKED: ATOM     34  C29 UNL     1       4.958  -5.987   8.968 +0.00 +0.00    +0.043 C  
DOCKED: BRANCH  34  35
DOCKED: ATOM     35  C30 UNL     1       6.284  -6.554   9.480 +0.00 +0.00    +0.123 C  
DOCKED: BRANCH  35  36
DOCKED: ATOM     36  C31 UNL     1       7.324  -6.718   8.407 +0.00 +0.00    +0.305 C  
DOCKED: ATOM     37  O10 UNL     1       8.011  -5.825   7.933 +0.00 -0.00    -0.251 OA 
DOCKED: BRANCH  36  38
DOCKED: ATOM     38  O11 UNL     1       7.411  -7.972   7.937 +0.00 -0.00    -0.481 OA 
DOCKED: ATOM     39  H54 UNL     1       7.955  -7.901   7.125 +0.00 +0.00    +0.295 HD 
DOCKED: ENDBRANCH  36  38
DOCKED: ENDBRANCH  35  36
DOCKED: ENDBRANCH  34  35
DOCKED: ENDBRANCH  17  34
DOCKED: ENDBRANCH  15  17
DOCKED: ENDBRANCH  11  13
DOCKED: ENDBRANCH   9  11
DOCKED: ENDBRANCH   5   7
DOCKED: ENDBRANCH   4   5
DOCKED: ENDBRANCH   1   4
DOCKED: BRANCH   1  40
DOCKED: ATOM     40  C5  UNL     1       8.638  -9.581   3.403 +0.00 +0.00    +0.102 C  
DOCKED: BRANCH  40  41
DOCKED: ATOM     41  N1  UNL     1       9.470  -8.378   3.570 +0.00 -0.00    -0.308 N  
DOCKED: ATOM     42  C6  UNL     1      10.557  -8.035   2.796 +0.00 +0.00    +0.234 C  
DOCKED: ATOM     43  O1  UNL     1      11.018  -8.769   1.926 +0.00 -0.00    -0.274 OA 
DOCKED: ATOM     44  H11 UNL     1       9.133  -7.685   4.233 +0.00 +0.00    +0.149 HD 
DOCKED: BRANCH  42  45
DOCKED: ATOM     45  C7  UNL     1      11.089  -6.614   3.040 +0.00 +0.00    +0.168 C  
DOCKED: BRANCH  45  46
DOCKED: ATOM     46  N3  UNL     1      10.731  -6.189   4.392 +0.00 -0.00    -0.302 N  
DOCKED: ATOM     47  C10 UNL     1      11.292  -5.057   4.943 +0.00 +0.00    +0.234 C  
DOCKED: ATOM     48  O3  UNL     1      12.066  -4.321   4.323 +0.00 -0.00    -0.274 OA 
DOCKED: ATOM     49  H17 UNL     1       9.831  -6.483   4.754 +0.00 +0.00    +0.150 HD 
DOCKED: BRANCH  47  50
DOCKED: ATOM     50  C11 UNL     1      10.887  -4.778   6.410 +0.00 +0.00    +0.161 C  
DOCKED: BRANCH  50  51
DOCKED: ATOM     51  N4  UNL     1      10.641  -6.076   7.038 +0.00 -0.00    -0.302 N  
DOCKED: ATOM     52  C12 UNL     1      11.694  -6.729   7.654 +0.00 +0.00    +0.230 C  
DOCKED: ATOM     53  O4  UNL     1      12.871  -6.490   7.392 +0.00 -0.00    -0.274 OA 
DOCKED: ATOM     54  H19 UNL     1       9.742  -6.158   7.493 +0.00 +0.00    +0.150 HD 
DOCKED: BRANCH  52  55
DOCKED: ATOM     55  C13 UNL     1      11.275  -7.798   8.700 +0.00 +0.00    +0.138 C  
DOCKED: BRANCH  55  56
DOCKED: ATOM     56  N5  UNL     1       9.813  -7.740   8.910 +0.00 -0.00    -0.320 NA 
DOCKED: ATOM     57  H21 UNL     1       9.422  -7.159   8.163 +0.00 +0.00    +0.119 HD 
DOCKED: ATOM     58  H22 UNL     1       9.432  -8.666   8.687 +0.00 +0.00    +0.119 HD 
DOCKED: ENDBRANCH  55  56
DOCKED: BRANCH  55  59
DOCKED: ATOM     59  C14 UNL     1      11.695  -9.194   8.224 +0.00 +0.00    +0.039 C  
DOCKED: BRANCH  59  60
DOCKED: ATOM     60  C15 UNL     1      11.171  -9.566   6.836 +0.00 +0.00    +0.122 C  
DOCKED: BRANCH  60  61
DOCKED: ATOM     61  C16 UNL     1       9.710  -9.227   6.728 +0.00 +0.00    +0.305 C  
DOCKED: ATOM     62  O5  UNL     1       8.788  -9.955   7.062 +0.00 -0.00    -0.251 OA 
DOCKED: BRANCH  61  63
DOCKED: ATOM     63  O6  UNL     1       9.497  -8.026   6.160 +0.00 -0.00    -0.481 OA 
DOCKED: ATOM     64  H27 UNL     1       9.190  -7.434   6.892 +0.00 +0.00    +0.295 HD 
DOCKED: ENDBRANCH  61  63
DOCKED: ENDBRANCH  60  61
DOCKED: ENDBRANCH  59  60
DOCKED: ENDBRANCH  55  59
DOCKED: ENDBRANCH  52  55
DOCKED: ENDBRANCH  50  51
DOCKED: BRANCH  50  65
DOCKED: ATOM     65  C17 UNL     1      11.951  -3.936   7.143 +0.00 +0.00    +0.012 C  
DOCKED: ATOM     66  C18 UNL     1      12.102  -2.563   6.479 +0.00 +0.00    +0.009 C  
DOCKED: ATOM     67  C19 UNL     1      11.668  -3.756   8.637 +0.00 +0.00    +0.009 C  
DOCKED: ENDBRANCH  50  65
DOCKED: ENDBRANCH  47  50
DOCKED: ENDBRANCH  45  46
DOCKED: BRANCH  45  68
DOCKED: ATOM     68  C8  UNL     1      12.610  -6.649   2.844 +0.00 +0.00    +0.127 C  
DOCKED: BRANCH  68  69
DOCKED: ATOM     69  C9  UNL     1      13.301  -7.524   3.863 +0.00 +0.00    +0.213 C  
DOCKED: ATOM     70  N2  UNL     1      13.529  -6.913   5.062 +0.00 -0.00    -0.329 N  
DOCKED: ATOM     71  O2  UNL     1      13.641  -8.686   3.677 +0.00 -0.00    -0.276 OA 
DOCKED: ATOM     72  H15 UNL     1      14.008  -7.444   5.778 +0.00 +0.00    +0.145 HD 
DOCKED: ATOM     73  H16 UNL     1      13.263  -5.959   5.267 +0.00 +0.00    +0.145 HD 
DOCKED: ENDBRANCH  68  69
DOCKED: ENDBRANCH  45  68
DOCKED: ENDBRANCH  42  45
DOCKED: ENDBRANCH  40  41
DOCKED: BRANCH  40  74
DOCKED: ATOM     74  C4  UNL     1       9.568 -10.781   3.086 +0.00 +0.00    +0.028 C  
DOCKED: BRANCH  74  76
DOCKED: ATOM     75  C1  UNL     1      10.116 -12.478   4.940 +0.00 +0.00    +0.007 C  
DOCKED: ATOM     76  C2  UNL     1      10.581 -11.249   4.157 +0.00 -0.00    -0.015 C  
DOCKED: ATOM     77  C3  UNL     1      11.999 -11.445   3.624 +0.00 +0.00    +0.007 C  
DOCKED: ENDBRANCH  74  76
DOCKED: ENDBRANCH  40  74
DOCKED: ENDBRANCH   1  40
DOCKED: TORSDOF 34
DOCKED: TER
DOCKED: ENDMDL
________________________________________________________________________________


    FINAL DOCKED STATE:
    ________________________


Run:   16 / 20
Time taken for this run:   5.922s

DOCKED: MODEL        16
DOCKED: USER    Run = 16
DOCKED: USER
DOCKED: USER    Estimated Free Energy of Binding    = +10.14 kcal/mol  [=(1)+(2)+(3)-(4)]
DOCKED: USER
DOCKED: USER    (1) Final Intermolecular Energy     =  +0.00 kcal/mol
DOCKED: USER        vdW + Hbond + desolv Energy     =  +0.00 kcal/mol
DOCKED: USER        Electrostatic Energy            =  +0.00 kcal/mol
DOCKED: USER        Moving Ligand-Fixed Receptor    =  +0.00 kcal/mol
DOCKED: USER        Moving Ligand-Moving Receptor   =  +0.00 kcal/mol
DOCKED: USER    (2) Final Total Internal Energy     = -30.16 kcal/mol
DOCKED: USER    (3) Torsional Free Energy           = +10.14 kcal/mol
DOCKED: USER    (4) Unbound System's Energy         = -30.16 kcal/mol
DOCKED: USER
DOCKED: USER
DOCKED: REMARK  Name = ligands/ligand_0.pdb
DOCKED: REMARK  40 active torsions:
DOCKED: REMARK  status: ('A' for Active; 'I' for Inactive)
DOCKED: REMARK    1  A    between atoms: C1_1  and  C2_2
DOCKED: REMARK    2  A    between atoms: C2_2  and  C3_3
DOCKED: REMARK    3  A    between atoms: C2_2  and  C4_4
DOCKED: REMARK    4  A    between atoms: C4_4  and  C5_5
DOCKED: REMARK    5  A    between atoms: C5_5  and  N1_6
DOCKED: REMARK    6  A    between atoms: C5_5  and  C20_31
DOCKED: REMARK    7  A    between atoms: C6_7  and  C7_9
DOCKED: REMARK    8  A    between atoms: C7_9  and  C8_10
DOCKED: REMARK    9  A    between atoms: C7_9  and  N3_14
DOCKED: REMARK   10  A    between atoms: C8_10  and  C9_11
DOCKED: REMARK   11  A    between atoms: C10_15  and  C11_17
DOCKED: REMARK   12  A    between atoms: C11_17  and  N4_18
DOCKED: REMARK   13  A    between atoms: C11_17  and  C17_28
DOCKED: REMARK   14  A    between atoms: C12_19  and  C13_21
DOCKED: REMARK   15  A    between atoms: C13_21  and  N5_22
DOCKED: REMARK   16  A    between atoms: C13_21  and  C14_23
DOCKED: REMARK   17  A    between atoms: C14_23  and  C15_24
DOCKED: REMARK   18  A    between atoms: C15_24  and  C16_25
DOCKED: REMARK   19  A    between atoms: C16_25  and  O6_27
DOCKED: REMARK   20  A    between atoms: C17_28  and  C18_29
DOCKED: REMARK   21  A    between atoms: C17_28  and  C19_30
DOCKED: REMARK   22  A    between atoms: C20_31  and  O7_32
DOCKED: REMARK   23  A    between atoms: C20_31  and  C21_33
DOCKED: REMARK   24  A    between atoms: C21_33  and  C22_34
DOCKED: REMARK   25  A    between atoms: C22_34  and  C23_35
DOCKED: REMARK   26  A    between atoms: C22_34  and  C24_36
DOCKED: REMARK   27  A    between atoms: N6_38  and  C25_39
DOCKED: REMARK   28  A    between atoms: C25_39  and  C26_40
DOCKED: REMARK   29  A    between atoms: C25_39  and  C27_41
DOCKED: REMARK   30  A    between atoms: N7_43  and  C28_44
DOCKED: REMARK   31  A    between atoms: C28_44  and  C29_45
DOCKED: REMARK   32  A    between atoms: C28_44  and  C32_50
DOCKED: REMARK   33  A    between atoms: C29_45  and  C30_46
DOCKED: REMARK   34  A    between atoms: C30_46  and  C31_47
DOCKED: REMARK   35  A    between atoms: C31_47  and  O11_49
DOCKED: REMARK   36  A    between atoms: N8_52  and  C33_53
DOCKED: REMARK   37  A    between atoms: C33_53  and  C34_54
DOCKED: REMARK   38  A    between atoms: C33_53  and  C41_61
DOCKED: REMARK   39  A    between atoms: C34_54  and  C35_55
DOCKED: REMARK   40  A    between atoms: C41_61  and  O14_63
DOCKED: REMARK                            x       y       z     vdW  Elec       q    Type
DOCKED: REMARK                         _______ _______ _______ _____ _____    ______ ____
DOCKED: USER                              x       y       z     vdW  Elec       q    Type
DOCKED: USER                           _______ _______ _______ _____ _____    ______ ____
DOCKED: ROOT
DOCKED: ATOM      1  C20 UNL     1       8.459  -3.828  -3.856 +0.00 +0.00    +0.135 C  
DOCKED: ENDROOT
DOCKED: BRANCH   1   2
DOCKED: ATOM      2  O7  UNL     1       8.573  -4.273  -2.508 +0.00 -0.00    -0.390 OA 
DOCKED: ATOM      3  H36 UNL     1       8.144  -3.612  -1.924 +0.00 +0.00    +0.210 HD 
DOCKED: ENDBRANCH   1   2
DOCKED: BRANCH   1   4
DOCKED: ATOM      4  C21 UNL     1       9.846  -3.819  -4.529 +0.00 +0.00    +0.045 C  
DOCKED: BRANCH   4   5
DOCKED: ATOM      5  C22 UNL     1      10.139  -4.929  -5.558 +0.00 +0.00    +0.074 C  
DOCKED: ATOM      6  C23 UNL     1      11.416  -4.609  -6.348 +0.00 +0.00    +0.017 C  
DOCKED: BRANCH   5   7
DOCKED: ATOM      7  C24 UNL     1      10.339  -6.285  -4.872 +0.00 +0.00    +0.217 C  
DOCKED: ATOM      8  O8  UNL     1       9.427  -6.937  -4.372 +0.00 -0.00    -0.276 OA 
DOCKED: ATOM      9  N6  UNL     1      11.655  -6.704  -4.814 +0.00 -0.00    -0.304 N  
DOCKED: ATOM     10  H43 UNL     1      12.362  -5.985  -4.950 +0.00 +0.00    +0.149 HD 
DOCKED: BRANCH   9  11
DOCKED: ATOM     11  C25 UNL     1      11.989  -7.816  -3.931 +0.00 +0.00    +0.156 C  
DOCKED: ATOM     12  C26 UNL     1      13.336  -8.421  -4.306 +0.00 +0.00    +0.038 C  
DOCKED: BRANCH  11  13
DOCKED: ATOM     13  C27 UNL     1      12.022  -7.319  -2.468 +0.00 +0.00    +0.234 C  
DOCKED: ATOM     14  O9  UNL     1      12.583  -7.941  -1.562 +0.00 -0.00    -0.274 OA 
DOCKED: ATOM     15  N7  UNL     1      11.339  -6.142  -2.250 +0.00 -0.00    -0.302 N  
DOCKED: ATOM     16  H48 UNL     1      10.683  -5.824  -2.957 +0.00 +0.00    +0.150 HD 
DOCKED: BRANCH  15  17
DOCKED: ATOM     17  C28 UNL     1      11.112  -5.635  -0.901 +0.00 +0.00    +0.159 C  
DOCKED: BRANCH  17  18
DOCKED: ATOM     18  C32 UNL     1       9.767  -6.213  -0.416 +0.00 +0.00    +0.234 C  
DOCKED: ATOM     19  O12 UNL     1       9.446  -6.226   0.768 +0.00 -0.00    -0.274 OA 
DOCKED: ATOM     20  N8  UNL     1       9.029  -6.809  -1.417 +0.00 -0.00    -0.301 N  
DOCKED: ATOM     21  H55 UNL     1       9.121  -6.355  -2.318 +0.00 +0.00    +0.150 HD 
DOCKED: BRANCH  20  22
DOCKED: ATOM     22  C33 UNL     1       7.682  -7.311  -1.126 +0.00 +0.00    +0.186 C  
DOCKED: BRANCH  22  23
DOCKED: ATOM     23  C41 UNL     1       6.837  -6.205  -0.487 +0.00 +0.00    +0.326 C  
DOCKED: ATOM     24  O13 UNL     1       6.225  -6.256   0.571 +0.00 -0.00    -0.249 OA 
DOCKED: BRANCH  23  25
DOCKED: ATOM     25  O14 UNL     1       6.761  -5.095  -1.254 +0.00 -0.00    -0.479 OA 
DOCKED: ATOM     26  H64 UNL     1       7.322  -4.450  -0.774 +0.00 +0.00    +0.295 HD 
DOCKED: ENDBRANCH  23  25
DOCKED: ENDBRANCH  22  23
DOCKED: BRANCH  22  27
DOCKED: ATOM     27  C34 UNL     1       7.709  -8.479  -0.125 +0.00 +0.00    +0.069 C  
DOCKED: BRANCH  27  28
DOCKED: ATOM     28  C35 UNL     1       8.943  -9.345  -0.225 +0.00 -0.00    -0.045 A  
DOCKED: ATOM     29  C36 UNL     1       9.269  -9.975  -1.436 +0.00 +0.00    +0.004 A  
DOCKED: ATOM     30  C37 UNL     1      10.392 -10.799  -1.527 +0.00 +0.00    +0.000 A  
DOCKED: ATOM     31  C38 UNL     1      11.202 -10.997  -0.411 +0.00 +0.00    +0.000 A  
DOCKED: ATOM     32  C39 UNL     1      10.891 -10.371   0.796 +0.00 +0.00    +0.000 A  
DOCKED: ATOM     33  C40 UNL     1       9.764  -9.552   0.890 +0.00 +0.00    +0.004 A  
DOCKED: ENDBRANCH  27  28
DOCKED: ENDBRANCH  22  27
DOCKED: ENDBRANCH  20  22
DOCKED: ENDBRANCH  17  18
DOCKED: BRANCH  17  34
DOCKED: ATOM     34  C29 UNL     1      11.057  -4.101  -0.922 +0.00 +0.00    +0.043 C  
DOCKED: BRANCH  34  35
DOCKED: ATOM     35  C30 UNL     1      10.425  -3.477   0.324 +0.00 +0.00    +0.123 C  
DOCKED: BRANCH  35  36
DOCKED: ATOM     36  C31 UNL     1       8.937  -3.285   0.213 +0.00 +0.00    +0.305 C  
DOCKED: ATOM     37  O10 UNL     1       8.368  -2.536  -0.568 +0.00 -0.00    -0.251 OA 
DOCKED: BRANCH  36  38
DOCKED: ATOM     38  O11 UNL     1       8.240  -3.987   1.120 +0.00 -0.00    -0.481 OA 
DOCKED: ATOM     39  H54 UNL     1       7.820  -4.711   0.612 +0.00 +0.00    +0.295 HD 
DOCKED: ENDBRANCH  36  38
DOCKED: ENDBRANCH  35  36
DOCKED: ENDBRANCH  34  35
DOCKED: ENDBRANCH  17  34
DOCKED: ENDBRANCH  15  17
DOCKED: ENDBRANCH  11  13
DOCKED: ENDBRANCH   9  11
DOCKED: ENDBRANCH   5   7
DOCKED: ENDBRANCH   4   5
DOCKED: ENDBRANCH   1   4
DOCKED: BRANCH   1  40
DOCKED: ATOM     40  C5  UNL     1       7.293  -4.487  -4.646 +0.00 +0.00    +0.102 C  
DOCKED: BRANCH  40  41
DOCKED: ATOM     41  N1  UNL     1       6.463  -5.428  -3.873 +0.00 -0.00    -0.308 N  
DOCKED: ATOM     42  C6  UNL     1       6.021  -6.658  -4.308 +0.00 +0.00    +0.234 C  
DOCKED: ATOM     43  O1  UNL     1       6.192  -7.065  -5.454 +0.00 -0.00    -0.274 OA 
DOCKED: ATOM     44  H11 UNL     1       6.314  -5.198  -2.894 +0.00 +0.00    +0.149 HD 
DOCKED: BRANCH  42  45
DOCKED: ATOM     45  C7  UNL     1       5.378  -7.526  -3.215 +0.00 +0.00    +0.168 C  
DOCKED: BRANCH  45  46
DOCKED: ATOM     46  N3  UNL     1       4.609  -6.672  -2.310 +0.00 -0.00    -0.302 N  
DOCKED: ATOM     47  C10 UNL     1       3.849  -7.226  -1.302 +0.00 +0.00    +0.234 C  
DOCKED: ATOM     48  O3  UNL     1       3.820  -8.439  -1.071 +0.00 -0.00    -0.274 OA 
DOCKED: ATOM     49  H17 UNL     1       4.925  -5.719  -2.181 +0.00 +0.00    +0.150 HD 
DOCKED: BRANCH  47  50
DOCKED: ATOM     50  C11 UNL     1       3.022  -6.210  -0.478 +0.00 +0.00    +0.161 C  
DOCKED: BRANCH  50  51
DOCKED: ATOM     51  N4  UNL     1       3.798  -4.972  -0.428 +0.00 -0.00    -0.302 N  
DOCKED: ATOM     52  C12 UNL     1       3.449  -4.003   0.496 +0.00 +0.00    +0.230 C  
DOCKED: ATOM     53  O4  UNL     1       2.333  -3.941   1.007 +0.00 -0.00    -0.274 OA 
DOCKED: ATOM     54  H19 UNL     1       4.789  -5.091  -0.591 +0.00 +0.00    +0.150 HD 
DOCKED: BRANCH  52  55
DOCKED: ATOM     55  C13 UNL     1       4.577  -2.989   0.835 +0.00 +0.00    +0.138 C  
DOCKED: BRANCH  55  56
DOCKED: ATOM     56  N5  UNL     1       5.894  -3.608   0.577 +0.00 -0.00    -0.320 NA 
DOCKED: ATOM     57  H21 UNL     1       5.810  -4.151  -0.288 +0.00 +0.00    +0.119 HD 
DOCKED: ATOM     58  H22 UNL     1       6.538  -2.860   0.302 +0.00 +0.00    +0.119 HD 
DOCKED: ENDBRANCH  55  56
DOCKED: BRANCH  55  59
DOCKED: ATOM     59  C14 UNL     1       4.408  -1.715  -0.001 +0.00 +0.00    +0.039 C  
DOCKED: BRANCH  59  60
DOCKED: ATOM     60  C15 UNL     1       4.091  -1.970  -1.475 +0.00 +0.00    +0.122 C  
DOCKED: BRANCH  60  61
DOCKED: ATOM     61  C16 UNL     1       5.042  -2.989  -2.038 +0.00 +0.00    +0.305 C  
DOCKED: ATOM     62  O5  UNL     1       4.721  -4.039  -2.574 +0.00 -0.00    -0.251 OA 
DOCKED: BRANCH  61  63
DOCKED: ATOM     63  O6  UNL     1       6.332  -2.656  -1.846 +0.00 -0.00    -0.481 OA 
DOCKED: ATOM     64  H27 UNL     1       6.754  -3.451  -1.431 +0.00 +0.00    +0.295 HD 
DOCKED: ENDBRANCH  61  63
DOCKED: ENDBRANCH  60  61
DOCKED: ENDBRANCH  59  60
DOCKED: ENDBRANCH  55  59
DOCKED: ENDBRANCH  52  55
DOCKED: ENDBRANCH  50  51
DOCKED: BRANCH  50  65
DOCKED: ATOM     65  C17 UNL     1       1.607  -6.022  -1.064 +0.00 +0.00    +0.012 C  
DOCKED: ATOM     66  C18 UNL     1       1.666  -5.208  -2.361 +0.00 +0.00    +0.009 C  
DOCKED: ATOM     67  C19 UNL     1       0.868  -7.339  -1.317 +0.00 +0.00    +0.009 C  
DOCKED: ENDBRANCH  50  65
DOCKED: ENDBRANCH  47  50
DOCKED: ENDBRANCH  45  46
DOCKED: BRANCH  45  68
DOCKED: ATOM     68  C8  UNL     1       4.485  -8.560  -3.909 +0.00 +0.00    +0.127 C  
DOCKED: BRANCH  68  69
DOCKED: ATOM     69  C9  UNL     1       3.297  -7.928  -4.594 +0.00 +0.00    +0.213 C  
DOCKED: ATOM     70  N2  UNL     1       3.511  -7.605  -5.902 +0.00 -0.00    -0.329 N  
DOCKED: ATOM     71  O2  UNL     1       2.214  -7.710  -4.063 +0.00 -0.00    -0.276 OA 
DOCKED: ATOM     72  H15 UNL     1       2.755  -7.159  -6.407 +0.00 +0.00    +0.145 HD 
DOCKED: ATOM     73  H16 UNL     1       4.383  -7.769  -6.386 +0.00 +0.00    +0.145 HD 
DOCKED: ENDBRANCH  68  69
DOCKED: ENDBRANCH  45  68
DOCKED: ENDBRANCH  42  45
DOCKED: ENDBRANCH  40  41
DOCKED: BRANCH  40  74
DOCKED: ATOM     74  C4  UNL     1       6.356  -3.476  -5.356 +0.00 +0.00    +0.028 C  
DOCKED: BRANCH  74  76
DOCKED: ATOM     75  C1  UNL     1       3.908  -2.686  -5.370 +0.00 +0.00    +0.007 C  
DOCKED: ATOM     76  C2  UNL     1       4.872  -3.855  -5.578 +0.00 -0.00    -0.015 C  
DOCKED: ATOM     77  C3  UNL     1       4.604  -4.555  -6.908 +0.00 +0.00    +0.007 C  
DOCKED: ENDBRANCH  74  76
DOCKED: ENDBRANCH  40  74
DOCKED: ENDBRANCH   1  40
DOCKED: TORSDOF 34
DOCKED: TER
DOCKED: ENDMDL
________________________________________________________________________________


    FINAL DOCKED STATE:
    ________________________


Run:   17 / 20
Time taken for this run:   5.922s

DOCKED: MODEL        17
DOCKED: USER    Run = 17
DOCKED: USER
DOCKED: USER    Estimated Free Energy of Binding    = +10.14 kcal/mol  [=(1)+(2)+(3)-(4)]
DOCKED: USER
DOCKED: USER    (1) Final Intermolecular Energy     =  +0.00 kcal/mol
DOCKED: USER        vdW + Hbond + desolv Energy     =  +0.00 kcal/mol
DOCKED: USER        Electrostatic Energy            =  +0.00 kcal/mol
DOCKED: USER        Moving Ligand-Fixed Receptor    =  +0.00 kcal/mol
DOCKED: USER        Moving Ligand-Moving Receptor   =  +0.00 kcal/mol
DOCKED: USER    (2) Final Total Internal Energy     = -31.37 kcal/mol
DOCKED: USER    (3) Torsional Free Energy           = +10.14 kcal/mol
DOCKED: USER    (4) Unbound System's Energy         = -31.37 kcal/mol
DOCKED: USER
DOCKED: USER
DOCKED: REMARK  Name = ligands/ligand_0.pdb
DOCKED: REMARK  40 active torsions:
DOCKED: REMARK  status: ('A' for Active; 'I' for Inactive)
DOCKED: REMARK    1  A    between atoms: C1_1  and  C2_2
DOCKED: REMARK    2  A    between atoms: C2_2  and  C3_3
DOCKED: REMARK    3  A    between atoms: C2_2  and  C4_4
DOCKED: REMARK    4  A    between atoms: C4_4  and  C5_5
DOCKED: REMARK    5  A    between atoms: C5_5  and  N1_6
DOCKED: REMARK    6  A    between atoms: C5_5  and  C20_31
DOCKED: REMARK    7  A    between atoms: C6_7  and  C7_9
DOCKED: REMARK    8  A    between atoms: C7_9  and  C8_10
DOCKED: REMARK    9  A    between atoms: C7_9  and  N3_14
DOCKED: REMARK   10  A    between atoms: C8_10  and  C9_11
DOCKED: REMARK   11  A    between atoms: C10_15  and  C11_17
DOCKED: REMARK   12  A    between atoms: C11_17  and  N4_18
DOCKED: REMARK   13  A    between atoms: C11_17  and  C17_28
DOCKED: REMARK   14  A    between atoms: C12_19  and  C13_21
DOCKED: REMARK   15  A    between atoms: C13_21  and  N5_22
DOCKED: REMARK   16  A    between atoms: C13_21  and  C14_23
DOCKED: REMARK   17  A    between atoms: C14_23  and  C15_24
DOCKED: REMARK   18  A    between atoms: C15_24  and  C16_25
DOCKED: REMARK   19  A    between atoms: C16_25  and  O6_27
DOCKED: REMARK   20  A    between atoms: C17_28  and  C18_29
DOCKED: REMARK   21  A    between atoms: C17_28  and  C19_30
DOCKED: REMARK   22  A    between atoms: C20_31  and  O7_32
DOCKED: REMARK   23  A    between atoms: C20_31  and  C21_33
DOCKED: REMARK   24  A    between atoms: C21_33  and  C22_34
DOCKED: REMARK   25  A    between atoms: C22_34  and  C23_35
DOCKED: REMARK   26  A    between atoms: C22_34  and  C24_36
DOCKED: REMARK   27  A    between atoms: N6_38  and  C25_39
DOCKED: REMARK   28  A    between atoms: C25_39  and  C26_40
DOCKED: REMARK   29  A    between atoms: C25_39  and  C27_41
DOCKED: REMARK   30  A    between atoms: N7_43  and  C28_44
DOCKED: REMARK   31  A    between atoms: C28_44  and  C29_45
DOCKED: REMARK   32  A    between atoms: C28_44  and  C32_50
DOCKED: REMARK   33  A    between atoms: C29_45  and  C30_46
DOCKED: REMARK   34  A    between atoms: C30_46  and  C31_47
DOCKED: REMARK   35  A    between atoms: C31_47  and  O11_49
DOCKED: REMARK   36  A    between atoms: N8_52  and  C33_53
DOCKED: REMARK   37  A    between atoms: C33_53  and  C34_54
DOCKED: REMARK   38  A    between atoms: C33_53  and  C41_61
DOCKED: REMARK   39  A    between atoms: C34_54  and  C35_55
DOCKED: REMARK   40  A    between atoms: C41_61  and  O14_63
DOCKED: REMARK                            x       y       z     vdW  Elec       q    Type
DOCKED: REMARK                         _______ _______ _______ _____ _____    ______ ____
DOCKED: USER                              x       y       z     vdW  Elec       q    Type
DOCKED: USER                           _______ _______ _______ _____ _____    ______ ____
DOCKED: ROOT
DOCKED: ATOM      1  C20 UNL     1      12.135  -7.179  -7.224 +0.00 +0.00    +0.135 C  
DOCKED: ENDROOT
DOCKED: BRANCH   1   2
DOCKED: ATOM      2  O7  UNL     1      12.049  -6.077  -6.325 +0.00 -0.00    -0.390 OA 
DOCKED: ATOM      3  H36 UNL     1      12.607  -6.270  -5.541 +0.00 +0.00    +0.210 HD 
DOCKED: ENDBRANCH   1   2
DOCKED: BRANCH   1   4
DOCKED: ATOM      4  C21 UNL     1      10.723  -7.629  -7.646 +0.00 +0.00    +0.045 C  
DOCKED: BRANCH   4   5
DOCKED: ATOM      5  C22 UNL     1       9.866  -8.351  -6.586 +0.00 +0.00    +0.074 C  
DOCKED: ATOM      6  C23 UNL     1       9.268  -9.642  -7.164 +0.00 +0.00    +0.017 C  
DOCKED: BRANCH   5   7
DOCKED: ATOM      7  C24 UNL     1      10.704  -8.730  -5.359 +0.00 +0.00    +0.217 C  
DOCKED: ATOM      8  O8  UNL     1      11.351  -7.923  -4.700 +0.00 -0.00    -0.276 OA 
DOCKED: ATOM      9  N6  UNL     1      10.713 -10.083  -5.074 +0.00 -0.00    -0.304 N  
DOCKED: ATOM     10  H43 UNL     1      10.432 -10.704  -5.829 +0.00 +0.00    +0.149 HD 
DOCKED: BRANCH   9  11
DOCKED: ATOM     11  C25 UNL     1      11.703 -10.583  -4.125 +0.00 +0.00    +0.156 C  
DOCKED: ATOM     12  C26 UNL     1      13.096 -10.081  -4.479 +0.00 +0.00    +0.038 C  
DOCKED: BRANCH  11  13
DOCKED: ATOM     13  C27 UNL     1      11.323 -10.125  -2.699 +0.00 +0.00    +0.234 C  
DOCKED: ATOM     14  O9  UNL     1      10.456 -10.688  -2.023 +0.00 -0.00    -0.274 OA 
DOCKED: ATOM     15  N7  UNL     1      12.002  -9.012  -2.257 +0.00 -0.00    -0.302 N  
DOCKED: ATOM     16  H48 UNL     1      12.493  -8.440  -2.938 +0.00 +0.00    +0.150 HD 
DOCKED: BRANCH  15  17
DOCKED: ATOM     17  C28 UNL     1      11.632  -8.339  -1.016 +0.00 +0.00    +0.159 C  
DOCKED: BRANCH  17  18
DOCKED: ATOM     18  C32 UNL     1      10.457  -7.395  -1.341 +0.00 +0.00    +0.234 C  
DOCKED: ATOM     19  O12 UNL     1       9.507  -7.242  -0.578 +0.00 -0.00    -0.274 OA 
DOCKED: ATOM     20  N8  UNL     1      10.523  -6.844  -2.603 +0.00 -0.00    -0.301 N  
DOCKED: ATOM     21  H55 UNL     1      11.468  -6.647  -2.913 +0.00 +0.00    +0.150 HD 
DOCKED: BRANCH  20  22
DOCKED: ATOM     22  C33 UNL     1       9.530  -5.847  -3.014 +0.00 +0.00    +0.186 C  
DOCKED: BRANCH  22  23
DOCKED: ATOM     23  C41 UNL     1      10.111  -4.950  -4.112 +0.00 +0.00    +0.326 C  
DOCKED: ATOM     24  O13 UNL     1       9.498  -4.212  -4.871 +0.00 -0.00    -0.249 OA 
DOCKED: BRANCH  23  25
DOCKED: ATOM     25  O14 UNL     1      11.451  -5.076  -4.235 +0.00 -0.00    -0.479 OA 
DOCKED: ATOM     26  H64 UNL     1      11.586  -6.047  -4.246 +0.00 +0.00    +0.295 HD 
DOCKED: ENDBRANCH  23  25
DOCKED: ENDBRANCH  22  23
DOCKED: BRANCH  22  27
DOCKED: ATOM     27  C34 UNL     1       9.134  -4.919  -1.852 +0.00 +0.00    +0.069 C  
DOCKED: BRANCH  27  28
DOCKED: ATOM     28  C35 UNL     1      10.178  -3.883  -1.511 +0.00 -0.00    -0.045 A  
DOCKED: ATOM     29  C36 UNL     1       9.998  -2.544  -1.892 +0.00 +0.00    +0.004 A  
DOCKED: ATOM     30  C37 UNL     1      10.973  -1.588  -1.604 +0.00 +0.00    +0.000 A  
DOCKED: ATOM     31  C38 UNL     1      12.133  -1.958  -0.928 +0.00 +0.00    +0.000 A  
DOCKED: ATOM     32  C39 UNL     1      12.320  -3.284  -0.538 +0.00 +0.00    +0.000 A  
DOCKED: ATOM     33  C40 UNL     1      11.349  -4.243  -0.832 +0.00 +0.00    +0.004 A  
DOCKED: ENDBRANCH  27  28
DOCKED: ENDBRANCH  22  27
DOCKED: ENDBRANCH  20  22
DOCKED: ENDBRANCH  17  18
DOCKED: BRANCH  17  34
DOCKED: ATOM     34  C29 UNL     1      12.827  -7.538  -0.479 +0.00 +0.00    +0.043 C  
DOCKED: BRANCH  34  35
DOCKED: ATOM     35  C30 UNL     1      13.960  -7.345  -1.490 +0.00 +0.00    +0.123 C  
DOCKED: BRANCH  35  36
DOCKED: ATOM     36  C31 UNL     1      13.597  -6.439  -2.635 +0.00 +0.00    +0.305 C  
DOCKED: ATOM     37  O10 UNL     1      13.428  -5.231  -2.566 +0.00 -0.00    -0.251 OA 
DOCKED: BRANCH  36  38
DOCKED: ATOM     38  O11 UNL     1      13.405  -7.094  -3.791 +0.00 -0.00    -0.481 OA 
DOCKED: ATOM     39  H54 UNL     1      13.126  -6.404  -4.429 +0.00 +0.00    +0.295 HD 
DOCKED: ENDBRANCH  36  38
DOCKED: ENDBRANCH  35  36
DOCKED: ENDBRANCH  34  35
DOCKED: ENDBRANCH  17  34
DOCKED: ENDBRANCH  15  17
DOCKED: ENDBRANCH  11  13
DOCKED: ENDBRANCH   9  11
DOCKED: ENDBRANCH   5   7
DOCKED: ENDBRANCH   4   5
DOCKED: ENDBRANCH   1   4
DOCKED: BRANCH   1  40
DOCKED: ATOM     40  C5  UNL     1      13.187  -6.994  -8.354 +0.00 +0.00    +0.102 C  
DOCKED: BRANCH  40  41
DOCKED: ATOM     41  N1  UNL     1      14.324  -6.119  -8.018 +0.00 -0.00    -0.308 N  
DOCKED: ATOM     42  C6  UNL     1      15.023  -6.125  -6.831 +0.00 +0.00    +0.234 C  
DOCKED: ATOM     43  O1  UNL     1      14.696  -6.809  -5.864 +0.00 -0.00    -0.274 OA 
DOCKED: ATOM     44  H11 UNL     1      14.698  -5.555  -8.776 +0.00 +0.00    +0.149 HD 
DOCKED: BRANCH  42  45
DOCKED: ATOM     45  C7  UNL     1      16.305  -5.278  -6.843 +0.00 +0.00    +0.168 C  
DOCKED: BRANCH  45  46
DOCKED: ATOM     46  N3  UNL     1      15.948  -3.860  -6.839 +0.00 -0.00    -0.302 N  
DOCKED: ATOM     47  C10 UNL     1      15.765  -3.181  -8.024 +0.00 +0.00    +0.234 C  
DOCKED: ATOM     48  O3  UNL     1      15.831  -3.728  -9.130 +0.00 -0.00    -0.274 OA 
DOCKED: ATOM     49  H17 UNL     1      15.477  -3.497  -6.019 +0.00 +0.00    +0.150 HD 
DOCKED: BRANCH  47  50
DOCKED: ATOM     50  C11 UNL     1      15.477  -1.669  -7.869 +0.00 +0.00    +0.161 C  
DOCKED: BRANCH  50  51
DOCKED: ATOM     51  N4  UNL     1      14.188  -1.550  -7.188 +0.00 -0.00    -0.302 N  
DOCKED: ATOM     52  C12 UNL     1      13.035  -1.882  -7.878 +0.00 +0.00    +0.230 C  
DOCKED: ATOM     53  O4  UNL     1      12.977  -1.905  -9.106 +0.00 -0.00    -0.274 OA 
DOCKED: ATOM     54  H19 UNL     1      14.206  -1.803  -6.209 +0.00 +0.00    +0.150 HD 
DOCKED: BRANCH  52  55
DOCKED: ATOM     55  C13 UNL     1      11.812  -2.217  -6.981 +0.00 +0.00    +0.138 C  
DOCKED: BRANCH  55  56
DOCKED: ATOM     56  N5  UNL     1      11.676  -3.683  -6.856 +0.00 -0.00    -0.320 NA 
DOCKED: ATOM     57  H21 UNL     1      12.606  -4.088  -6.998 +0.00 +0.00    +0.119 HD 
DOCKED: ATOM     58  H22 UNL     1      11.496  -3.893  -5.869 +0.00 +0.00    +0.119 HD 
DOCKED: ENDBRANCH  55  56
DOCKED: BRANCH  55  59
DOCKED: ATOM     59  C14 UNL     1      11.979  -1.572  -5.600 +0.00 +0.00    +0.039 C  
DOCKED: BRANCH  59  60
DOCKED: ATOM     60  C15 UNL     1      12.226  -2.570  -4.469 +0.00 +0.00    +0.122 C  
DOCKED: BRANCH  60  61
DOCKED: ATOM     61  C16 UNL     1      13.596  -3.174  -4.604 +0.00 +0.00    +0.305 C  
DOCKED: ATOM     62  O5  UNL     1      14.638  -2.657  -4.234 +0.00 -0.00    -0.251 OA 
DOCKED: BRANCH  61  63
DOCKED: ATOM     63  O6  UNL     1      13.579  -4.359  -5.242 +0.00 -0.00    -0.481 OA 
DOCKED: ATOM     64  H27 UNL     1      13.020  -4.956  -4.683 +0.00 +0.00    +0.295 HD 
DOCKED: ENDBRANCH  61  63
DOCKED: ENDBRANCH  60  61
DOCKED: ENDBRANCH  59  60
DOCKED: ENDBRANCH  55  59
DOCKED: ENDBRANCH  52  55
DOCKED: ENDBRANCH  50  51
DOCKED: BRANCH  50  65
DOCKED: ATOM     65  C17 UNL     1      16.624  -0.944  -7.136 +0.00 +0.00    +0.012 C  
DOCKED: ATOM     66  C18 UNL     1      16.267  -0.723  -5.663 +0.00 +0.00    +0.009 C  
DOCKED: ATOM     67  C19 UNL     1      17.970  -1.668  -7.236 +0.00 +0.00    +0.009 C  
DOCKED: ENDBRANCH  50  65
DOCKED: ENDBRANCH  47  50
DOCKED: ENDBRANCH  45  46
DOCKED: BRANCH  45  68
DOCKED: ATOM     68  C8  UNL     1      17.123  -5.658  -5.603 +0.00 +0.00    +0.127 C  
DOCKED: BRANCH  68  69
DOCKED: ATOM     69  C9  UNL     1      16.854  -4.741  -4.434 +0.00 +0.00    +0.213 C  
DOCKED: ATOM     70  N2  UNL     1      15.642  -4.936  -3.837 +0.00 -0.00    -0.329 N  
DOCKED: ATOM     71  O2  UNL     1      17.627  -3.886  -4.018 +0.00 -0.00    -0.276 OA 
DOCKED: ATOM     72  H15 UNL     1      15.398  -4.335  -3.059 +0.00 +0.00    +0.145 HD 
DOCKED: ATOM     73  H16 UNL     1      14.972  -5.631  -4.139 +0.00 +0.00    +0.145 HD 
DOCKED: ENDBRANCH  68  69
DOCKED: ENDBRANCH  45  68
DOCKED: ENDBRANCH  42  45
DOCKED: ENDBRANCH  40  41
DOCKED: BRANCH  40  74
DOCKED: ATOM     74  C4  UNL     1      13.743  -8.323  -8.928 +0.00 +0.00    +0.028 C  
DOCKED: BRANCH  74  76
DOCKED: ATOM     75  C1  UNL     1      12.897 -10.670  -8.304 +0.00 +0.00    +0.007 C  
DOCKED: ATOM     76  C2  UNL     1      13.885  -9.545  -7.990 +0.00 -0.00    -0.015 C  
DOCKED: ATOM     77  C3  UNL     1      15.310 -10.082  -7.884 +0.00 +0.00    +0.007 C  
DOCKED: ENDBRANCH  74  76
DOCKED: ENDBRANCH  40  74
DOCKED: ENDBRANCH   1  40
DOCKED: TORSDOF 34
DOCKED: TER
DOCKED: ENDMDL
________________________________________________________________________________


    FINAL DOCKED STATE:
    ________________________


Run:   18 / 20
Time taken for this run:   5.922s

DOCKED: MODEL        18
DOCKED: USER    Run = 18
DOCKED: USER
DOCKED: USER    Estimated Free Energy of Binding    = +10.14 kcal/mol  [=(1)+(2)+(3)-(4)]
DOCKED: USER
DOCKED: USER    (1) Final Intermolecular Energy     =  +0.00 kcal/mol
DOCKED: USER        vdW + Hbond + desolv Energy     =  +0.00 kcal/mol
DOCKED: USER        Electrostatic Energy            =  +0.00 kcal/mol
DOCKED: USER        Moving Ligand-Fixed Receptor    =  +0.00 kcal/mol
DOCKED: USER        Moving Ligand-Moving Receptor   =  +0.00 kcal/mol
DOCKED: USER    (2) Final Total Internal Energy     = -31.37 kcal/mol
DOCKED: USER    (3) Torsional Free Energy           = +10.14 kcal/mol
DOCKED: USER    (4) Unbound System's Energy         = -31.37 kcal/mol
DOCKED: USER
DOCKED: USER
DOCKED: REMARK  Name = ligands/ligand_0.pdb
DOCKED: REMARK  40 active torsions:
DOCKED: REMARK  status: ('A' for Active; 'I' for Inactive)
DOCKED: REMARK    1  A    between atoms: C1_1  and  C2_2
DOCKED: REMARK    2  A    between atoms: C2_2  and  C3_3
DOCKED: REMARK    3  A    between atoms: C2_2  and  C4_4
DOCKED: REMARK    4  A    between atoms: C4_4  and  C5_5
DOCKED: REMARK    5  A    between atoms: C5_5  and  N1_6
DOCKED: REMARK    6  A    between atoms: C5_5  and  C20_31
DOCKED: REMARK    7  A    between atoms: C6_7  and  C7_9
DOCKED: REMARK    8  A    between atoms: C7_9  and  C8_10
DOCKED: REMARK    9  A    between atoms: C7_9  and  N3_14
DOCKED: REMARK   10  A    between atoms: C8_10  and  C9_11
DOCKED: REMARK   11  A    between atoms: C10_15  and  C11_17
DOCKED: REMARK   12  A    between atoms: C11_17  and  N4_18
DOCKED: REMARK   13  A    between atoms: C11_17  and  C17_28
DOCKED: REMARK   14  A    between atoms: C12_19  and  C13_21
DOCKED: REMARK   15  A    between atoms: C13_21  and  N5_22
DOCKED: REMARK   16  A    between atoms: C13_21  and  C14_23
DOCKED: REMARK   17  A    between atoms: C14_23  and  C15_24
DOCKED: REMARK   18  A    between atoms: C15_24  and  C16_25
DOCKED: REMARK   19  A    between atoms: C16_25  and  O6_27
DOCKED: REMARK   20  A    between atoms: C17_28  and  C18_29
DOCKED: REMARK   21  A    between atoms: C17_28  and  C19_30
DOCKED: REMARK   22  A    between atoms: C20_31  and  O7_32
DOCKED: REMARK   23  A    between atoms: C20_31  and  C21_33
DOCKED: REMARK   24  A    between atoms: C21_33  and  C22_34
DOCKED: REMARK   25  A    between atoms: C22_34  and  C23_35
DOCKED: REMARK   26  A    between atoms: C22_34  and  C24_36
DOCKED: REMARK   27  A    between atoms: N6_38  and  C25_39
DOCKED: REMARK   28  A    between atoms: C25_39  and  C26_40
DOCKED: REMARK   29  A    between atoms: C25_39  and  C27_41
DOCKED: REMARK   30  A    between atoms: N7_43  and  C28_44
DOCKED: REMARK   31  A    between atoms: C28_44  and  C29_45
DOCKED: REMARK   32  A    between atoms: C28_44  and  C32_50
DOCKED: REMARK   33  A    between atoms: C29_45  and  C30_46
DOCKED: REMARK   34  A    between atoms: C30_46  and  C31_47
DOCKED: REMARK   35  A    between atoms: C31_47  and  O11_49
DOCKED: REMARK   36  A    between atoms: N8_52  and  C33_53
DOCKED: REMARK   37  A    between atoms: C33_53  and  C34_54
DOCKED: REMARK   38  A    between atoms: C33_53  and  C41_61
DOCKED: REMARK   39  A    between atoms: C34_54  and  C35_55
DOCKED: REMARK   40  A    between atoms: C41_61  and  O14_63
DOCKED: REMARK                            x       y       z     vdW  Elec       q    Type
DOCKED: REMARK                         _______ _______ _______ _____ _____    ______ ____
DOCKED: USER                              x       y       z     vdW  Elec       q    Type
DOCKED: USER                           _______ _______ _______ _____ _____    ______ ____
DOCKED: ROOT
DOCKED: ATOM      1  C20 UNL     1       8.331  -5.259   2.026 +0.00 +0.00    +0.135 C  
DOCKED: ENDROOT
DOCKED: BRANCH   1   2
DOCKED: ATOM      2  O7  UNL     1       7.122  -4.664   2.488 +0.00 -0.00    -0.390 OA 
DOCKED: ATOM      3  H36 UNL     1       7.349  -3.934   3.103 +0.00 +0.00    +0.210 HD 
DOCKED: ENDBRANCH   1   2
DOCKED: BRANCH   1   4
DOCKED: ATOM      4  C21 UNL     1       8.269  -6.789   2.205 +0.00 +0.00    +0.045 C  
DOCKED: BRANCH   4   5
DOCKED: ATOM      5  C22 UNL     1       8.181  -7.328   3.647 +0.00 +0.00    +0.074 C  
DOCKED: ATOM      6  C23 UNL     1       9.089  -8.554   3.821 +0.00 +0.00    +0.017 C  
DOCKED: BRANCH   5   7
DOCKED: ATOM      7  C24 UNL     1       8.622  -6.269   4.664 +0.00 +0.00    +0.217 C  
DOCKED: ATOM      8  O8  UNL     1       8.050  -5.195   4.821 +0.00 -0.00    -0.276 OA 
DOCKED: ATOM      9  N6  UNL     1       9.761  -6.602   5.372 +0.00 -0.00    -0.304 N  
DOCKED: ATOM     10  H43 UNL     1      10.343  -7.334   4.970 +0.00 +0.00    +0.149 HD 
DOCKED: BRANCH   9  11
DOCKED: ATOM     11  C25 UNL     1      10.431  -5.556   6.138 +0.00 +0.00    +0.156 C  
DOCKED: ATOM     12  C26 UNL     1      10.677  -4.325   5.276 +0.00 +0.00    +0.038 C  
DOCKED: BRANCH  11  13
DOCKED: ATOM     13  C27 UNL     1       9.561  -5.180   7.360 +0.00 +0.00    +0.234 C  
DOCKED: ATOM     14  O9  UNL     1       9.527  -5.857   8.391 +0.00 -0.00    -0.274 OA 
DOCKED: ATOM     15  N7  UNL     1       8.797  -4.047   7.189 +0.00 -0.00    -0.302 N  
DOCKED: ATOM     16  H48 UNL     1       8.659  -3.692   6.248 +0.00 +0.00    +0.150 HD 
DOCKED: BRANCH  15  17
DOCKED: ATOM     17  C28 UNL     1       7.784  -3.660   8.166 +0.00 +0.00    +0.159 C  
DOCKED: BRANCH  17  18
DOCKED: ATOM     18  C32 UNL     1       6.527  -4.506   7.880 +0.00 +0.00    +0.234 C  
DOCKED: ATOM     19  O12 UNL     1       5.847  -4.995   8.777 +0.00 -0.00    -0.274 OA 
DOCKED: ATOM     20  N8  UNL     1       6.318  -4.750   6.539 +0.00 -0.00    -0.301 N  
DOCKED: ATOM     21  H55 UNL     1       6.593  -3.983   5.937 +0.00 +0.00    +0.150 HD 
DOCKED: BRANCH  20  22
DOCKED: ATOM     22  C33 UNL     1       5.105  -5.453   6.108 +0.00 +0.00    +0.186 C  
DOCKED: BRANCH  22  23
DOCKED: ATOM     23  C41 UNL     1       4.793  -5.112   4.648 +0.00 +0.00    +0.326 C  
DOCKED: ATOM     24  O13 UNL     1       4.007  -5.683   3.904 +0.00 -0.00    -0.249 OA 
DOCKED: BRANCH  23  25
DOCKED: ATOM     25  O14 UNL     1       5.541  -4.089   4.178 +0.00 -0.00    -0.479 OA 
DOCKED: ATOM     26  H64 UNL     1       6.447  -4.320   4.471 +0.00 +0.00    +0.295 HD 
DOCKED: ENDBRANCH  23  25
DOCKED: ENDBRANCH  22  23
DOCKED: BRANCH  22  27
DOCKED: ATOM     27  C34 UNL     1       3.876  -5.032   6.932 +0.00 +0.00    +0.069 C  
DOCKED: BRANCH  27  28
DOCKED: ATOM     28  C35 UNL     1       3.329  -3.672   6.567 +0.00 -0.00    -0.045 A  
DOCKED: ATOM     29  C36 UNL     1       3.985  -2.508   6.995 +0.00 +0.00    +0.004 A  
DOCKED: ATOM     30  C37 UNL     1       3.468  -1.249   6.684 +0.00 +0.00    +0.000 A  
DOCKED: ATOM     31  C38 UNL     1       2.295  -1.141   5.940 +0.00 +0.00    +0.000 A  
DOCKED: ATOM     32  C39 UNL     1       1.639  -2.292   5.504 +0.00 +0.00    +0.000 A  
DOCKED: ATOM     33  C40 UNL     1       2.150  -3.552   5.820 +0.00 +0.00    +0.004 A  
DOCKED: ENDBRANCH  27  28
DOCKED: ENDBRANCH  22  27
DOCKED: ENDBRANCH  20  22
DOCKED: ENDBRANCH  17  18
DOCKED: BRANCH  17  34
DOCKED: ATOM     34  C29 UNL     1       7.465  -2.164   8.023 +0.00 +0.00    +0.043 C  
DOCKED: BRANCH  34  35
DOCKED: ATOM     35  C30 UNL     1       7.983  -1.532   6.730 +0.00 +0.00    +0.123 C  
DOCKED: BRANCH  35  36
DOCKED: ATOM     36  C31 UNL     1       7.271  -2.013   5.496 +0.00 +0.00    +0.305 C  
DOCKED: ATOM     37  O10 UNL     1       6.114  -1.759   5.192 +0.00 -0.00    -0.251 OA 
DOCKED: BRANCH  36  38
DOCKED: ATOM     38  O11 UNL     1       8.015  -2.833   4.737 +0.00 -0.00    -0.481 OA 
DOCKED: ATOM     39  H54 UNL     1       7.440  -3.066   3.978 +0.00 +0.00    +0.295 HD 
DOCKED: ENDBRANCH  36  38
DOCKED: ENDBRANCH  35  36
DOCKED: ENDBRANCH  34  35
DOCKED: ENDBRANCH  17  34
DOCKED: ENDBRANCH  15  17
DOCKED: ENDBRANCH  11  13
DOCKED: ENDBRANCH   9  11
DOCKED: ENDBRANCH   5   7
DOCKED: ENDBRANCH   4   5
DOCKED: ENDBRANCH   1   4
DOCKED: BRANCH   1  40
DOCKED: ATOM     40  C5  UNL     1       8.815  -4.725   0.649 +0.00 +0.00    +0.102 C  
DOCKED: BRANCH  40  41
DOCKED: ATOM     41  N1  UNL     1       8.418  -3.341   0.336 +0.00 -0.00    -0.308 N  
DOCKED: ATOM     42  C6  UNL     1       8.442  -2.278   1.212 +0.00 +0.00    +0.234 C  
DOCKED: ATOM     43  O1  UNL     1       8.708  -2.398   2.405 +0.00 -0.00    -0.274 OA 
DOCKED: ATOM     44  H11 UNL     1       8.232  -3.136  -0.642 +0.00 +0.00    +0.149 HD 
DOCKED: BRANCH  42  45
DOCKED: ATOM     45  C7  UNL     1       8.205  -0.908   0.556 +0.00 +0.00    +0.168 C  
DOCKED: BRANCH  45  46
DOCKED: ATOM     46  N3  UNL     1       6.794  -0.784   0.192 +0.00 -0.00    -0.302 N  
DOCKED: ATOM     47  C10 UNL     1       6.349  -1.207  -1.042 +0.00 +0.00    +0.234 C  
DOCKED: ATOM     48  O3  UNL     1       7.084  -1.756  -1.870 +0.00 -0.00    -0.274 OA 
DOCKED: ATOM     49  H17 UNL     1       6.116  -0.756   0.944 +0.00 +0.00    +0.150 HD 
DOCKED: BRANCH  47  50
DOCKED: ATOM     50  C11 UNL     1       4.852  -0.935  -1.322 +0.00 +0.00    +0.161 C  
DOCKED: BRANCH  50  51
DOCKED: ATOM     51  N4  UNL     1       4.089  -1.751  -0.378 +0.00 -0.00    -0.302 N  
DOCKED: ATOM     52  C12 UNL     1       4.064  -3.123  -0.550 +0.00 +0.00    +0.230 C  
DOCKED: ATOM     53  O4  UNL     1       4.314  -3.665  -1.625 +0.00 -0.00    -0.274 OA 
DOCKED: ATOM     54  H19 UNL     1       4.120  -1.426   0.579 +0.00 +0.00    +0.150 HD 
DOCKED: BRANCH  52  55
DOCKED: ATOM     55  C13 UNL     1       3.687  -3.933   0.721 +0.00 +0.00    +0.138 C  
DOCKED: BRANCH  55  56
DOCKED: ATOM     56  N5  UNL     1       4.915  -4.453   1.360 +0.00 -0.00    -0.320 NA 
DOCKED: ATOM     57  H21 UNL     1       5.680  -3.822   1.105 +0.00 +0.00    +0.119 HD 
DOCKED: ATOM     58  H22 UNL     1       4.829  -4.294   2.369 +0.00 +0.00    +0.119 HD 
DOCKED: ENDBRANCH  55  56
DOCKED: BRANCH  55  59
DOCKED: ATOM     59  C14 UNL     1       2.906  -3.047   1.698 +0.00 +0.00    +0.039 C  
DOCKED: BRANCH  59  60
DOCKED: ATOM     60  C15 UNL     1       3.676  -2.687   2.969 +0.00 +0.00    +0.122 C  
DOCKED: BRANCH  60  61
DOCKED: ATOM     61  C16 UNL     1       4.804  -1.749   2.641 +0.00 +0.00    +0.305 C  
DOCKED: ATOM     62  O5  UNL     1       4.702  -0.540   2.498 +0.00 -0.00    -0.251 OA 
DOCKED: BRANCH  61  63
DOCKED: ATOM     63  O6  UNL     1       5.974  -2.388   2.458 +0.00 -0.00    -0.481 OA 
DOCKED: ATOM     64  H27 UNL     1       6.144  -2.882   3.300 +0.00 +0.00    +0.295 HD 
DOCKED: ENDBRANCH  61  63
DOCKED: ENDBRANCH  60  61
DOCKED: ENDBRANCH  59  60
DOCKED: ENDBRANCH  55  59
DOCKED: ENDBRANCH  52  55
DOCKED: ENDBRANCH  50  51
DOCKED: BRANCH  50  65
DOCKED: ATOM     65  C17 UNL     1       4.522   0.569  -1.236 +0.00 +0.00    +0.012 C  
DOCKED: ATOM     66  C18 UNL     1       3.879   0.903   0.115 +0.00 +0.00    +0.009 C  
DOCKED: ATOM     67  C19 UNL     1       5.734   1.477  -1.467 +0.00 +0.00    +0.009 C  
DOCKED: ENDBRANCH  50  65
DOCKED: ENDBRANCH  47  50
DOCKED: ENDBRANCH  45  46
DOCKED: BRANCH  45  68
DOCKED: ATOM     68  C8  UNL     1       8.624   0.168   1.565 +0.00 +0.00    +0.127 C  
DOCKED: BRANCH  68  69
DOCKED: ATOM     69  C9  UNL     1       7.466   0.649   2.406 +0.00 +0.00    +0.213 C  
DOCKED: ATOM     70  N2  UNL     1       7.053  -0.242   3.353 +0.00 -0.00    -0.329 N  
DOCKED: ATOM     71  O2  UNL     1       6.917   1.738   2.289 +0.00 -0.00    -0.276 OA 
DOCKED: ATOM     72  H15 UNL     1       6.266   0.018   3.934 +0.00 +0.00    +0.145 HD 
DOCKED: ATOM     73  H16 UNL     1       7.476  -1.150   3.493 +0.00 +0.00    +0.145 HD 
DOCKED: ENDBRANCH  68  69
DOCKED: ENDBRANCH  45  68
DOCKED: ENDBRANCH  42  45
DOCKED: ENDBRANCH  40  41
DOCKED: BRANCH  40  74
DOCKED: ATOM     74  C4  UNL     1      10.341  -4.862   0.415 +0.00 +0.00    +0.028 C  
DOCKED: BRANCH  74  76
DOCKED: ATOM     75  C1  UNL     1      11.929  -6.072   2.036 +0.00 +0.00    +0.007 C  
DOCKED: ATOM     76  C2  UNL     1      11.300  -4.741   1.622 +0.00 -0.00    -0.015 C  
DOCKED: ATOM     77  C3  UNL     1      12.366  -3.660   1.460 +0.00 +0.00    +0.007 C  
DOCKED: ENDBRANCH  74  76
DOCKED: ENDBRANCH  40  74
DOCKED: ENDBRANCH   1  40
DOCKED: TORSDOF 34
DOCKED: TER
DOCKED: ENDMDL
________________________________________________________________________________


    FINAL DOCKED STATE:
    ________________________


Run:   19 / 20
Time taken for this run:   5.922s

DOCKED: MODEL        19
DOCKED: USER    Run = 19
DOCKED: USER
DOCKED: USER    Estimated Free Energy of Binding    = +10.14 kcal/mol  [=(1)+(2)+(3)-(4)]
DOCKED: USER
DOCKED: USER    (1) Final Intermolecular Energy     =  +0.00 kcal/mol
DOCKED: USER        vdW + Hbond + desolv Energy     =  +0.00 kcal/mol
DOCKED: USER        Electrostatic Energy            =  +0.00 kcal/mol
DOCKED: USER        Moving Ligand-Fixed Receptor    =  +0.00 kcal/mol
DOCKED: USER        Moving Ligand-Moving Receptor   =  +0.00 kcal/mol
DOCKED: USER    (2) Final Total Internal Energy     = -27.36 kcal/mol
DOCKED: USER    (3) Torsional Free Energy           = +10.14 kcal/mol
DOCKED: USER    (4) Unbound System's Energy         = -27.36 kcal/mol
DOCKED: USER
DOCKED: USER
DOCKED: REMARK  Name = ligands/ligand_0.pdb
DOCKED: REMARK  40 active torsions:
DOCKED: REMARK  status: ('A' for Active; 'I' for Inactive)
DOCKED: REMARK    1  A    between atoms: C1_1  and  C2_2
DOCKED: REMARK    2  A    between atoms: C2_2  and  C3_3
DOCKED: REMARK    3  A    between atoms: C2_2  and  C4_4
DOCKED: REMARK    4  A    between atoms: C4_4  and  C5_5
DOCKED: REMARK    5  A    between atoms: C5_5  and  N1_6
DOCKED: REMARK    6  A    between atoms: C5_5  and  C20_31
DOCKED: REMARK    7  A    between atoms: C6_7  and  C7_9
DOCKED: REMARK    8  A    between atoms: C7_9  and  C8_10
DOCKED: REMARK    9  A    between atoms: C7_9  and  N3_14
DOCKED: REMARK   10  A    between atoms: C8_10  and  C9_11
DOCKED: REMARK   11  A    between atoms: C10_15  and  C11_17
DOCKED: REMARK   12  A    between atoms: C11_17  and  N4_18
DOCKED: REMARK   13  A    between atoms: C11_17  and  C17_28
DOCKED: REMARK   14  A    between atoms: C12_19  and  C13_21
DOCKED: REMARK   15  A    between atoms: C13_21  and  N5_22
DOCKED: REMARK   16  A    between atoms: C13_21  and  C14_23
DOCKED: REMARK   17  A    between atoms: C14_23  and  C15_24
DOCKED: REMARK   18  A    between atoms: C15_24  and  C16_25
DOCKED: REMARK   19  A    between atoms: C16_25  and  O6_27
DOCKED: REMARK   20  A    between atoms: C17_28  and  C18_29
DOCKED: REMARK   21  A    between atoms: C17_28  and  C19_30
DOCKED: REMARK   22  A    between atoms: C20_31  and  O7_32
DOCKED: REMARK   23  A    between atoms: C20_31  and  C21_33
DOCKED: REMARK   24  A    between atoms: C21_33  and  C22_34
DOCKED: REMARK   25  A    between atoms: C22_34  and  C23_35
DOCKED: REMARK   26  A    between atoms: C22_34  and  C24_36
DOCKED: REMARK   27  A    between atoms: N6_38  and  C25_39
DOCKED: REMARK   28  A    between atoms: C25_39  and  C26_40
DOCKED: REMARK   29  A    between atoms: C25_39  and  C27_41
DOCKED: REMARK   30  A    between atoms: N7_43  and  C28_44
DOCKED: REMARK   31  A    between atoms: C28_44  and  C29_45
DOCKED: REMARK   32  A    between atoms: C28_44  and  C32_50
DOCKED: REMARK   33  A    between atoms: C29_45  and  C30_46
DOCKED: REMARK   34  A    between atoms: C30_46  and  C31_47
DOCKED: REMARK   35  A    between atoms: C31_47  and  O11_49
DOCKED: REMARK   36  A    between atoms: N8_52  and  C33_53
DOCKED: REMARK   37  A    between atoms: C33_53  and  C34_54
DOCKED: REMARK   38  A    between atoms: C33_53  and  C41_61
DOCKED: REMARK   39  A    between atoms: C34_54  and  C35_55
DOCKED: REMARK   40  A    between atoms: C41_61  and  O14_63
DOCKED: REMARK                            x       y       z     vdW  Elec       q    Type
DOCKED: REMARK                         _______ _______ _______ _____ _____    ______ ____
DOCKED: USER                              x       y       z     vdW  Elec       q    Type
DOCKED: USER                           _______ _______ _______ _____ _____    ______ ____
DOCKED: ROOT
DOCKED: ATOM      1  C20 UNL     1       9.542  -7.857  -5.616 +0.00 +0.00    +0.135 C  
DOCKED: ENDROOT
DOCKED: BRANCH   1   2
DOCKED: ATOM      2  O7  UNL     1       8.991  -7.565  -4.335 +0.00 -0.00    -0.390 OA 
DOCKED: ATOM      3  H36 UNL     1       8.443  -6.755  -4.409 +0.00 +0.00    +0.210 HD 
DOCKED: ENDBRANCH   1   2
DOCKED: BRANCH   1   4
DOCKED: ATOM      4  C21 UNL     1      10.053  -9.311  -5.653 +0.00 +0.00    +0.045 C  
DOCKED: BRANCH   4   5
DOCKED: ATOM      5  C22 UNL     1       9.367 -10.275  -6.641 +0.00 +0.00    +0.074 C  
DOCKED: ATOM      6  C23 UNL     1      10.039 -11.655  -6.604 +0.00 +0.00    +0.017 C  
DOCKED: BRANCH   5   7
DOCKED: ATOM      7  C24 UNL     1       7.886 -10.465  -6.294 +0.00 +0.00    +0.217 C  
DOCKED: ATOM      8  O8  UNL     1       7.047 -10.883  -7.087 +0.00 -0.00    -0.276 OA 
DOCKED: ATOM      9  N6  UNL     1       7.550 -10.077  -5.010 +0.00 -0.00    -0.304 N  
DOCKED: ATOM     10  H43 UNL     1       8.206  -9.458  -4.540 +0.00 +0.00    +0.149 HD 
DOCKED: BRANCH   9  11
DOCKED: ATOM     11  C25 UNL     1       6.136  -9.934  -4.678 +0.00 +0.00    +0.156 C  
DOCKED: ATOM     12  C26 UNL     1       5.604 -11.197  -4.014 +0.00 +0.00    +0.038 C  
DOCKED: BRANCH  11  13
DOCKED: ATOM     13  C27 UNL     1       5.951  -8.724  -3.735 +0.00 +0.00    +0.234 C  
DOCKED: ATOM     14  O9  UNL     1       6.568  -7.664  -3.876 +0.00 -0.00    -0.274 OA 
DOCKED: ATOM     15  N7  UNL     1       5.071  -8.938  -2.697 +0.00 -0.00    -0.302 N  
DOCKED: ATOM     16  H48 UNL     1       4.806  -9.893  -2.474 +0.00 +0.00    +0.150 HD 
DOCKED: BRANCH  15  17
DOCKED: ATOM     17  C28 UNL     1       4.924  -7.971  -1.613 +0.00 +0.00    +0.159 C  
DOCKED: BRANCH  17  18
DOCKED: ATOM     18  C32 UNL     1       6.017  -8.285  -0.571 +0.00 +0.00    +0.234 C  
DOCKED: ATOM     19  O12 UNL     1       5.764  -8.808   0.510 +0.00 -0.00    -0.274 OA 
DOCKED: ATOM     20  N8  UNL     1       7.266  -7.818  -0.923 +0.00 -0.00    -0.301 N  
DOCKED: ATOM     21  H55 UNL     1       7.451  -7.857  -1.919 +0.00 +0.00    +0.150 HD 
DOCKED: BRANCH  20  22
DOCKED: ATOM     22  C33 UNL     1       8.424  -8.132  -0.079 +0.00 +0.00    +0.186 C  
DOCKED: BRANCH  22  23
DOCKED: ATOM     23  C41 UNL     1       9.711  -7.645  -0.753 +0.00 +0.00    +0.326 C  
DOCKED: ATOM     24  O13 UNL     1      10.764  -7.342  -0.211 +0.00 -0.00    -0.249 OA 
DOCKED: BRANCH  23  25
DOCKED: ATOM     25  O14 UNL     1       9.581  -7.510  -2.092 +0.00 -0.00    -0.479 OA 
DOCKED: ATOM     26  H64 UNL     1       9.799  -6.567  -2.245 +0.00 +0.00    +0.295 HD 
DOCKED: ENDBRANCH  23  25
DOCKED: ENDBRANCH  22  23
DOCKED: BRANCH  22  27
DOCKED: ATOM     27  C34 UNL     1       8.584  -9.647   0.134 +0.00 +0.00    +0.069 C  
DOCKED: BRANCH  27  28
DOCKED: ATOM     28  C35 UNL     1       9.333 -10.347  -0.975 +0.00 -0.00    -0.045 A  
DOCKED: ATOM     29  C36 UNL     1      10.717 -10.554  -0.873 +0.00 +0.00    +0.004 A  
DOCKED: ATOM     30  C37 UNL     1      11.419 -11.174  -1.908 +0.00 +0.00    +0.000 A  
DOCKED: ATOM     31  C38 UNL     1      10.745 -11.599  -3.050 +0.00 +0.00    +0.000 A  
DOCKED: ATOM     32  C39 UNL     1       9.368 -11.404  -3.160 +0.00 +0.00    +0.000 A  
DOCKED: ATOM     33  C40 UNL     1       8.666 -10.777  -2.129 +0.00 +0.00    +0.004 A  
DOCKED: ENDBRANCH  27  28
DOCKED: ENDBRANCH  22  27
DOCKED: ENDBRANCH  20  22
DOCKED: ENDBRANCH  17  18
DOCKED: BRANCH  17  34
DOCKED: ATOM     34  C29 UNL     1       3.531  -8.101  -0.982 +0.00 +0.00    +0.043 C  
DOCKED: BRANCH  34  35
DOCKED: ATOM     35  C30 UNL     1       2.444  -7.283  -1.682 +0.00 +0.00    +0.123 C  
DOCKED: BRANCH  35  36
DOCKED: ATOM     36  C31 UNL     1       2.816  -6.855  -3.076 +0.00 +0.00    +0.305 C  
DOCKED: ATOM     37  O10 UNL     1       2.703  -7.533  -4.087 +0.00 -0.00    -0.251 OA 
DOCKED: BRANCH  36  38
DOCKED: ATOM     38  O11 UNL     1       3.365  -5.631  -3.129 +0.00 -0.00    -0.481 OA 
DOCKED: ATOM     39  H54 UNL     1       2.887  -5.110  -2.450 +0.00 +0.00    +0.295 HD 
DOCKED: ENDBRANCH  36  38
DOCKED: ENDBRANCH  35  36
DOCKED: ENDBRANCH  34  35
DOCKED: ENDBRANCH  17  34
DOCKED: ENDBRANCH  15  17
DOCKED: ENDBRANCH  11  13
DOCKED: ENDBRANCH   9  11
DOCKED: ENDBRANCH   5   7
DOCKED: ENDBRANCH   4   5
DOCKED: ENDBRANCH   1   4
DOCKED: BRANCH   1  40
DOCKED: ATOM     40  C5  UNL     1       8.663  -7.383  -6.808 +0.00 +0.00    +0.102 C  
DOCKED: BRANCH  40  41
DOCKED: ATOM     41  N1  UNL     1       7.227  -7.241  -6.512 +0.00 -0.00    -0.308 N  
DOCKED: ATOM     42  C6  UNL     1       6.192  -7.714  -7.289 +0.00 +0.00    +0.234 C  
DOCKED: ATOM     43  O1  UNL     1       6.363  -8.229  -8.391 +0.00 -0.00    -0.274 OA 
DOCKED: ATOM     44  H11 UNL     1       6.990  -6.872  -5.594 +0.00 +0.00    +0.149 HD 
DOCKED: BRANCH  42  45
DOCKED: ATOM     45  C7  UNL     1       4.809  -7.634  -6.623 +0.00 +0.00    +0.168 C  
DOCKED: BRANCH  45  46
DOCKED: ATOM     46  N3  UNL     1       4.703  -6.381  -5.878 +0.00 -0.00    -0.302 N  
DOCKED: ATOM     47  C10 UNL     1       4.750  -5.170  -6.534 +0.00 +0.00    +0.234 C  
DOCKED: ATOM     48  O3  UNL     1       4.823  -5.073  -7.763 +0.00 -0.00    -0.274 OA 
DOCKED: ATOM     49  H17 UNL     1       4.227  -6.405  -4.983 +0.00 +0.00    +0.150 HD 
DOCKED: BRANCH  47  50
DOCKED: ATOM     50  C11 UNL     1       4.712  -3.928  -5.611 +0.00 +0.00    +0.161 C  
DOCKED: BRANCH  50  51
DOCKED: ATOM     51  N4  UNL     1       5.145  -4.371  -4.286 +0.00 -0.00    -0.302 N  
DOCKED: ATOM     52  C12 UNL     1       6.467  -4.734  -4.103 +0.00 +0.00    +0.230 C  
DOCKED: ATOM     53  O4  UNL     1       7.201  -5.070  -5.031 +0.00 -0.00    -0.274 OA 
DOCKED: ATOM     54  H19 UNL     1       4.712  -3.877  -3.517 +0.00 +0.00    +0.150 HD 
DOCKED: BRANCH  52  55
DOCKED: ATOM     55  C13 UNL     1       6.957  -4.695  -2.629 +0.00 +0.00    +0.138 C  
DOCKED: BRANCH  55  56
DOCKED: ATOM     56  N5  UNL     1       7.811  -5.871  -2.359 +0.00 -0.00    -0.320 NA 
DOCKED: ATOM     57  H21 UNL     1       8.084  -6.263  -3.265 +0.00 +0.00    +0.119 HD 
DOCKED: ATOM     58  H22 UNL     1       8.705  -5.526  -1.993 +0.00 +0.00    +0.119 HD 
DOCKED: ENDBRANCH  55  56
DOCKED: BRANCH  55  59
DOCKED: ATOM     59  C14 UNL     1       7.728  -3.397  -2.364 +0.00 +0.00    +0.039 C  
DOCKED: BRANCH  59  60
DOCKED: ATOM     60  C15 UNL     1       8.984  -3.229  -3.221 +0.00 +0.00    +0.122 C  
DOCKED: BRANCH  60  61
DOCKED: ATOM     61  C16 UNL     1       9.929  -4.373  -2.981 +0.00 +0.00    +0.305 C  
DOCKED: ATOM     62  O5  UNL     1      10.694  -4.474  -2.034 +0.00 -0.00    -0.251 OA 
DOCKED: BRANCH  61  63
DOCKED: ATOM     63  O6  UNL     1       9.897  -5.288  -3.967 +0.00 -0.00    -0.481 OA 
DOCKED: ATOM     64  H27 UNL     1       8.937  -5.428  -4.171 +0.00 +0.00    +0.295 HD 
DOCKED: ENDBRANCH  61  63
DOCKED: ENDBRANCH  60  61
DOCKED: ENDBRANCH  59  60
DOCKED: ENDBRANCH  55  59
DOCKED: ENDBRANCH  52  55
DOCKED: ENDBRANCH  50  51
DOCKED: BRANCH  50  65
DOCKED: ATOM     65  C17 UNL     1       5.562  -2.773  -6.178 +0.00 +0.00    +0.012 C  
DOCKED: ATOM     66  C18 UNL     1       4.856  -2.121  -7.371 +0.00 +0.00    +0.009 C  
DOCKED: ATOM     67  C19 UNL     1       5.911  -1.702  -5.140 +0.00 +0.00    +0.009 C  
DOCKED: ENDBRANCH  50  65
DOCKED: ENDBRANCH  47  50
DOCKED: ENDBRANCH  45  46
DOCKED: BRANCH  45  68
DOCKED: ATOM     68  C8  UNL     1       3.755  -7.722  -7.733 +0.00 +0.00    +0.127 C  
DOCKED: BRANCH  68  69
DOCKED: ATOM     69  C9  UNL     1       3.322  -9.143  -8.005 +0.00 +0.00    +0.213 C  
DOCKED: ATOM     70  N2  UNL     1       4.302 -10.073  -7.810 +0.00 -0.00    -0.329 N  
DOCKED: ATOM     71  O2  UNL     1       2.200  -9.479  -8.363 +0.00 -0.00    -0.276 OA 
DOCKED: ATOM     72  H15 UNL     1       4.075 -11.042  -7.996 +0.00 +0.00    +0.145 HD 
DOCKED: ATOM     73  H16 UNL     1       5.241  -9.847  -7.510 +0.00 +0.00    +0.145 HD 
DOCKED: ENDBRANCH  68  69
DOCKED: ENDBRANCH  45  68
DOCKED: ENDBRANCH  42  45
DOCKED: ENDBRANCH  40  41
DOCKED: BRANCH  40  74
DOCKED: ATOM     74  C4  UNL     1       9.156  -6.077  -7.482 +0.00 +0.00    +0.028 C  
DOCKED: BRANCH  74  76
DOCKED: ATOM     75  C1  UNL     1       8.661  -3.556  -7.364 +0.00 +0.00    +0.007 C  
DOCKED: ATOM     76  C2  UNL     1       8.141  -4.942  -7.752 +0.00 -0.00    -0.015 C  
DOCKED: ATOM     77  C3  UNL     1       7.581  -4.937  -9.172 +0.00 +0.00    +0.007 C  
DOCKED: ENDBRANCH  74  76
DOCKED: ENDBRANCH  40  74
DOCKED: ENDBRANCH   1  40
DOCKED: TORSDOF 34
DOCKED: TER
DOCKED: ENDMDL
________________________________________________________________________________


    FINAL DOCKED STATE:
    ________________________


Run:   20 / 20
Time taken for this run:   5.922s

DOCKED: MODEL        20
DOCKED: USER    Run = 20
DOCKED: USER
DOCKED: USER    Estimated Free Energy of Binding    = +10.14 kcal/mol  [=(1)+(2)+(3)-(4)]
DOCKED: USER
DOCKED: USER    (1) Final Intermolecular Energy     =  +0.00 kcal/mol
DOCKED: USER        vdW + Hbond + desolv Energy     =  +0.00 kcal/mol
DOCKED: USER        Electrostatic Energy            =  +0.00 kcal/mol
DOCKED: USER        Moving Ligand-Fixed Receptor    =  +0.00 kcal/mol
DOCKED: USER        Moving Ligand-Moving Receptor   =  +0.00 kcal/mol
DOCKED: USER    (2) Final Total Internal Energy     = -29.55 kcal/mol
DOCKED: USER    (3) Torsional Free Energy           = +10.14 kcal/mol
DOCKED: USER    (4) Unbound System's Energy         = -29.55 kcal/mol
DOCKED: USER
DOCKED: USER
DOCKED: REMARK  Name = ligands/ligand_0.pdb
DOCKED: REMARK  40 active torsions:
DOCKED: REMARK  status: ('A' for Active; 'I' for Inactive)
DOCKED: REMARK    1  A    between atoms: C1_1  and  C2_2
DOCKED: REMARK    2  A    between atoms: C2_2  and  C3_3
DOCKED: REMARK    3  A    between atoms: C2_2  and  C4_4
DOCKED: REMARK    4  A    between atoms: C4_4  and  C5_5
DOCKED: REMARK    5  A    between atoms: C5_5  and  N1_6
DOCKED: REMARK    6  A    between atoms: C5_5  and  C20_31
DOCKED: REMARK    7  A    between atoms: C6_7  and  C7_9
DOCKED: REMARK    8  A    between atoms: C7_9  and  C8_10
DOCKED: REMARK    9  A    between atoms: C7_9  and  N3_14
DOCKED: REMARK   10  A    between atoms: C8_10  and  C9_11
DOCKED: REMARK   11  A    between atoms: C10_15  and  C11_17
DOCKED: REMARK   12  A    between atoms: C11_17  and  N4_18
DOCKED: REMARK   13  A    between atoms: C11_17  and  C17_28
DOCKED: REMARK   14  A    between atoms: C12_19  and  C13_21
DOCKED: REMARK   15  A    between atoms: C13_21  and  N5_22
DOCKED: REMARK   16  A    between atoms: C13_21  and  C14_23
DOCKED: REMARK   17  A    between atoms: C14_23  and  C15_24
DOCKED: REMARK   18  A    between atoms: C15_24  and  C16_25
DOCKED: REMARK   19  A    between atoms: C16_25  and  O6_27
DOCKED: REMARK   20  A    between atoms: C17_28  and  C18_29
DOCKED: REMARK   21  A    between atoms: C17_28  and  C19_30
DOCKED: REMARK   22  A    between atoms: C20_31  and  O7_32
DOCKED: REMARK   23  A    between atoms: C20_31  and  C21_33
DOCKED: REMARK   24  A    between atoms: C21_33  and  C22_34
DOCKED: REMARK   25  A    between atoms: C22_34  and  C23_35
DOCKED: REMARK   26  A    between atoms: C22_34  and  C24_36
DOCKED: REMARK   27  A    between atoms: N6_38  and  C25_39
DOCKED: REMARK   28  A    between atoms: C25_39  and  C26_40
DOCKED: REMARK   29  A    between atoms: C25_39  and  C27_41
DOCKED: REMARK   30  A    between atoms: N7_43  and  C28_44
DOCKED: REMARK   31  A    between atoms: C28_44  and  C29_45
DOCKED: REMARK   32  A    between atoms: C28_44  and  C32_50
DOCKED: REMARK   33  A    between atoms: C29_45  and  C30_46
DOCKED: REMARK   34  A    between atoms: C30_46  and  C31_47
DOCKED: REMARK   35  A    between atoms: C31_47  and  O11_49
DOCKED: REMARK   36  A    between atoms: N8_52  and  C33_53
DOCKED: REMARK   37  A    between atoms: C33_53  and  C34_54
DOCKED: REMARK   38  A    between atoms: C33_53  and  C41_61
DOCKED: REMARK   39  A    between atoms: C34_54  and  C35_55
DOCKED: REMARK   40  A    between atoms: C41_61  and  O14_63
DOCKED: REMARK                            x       y       z     vdW  Elec       q    Type
DOCKED: REMARK                         _______ _______ _______ _____ _____    ______ ____
DOCKED: USER                              x       y       z     vdW  Elec       q    Type
DOCKED: USER                           _______ _______ _______ _____ _____    ______ ____
DOCKED: ROOT
DOCKED: ATOM      1  C20 UNL     1       6.238  -0.361   2.665 +0.00 +0.00    +0.135 C  
DOCKED: ENDROOT
DOCKED: BRANCH   1   2
DOCKED: ATOM      2  O7  UNL     1       6.264   0.873   3.375 +0.00 -0.00    -0.390 OA 
DOCKED: ATOM      3  H36 UNL     1       6.998   1.420   3.022 +0.00 +0.00    +0.210 HD 
DOCKED: ENDBRANCH   1   2
DOCKED: BRANCH   1   4
DOCKED: ATOM      4  C21 UNL     1       6.147  -1.539   3.655 +0.00 +0.00    +0.045 C  
DOCKED: BRANCH   4   5
DOCKED: ATOM      5  C22 UNL     1       7.421  -1.895   4.448 +0.00 +0.00    +0.074 C  
DOCKED: ATOM      6  C23 UNL     1       7.781  -3.375   4.254 +0.00 +0.00    +0.017 C  
DOCKED: BRANCH   5   7
DOCKED: ATOM      7  C24 UNL     1       8.616  -1.056   3.983 +0.00 +0.00    +0.217 C  
DOCKED: ATOM      8  O8  UNL     1       8.596   0.167   3.888 +0.00 -0.00    -0.276 OA 
DOCKED: ATOM      9  N6  UNL     1       9.727  -1.799   3.628 +0.00 -0.00    -0.304 N  
DOCKED: ATOM     10  H43 UNL     1       9.565  -2.783   3.428 +0.00 +0.00    +0.149 HD 
DOCKED: BRANCH   9  11
DOCKED: ATOM     11  C25 UNL     1      10.801  -1.133   2.898 +0.00 +0.00    +0.156 C  
DOCKED: ATOM     12  C26 UNL     1      10.279  -0.519   1.605 +0.00 +0.00    +0.038 C  
DOCKED: BRANCH  11  13
DOCKED: ATOM     13  C27 UNL     1      11.423  -0.034   3.790 +0.00 +0.00    +0.234 C  
DOCKED: ATOM     14  O9  UNL     1      12.228  -0.281   4.692 +0.00 -0.00    -0.274 OA 
DOCKED: ATOM     15  N7  UNL     1      10.974   1.240   3.523 +0.00 -0.00    -0.302 N  
DOCKED: ATOM     16  H48 UNL     1      10.130   1.351   2.969 +0.00 +0.00    +0.150 HD 
DOCKED: BRANCH  15  17
DOCKED: ATOM     17  C28 UNL     1      11.314   2.363   4.391 +0.00 +0.00    +0.159 C  
DOCKED: BRANCH  17  18
DOCKED: ATOM     18  C32 UNL     1      10.657   2.096   5.760 +0.00 +0.00    +0.234 C  
DOCKED: ATOM     19  O12 UNL     1      11.282   2.169   6.814 +0.00 -0.00    -0.274 OA 
DOCKED: ATOM     20  N8  UNL     1       9.351   1.662   5.672 +0.00 -0.00    -0.301 N  
DOCKED: ATOM     21  H55 UNL     1       8.835   2.074   4.903 +0.00 +0.00    +0.150 HD 
DOCKED: BRANCH  20  22
DOCKED: ATOM     22  C33 UNL     1       8.565   1.467   6.894 +0.00 +0.00    +0.186 C  
DOCKED: BRANCH  22  23
DOCKED: ATOM     23  C41 UNL     1       7.084   1.291   6.542 +0.00 +0.00    +0.326 C  
DOCKED: ATOM     24  O13 UNL     1       6.246   0.648   7.159 +0.00 -0.00    -0.249 OA 
DOCKED: BRANCH  23  25
DOCKED: ATOM     25  O14 UNL     1       6.747   1.897   5.382 +0.00 -0.00    -0.479 OA 
DOCKED: ATOM     26  H64 UNL     1       7.336   1.468   4.725 +0.00 +0.00    +0.295 HD 
DOCKED: ENDBRANCH  23  25
DOCKED: ENDBRANCH  22  23
DOCKED: BRANCH  22  27
DOCKED: ATOM     27  C34 UNL     1       8.653   2.684   7.832 +0.00 +0.00    +0.069 C  
DOCKED: BRANCH  27  28
DOCKED: ATOM     28  C35 UNL     1       7.948   3.914   7.309 +0.00 -0.00    -0.045 A  
DOCKED: ATOM     29  C36 UNL     1       8.454   4.599   6.193 +0.00 +0.00    +0.004 A  
DOCKED: ATOM     30  C37 UNL     1       7.823   5.752   5.723 +0.00 +0.00    +0.000 A  
DOCKED: ATOM     31  C38 UNL     1       6.679   6.228   6.359 +0.00 +0.00    +0.000 A  
DOCKED: ATOM     32  C39 UNL     1       6.163   5.551   7.464 +0.00 +0.00    +0.000 A  
DOCKED: ATOM     33  C40 UNL     1       6.798   4.402   7.940 +0.00 +0.00    +0.004 A  
DOCKED: ENDBRANCH  27  28
DOCKED: ENDBRANCH  22  27
DOCKED: ENDBRANCH  20  22
DOCKED: ENDBRANCH  17  18
DOCKED: BRANCH  17  34
DOCKED: ATOM     34  C29 UNL     1      10.781   3.670   3.788 +0.00 +0.00    +0.043 C  
DOCKED: BRANCH  34  35
DOCKED: ATOM     35  C30 UNL     1      10.022   3.491   2.471 +0.00 +0.00    +0.123 C  
DOCKED: BRANCH  35  36
DOCKED: ATOM     36  C31 UNL     1       8.710   2.772   2.623 +0.00 +0.00    +0.305 C  
DOCKED: ATOM     37  O10 UNL     1       8.296   1.877   1.901 +0.00 -0.00    -0.251 OA 
DOCKED: BRANCH  36  38
DOCKED: ATOM     38  O11 UNL     1       7.957   3.247   3.628 +0.00 -0.00    -0.481 OA 
DOCKED: ATOM     39  H54 UNL     1       7.060   2.888   3.462 +0.00 +0.00    +0.295 HD 
DOCKED: ENDBRANCH  36  38
DOCKED: ENDBRANCH  35  36
DOCKED: ENDBRANCH  34  35
DOCKED: ENDBRANCH  17  34
DOCKED: ENDBRANCH  15  17
DOCKED: ENDBRANCH  11  13
DOCKED: ENDBRANCH   9  11
DOCKED: ENDBRANCH   5   7
DOCKED: ENDBRANCH   4   5
DOCKED: ENDBRANCH   1   4
DOCKED: BRANCH   1  40
DOCKED: ATOM     40  C5  UNL     1       5.263  -0.377   1.454 +0.00 +0.00    +0.102 C  
DOCKED: BRANCH  40  41
DOCKED: ATOM     41  N1  UNL     1       4.813   0.948   0.992 +0.00 -0.00    -0.308 N  
DOCKED: ATOM     42  C6  UNL     1       4.071   1.198  -0.141 +0.00 +0.00    +0.234 C  
DOCKED: ATOM     43  O1  UNL     1       3.786   0.329  -0.961 +0.00 -0.00    -0.274 OA 
DOCKED: ATOM     44  H11 UNL     1       4.959   1.723   1.634 +0.00 +0.00    +0.149 HD 
DOCKED: BRANCH  42  45
DOCKED: ATOM     45  C7  UNL     1       3.543   2.637  -0.251 +0.00 +0.00    +0.168 C  
DOCKED: BRANCH  45  46
DOCKED: ATOM     46  N3  UNL     1       2.558   2.873   0.804 +0.00 -0.00    -0.302 N  
DOCKED: ATOM     47  C10 UNL     1       2.001   4.121   0.976 +0.00 +0.00    +0.234 C  
DOCKED: ATOM     48  O3  UNL     1       2.249   5.076   0.233 +0.00 -0.00    -0.274 OA 
DOCKED: ATOM     49  H17 UNL     1       2.024   2.077   1.134 +0.00 +0.00    +0.150 HD 
DOCKED: BRANCH  47  50
DOCKED: ATOM     50  C11 UNL     1       1.042   4.245   2.184 +0.00 +0.00    +0.161 C  
DOCKED: BRANCH  50  51
DOCKED: ATOM     51  N4  UNL     1       1.710   3.618   3.323 +0.00 -0.00    -0.302 N  
DOCKED: ATOM     52  C12 UNL     1       1.685   2.239   3.436 +0.00 +0.00    +0.230 C  
DOCKED: ATOM     53  O4  UNL     1       0.844   1.540   2.875 +0.00 -0.00    -0.274 OA 
DOCKED: ATOM     54  H19 UNL     1       2.570   4.069   3.605 +0.00 +0.00    +0.150 HD 
DOCKED: BRANCH  52  55
DOCKED: ATOM     55  C13 UNL     1       2.799   1.638   4.336 +0.00 +0.00    +0.138 C  
DOCKED: BRANCH  55  56
DOCKED: ATOM     56  N5  UNL     1       4.104   1.744   3.649 +0.00 -0.00    -0.320 NA 
DOCKED: ATOM     57  H21 UNL     1       4.163   2.688   3.256 +0.00 +0.00    +0.119 HD 
DOCKED: ATOM     58  H22 UNL     1       4.832   1.762   4.369 +0.00 +0.00    +0.119 HD 
DOCKED: ENDBRANCH  55  56
DOCKED: BRANCH  55  59
DOCKED: ATOM     59  C14 UNL     1       2.840   2.369   5.683 +0.00 +0.00    +0.039 C  
DOCKED: BRANCH  59  60
DOCKED: ATOM     60  C15 UNL     1       4.180   3.039   5.992 +0.00 +0.00    +0.122 C  
DOCKED: BRANCH  60  61
DOCKED: ATOM     61  C16 UNL     1       4.493   4.072   4.946 +0.00 +0.00    +0.305 C  
DOCKED: ATOM     62  O5  UNL     1       3.767   5.002   4.629 +0.00 -0.00    -0.251 OA 
DOCKED: BRANCH  61  63
DOCKED: ATOM     63  O6  UNL     1       5.665   3.844   4.326 +0.00 -0.00    -0.481 OA 
DOCKED: ATOM     64  H27 UNL     1       5.682   2.873   4.133 +0.00 +0.00    +0.295 HD 
DOCKED: ENDBRANCH  61  63
DOCKED: ENDBRANCH  60  61
DOCKED: ENDBRANCH  59  60
DOCKED: ENDBRANCH  55  59
DOCKED: ENDBRANCH  52  55
DOCKED: ENDBRANCH  50  51
DOCKED: BRANCH  50  65
DOCKED: ATOM     65  C17 UNL     1       0.639   5.711   2.442 +0.00 +0.00    +0.012 C  
DOCKED: ATOM     66  C18 UNL     1      -0.473   5.786   3.494 +0.00 +0.00    +0.009 C  
DOCKED: ATOM     67  C19 UNL     1       1.810   6.603   2.867 +0.00 +0.00    +0.009 C  
DOCKED: ENDBRANCH  50  65
DOCKED: ENDBRANCH  47  50
DOCKED: ENDBRANCH  45  46
DOCKED: BRANCH  45  68
DOCKED: ATOM     68  C8  UNL     1       4.743   3.583  -0.124 +0.00 +0.00    +0.127 C  
DOCKED: BRANCH  68  69
DOCKED: ATOM     69  C9  UNL     1       5.145   3.812   1.314 +0.00 +0.00    +0.213 C  
DOCKED: ATOM     70  N2  UNL     1       4.639   4.956   1.860 +0.00 -0.00    -0.329 N  
DOCKED: ATOM     71  O2  UNL     1       5.855   3.063   1.974 +0.00 -0.00    -0.276 OA 
DOCKED: ATOM     72  H15 UNL     1       4.891   5.173   2.816 +0.00 +0.00    +0.145 HD 
DOCKED: ATOM     73  H16 UNL     1       4.045   5.604   1.359 +0.00 +0.00    +0.145 HD 
DOCKED: ENDBRANCH  68  69
DOCKED: ENDBRANCH  45  68
DOCKED: ENDBRANCH  42  45
DOCKED: ENDBRANCH  40  41
DOCKED: BRANCH  40  74
DOCKED: ATOM     74  C4  UNL     1       5.784  -1.172   0.229 +0.00 +0.00    +0.028 C  
DOCKED: BRANCH  74  76
DOCKED: ATOM     75  C1  UNL     1       7.740  -2.146  -1.127 +0.00 +0.00    +0.007 C  
DOCKED: ATOM     76  C2  UNL     1       7.273  -1.048  -0.169 +0.00 -0.00    -0.015 C  
DOCKED: ATOM     77  C3  UNL     1       7.663   0.333  -0.688 +0.00 +0.00    +0.007 C  
DOCKED: ENDBRANCH  74  76
DOCKED: ENDBRANCH  40  74
DOCKED: ENDBRANCH   1  40
DOCKED: TORSDOF 34
DOCKED: TER
DOCKED: ENDMDL
________________________________________________________________________________


    CLUSTERING HISTOGRAM
    ____________________


________________________________________________________________________________
     |           |     |           |     |
Clus | Lowest    | Run | Mean      | Num | Histogram
-ter | Binding   |     | Binding   | in  |
Rank | Energy    |     | Energy    | Clus|    5    10   15   20   25   30   35
_____|___________|_____|___________|_____|____:____|____:____|____:____|____:___
   1 |    +10.14 |   1 |    +10.14 |   1 |#
   2 |    +10.14 |   2 |    +10.14 |   1 |#
   3 |    +10.14 |   3 |    +10.14 |   1 |#
   4 |    +10.14 |   4 |    +10.14 |   1 |#
   5 |    +10.14 |   5 |    +10.14 |   1 |#
   6 |    +10.14 |   6 |    +10.14 |   1 |#
   7 |    +10.14 |   7 |    +10.14 |   1 |#
   8 |    +10.14 |   8 |    +10.14 |   1 |#
   9 |    +10.14 |   9 |    +10.14 |   1 |#
  10 |    +10.14 |  10 |    +10.14 |   1 |#
  11 |    +10.14 |  11 |    +10.14 |   1 |#
  12 |    +10.14 |  12 |    +10.14 |   1 |#
  13 |    +10.14 |  13 |    +10.14 |   1 |#
  14 |    +10.14 |  14 |    +10.14 |   1 |#
  15 |    +10.14 |  15 |    +10.14 |   1 |#
  16 |    +10.14 |  16 |    +10.14 |   1 |#
  17 |    +10.14 |  17 |    +10.14 |   1 |#
  18 |    +10.14 |  18 |    +10.14 |   1 |#
  19 |    +10.14 |  19 |    +10.14 |   1 |#
  20 |    +10.14 |  20 |    +10.14 |   1 |#
_____|___________|_____|___________|_____|______________________________________


    RMSD TABLE
    __________


_______________________________________________________________________
     |      |      |           |         |                 |
Rank | Sub- | Run  | Binding   | Cluster | Reference       | Grep
     | Rank |      | Energy    | RMSD    | RMSD            | Pattern
_____|______|______|___________|_________|_________________|___________
   1      1      1      +10.14      0.00     10.26           RANKING
   2      1      2      +10.14      0.00      6.69           RANKING
   3      1      3      +10.14      0.00      9.55           RANKING
   4      1      4      +10.14      0.00      6.93           RANKING
   5      1      5      +10.14      0.00      9.79           RANKING
   6      1      6      +10.14      0.00      9.69           RANKING
   7      1      7      +10.14      0.00      5.09           RANKING
   8      1      8      +10.14      0.00      8.43           RANKING
   9      1      9      +10.14      0.00      4.56           RANKING
  10      1     10      +10.14      0.00      9.13           RANKING
  11      1     11      +10.14      0.00      4.41           RANKING
  12      1     12      +10.14      0.00      7.50           RANKING
  13      1     13      +10.14      0.00      4.48           RANKING
  14      1     14      +10.14      0.00      7.96           RANKING
  15      1     15      +10.14      0.00      9.86           RANKING
  16      1     16      +10.14      0.00      7.84           RANKING
  17      1     17      +10.14      0.00     11.07           RANKING
  18      1     18      +10.14      0.00      5.84           RANKING
  19      1     19      +10.14      0.00      9.33           RANKING
  20      1     20      +10.14      0.00      6.50           RANKING

Run time 119.929 sec
Idle time 0.399 sec
