AutoDock-GPU version: v1.6

**********************************************************
**    AutoDock-GPU AUTODOCKTOOLS-COMPATIBLE DLG FILE    **
**********************************************************


    DOCKING PARAMETERS
    ________________________


Ligand file:                               ligands/ligand_12.pdbqt
Grid fld file:                             protein.maps.fld

Random seed:                               1770972109, 25442
Number of runs:                            20
Number of energy evaluations:              9755677
Number of generations:                     42000
Size of population:                        150
Rate of crossover:                         80.000000%
Tournament selection probability limit:    60.000000%
Rate of mutation:                          2.000000%
Maximal allowed delta movement:            +/- 6.000000A
Maximal allowed delta angle:               +/- 90.000000

Rate of local search:                      100.000000%
Maximal number of local search iterations: 300
Rho lower bound:                           0.010000
Spread of local search delta movement:     2.000000A
Spread of local search delta angle:        74.999999
Limit of consecutive successes/failures:   4

Handle symmetry during clustering:         YES
RMSD tolerance:                            2.000000A

Program call in command line was:          ./autodock-gpu --ffile protein.maps.fld --lfile ligands/ligand_12.pdbqt --nrun 20 


    GRID PARAMETERS
    ________________________


Receptor name:                             #MACROMOLECULE
Number of grid points (x, y, z):           61, 61, 61
Grid center (x, y, z):                     10.261000, -3.492000, -0.127000A
Grid size (x, y, z):                       22.500000, 22.500000, 22.500000A
Grid spacing:                              0.375000A


    LIGAND PARAMETERS
    ________________________


Ligand name:                               ligands/ligand_12
Number of atoms:                           57
Number of rotatable bonds:                 21
Number of atom types:                      6


    DUMMY DATA (only for ADT-compatibility)
    ________________________


DPF> outlev 1
DPF> ga_run 20
DPF> fld protein.maps.fld
DPF> move ligands/ligand_12.pdbqt


    COUNTER STATES
    ________________________


Number of energy evaluations performed:    5017570
Number of generations used:                210


    INPUT LIGAND PDBQT FILE:
    ________________________


INPUT-LIGAND-PDBQT: REMARK  Name = ligands/ligand_12.pdb
INPUT-LIGAND-PDBQT: REMARK  30 active torsions:
INPUT-LIGAND-PDBQT: REMARK  status: ('A' for Active; 'I' for Inactive)
INPUT-LIGAND-PDBQT: REMARK    1  A    between atoms: C1_1  and  C2_2
INPUT-LIGAND-PDBQT: REMARK    2  A    between atoms: C2_2  and  C3_3
INPUT-LIGAND-PDBQT: REMARK    3  A    between atoms: C3_3  and  C4_4
INPUT-LIGAND-PDBQT: REMARK    4  A    between atoms: C3_3  and  C5_5
INPUT-LIGAND-PDBQT: REMARK    5  A    between atoms: C5_5  and  N1_6
INPUT-LIGAND-PDBQT: REMARK    6  A    between atoms: C5_5  and  C11_14
INPUT-LIGAND-PDBQT: REMARK    7  A    between atoms: C6_7  and  O2_9
INPUT-LIGAND-PDBQT: REMARK    8  A    between atoms: O2_9  and  C7_10
INPUT-LIGAND-PDBQT: REMARK    9  A    between atoms: C7_10  and  C8_11
INPUT-LIGAND-PDBQT: REMARK   10  A    between atoms: C7_10  and  C9_12
INPUT-LIGAND-PDBQT: REMARK   11  A    between atoms: C7_10  and  C10_13
INPUT-LIGAND-PDBQT: REMARK   12  A    between atoms: N2_16  and  C12_17
INPUT-LIGAND-PDBQT: REMARK   13  A    between atoms: C12_17  and  C13_18
INPUT-LIGAND-PDBQT: REMARK   14  A    between atoms: C12_17  and  C14_19
INPUT-LIGAND-PDBQT: REMARK   15  A    between atoms: N3_21  and  C15_22
INPUT-LIGAND-PDBQT: REMARK   16  A    between atoms: C15_22  and  C16_23
INPUT-LIGAND-PDBQT: REMARK   17  A    between atoms: C15_22  and  C23_30
INPUT-LIGAND-PDBQT: REMARK   18  A    between atoms: C16_23  and  C17_24
INPUT-LIGAND-PDBQT: REMARK   19  A    between atoms: C23_30  and  O5_31
INPUT-LIGAND-PDBQT: REMARK   20  A    between atoms: C23_30  and  C24_32
INPUT-LIGAND-PDBQT: REMARK   21  A    between atoms: C24_32  and  C25_33
INPUT-LIGAND-PDBQT: REMARK   22  A    between atoms: C25_33  and  C26_34
INPUT-LIGAND-PDBQT: REMARK   23  A    between atoms: C25_33  and  C27_35
INPUT-LIGAND-PDBQT: REMARK   24  A    between atoms: N4_37  and  C28_38
INPUT-LIGAND-PDBQT: REMARK   25  A    between atoms: C28_38  and  C29_39
INPUT-LIGAND-PDBQT: REMARK   26  A    between atoms: C28_38  and  C36_49
INPUT-LIGAND-PDBQT: REMARK   27  A    between atoms: N5_41  and  C30_42
INPUT-LIGAND-PDBQT: REMARK   28  A    between atoms: C30_42  and  C31_43
INPUT-LIGAND-PDBQT: REMARK   29  A    between atoms: C36_49  and  C37_50
INPUT-LIGAND-PDBQT: REMARK   30  A    between atoms: C36_49  and  C38_51
INPUT-LIGAND-PDBQT: REMARK                            x       y       z     vdW  Elec       q    Type
INPUT-LIGAND-PDBQT: REMARK                         _______ _______ _______ _____ _____    ______ ____
INPUT-LIGAND-PDBQT: ROOT
INPUT-LIGAND-PDBQT: ATOM      1  C15 UNL     1      -0.157  -2.343  -4.033  0.00  0.00    +0.106 C 
INPUT-LIGAND-PDBQT: ENDROOT
INPUT-LIGAND-PDBQT: BRANCH   1   4
INPUT-LIGAND-PDBQT: ATOM      2  C14 UNL     1       1.219  -1.329  -2.224  0.00  0.00    +0.233 C 
INPUT-LIGAND-PDBQT: ATOM      3  O4  UNL     1       2.257  -1.848  -2.635  0.00  0.00    -0.274 OA
INPUT-LIGAND-PDBQT: ATOM      4  N3  UNL     1       0.008  -1.480  -2.861  0.00  0.00    -0.308 N 
INPUT-LIGAND-PDBQT: ATOM      5  H26 UNL     1      -0.835  -1.208  -2.362  0.00  0.00    +0.149 HD
INPUT-LIGAND-PDBQT: BRANCH   2   6
INPUT-LIGAND-PDBQT: ATOM      6  C12 UNL     1       1.175  -0.458  -0.952  0.00  0.00    +0.156 C 
INPUT-LIGAND-PDBQT: ATOM      7  C13 UNL     1       0.877   0.998  -1.290  0.00  0.00    +0.038 C 
INPUT-LIGAND-PDBQT: BRANCH   6  10
INPUT-LIGAND-PDBQT: ATOM      8  C11 UNL     1       2.626  -0.457   1.072  0.00  0.00    +0.234 C 
INPUT-LIGAND-PDBQT: ATOM      9  O3  UNL     1       1.696  -0.191   1.831  0.00  0.00    -0.274 OA
INPUT-LIGAND-PDBQT: ATOM     10  N2  UNL     1       2.463  -0.599  -0.287  0.00  0.00    -0.303 N 
INPUT-LIGAND-PDBQT: ATOM     11  H21 UNL     1       3.241  -0.878  -0.876  0.00  0.00    +0.149 HD
INPUT-LIGAND-PDBQT: BRANCH   8  12
INPUT-LIGAND-PDBQT: ATOM     12  C5  UNL     1       4.075  -0.715   1.555  0.00  0.00    +0.165 C 
INPUT-LIGAND-PDBQT: BRANCH  12  13
INPUT-LIGAND-PDBQT: ATOM     13  N1  UNL     1       4.318   0.213   2.650  0.00  0.00    -0.270 N 
INPUT-LIGAND-PDBQT: ATOM     14  C6  UNL     1       4.646   1.517   2.426  0.00  0.00    +0.401 C 
INPUT-LIGAND-PDBQT: ATOM     15  O1  UNL     1       4.876   2.000   1.329  0.00  0.00    -0.226 OA
INPUT-LIGAND-PDBQT: ATOM     16  H11 UNL     1       3.864   0.055   3.541  0.00  0.00    +0.153 HD
INPUT-LIGAND-PDBQT: BRANCH  14  17
INPUT-LIGAND-PDBQT: ATOM     17  O2  UNL     1       4.632   2.169   3.609  0.00  0.00    -0.445 OA
INPUT-LIGAND-PDBQT: BRANCH  17  18
INPUT-LIGAND-PDBQT: ATOM     18  C7  UNL     1       4.877   3.594   3.676  0.00  0.00    +0.107 C 
INPUT-LIGAND-PDBQT: ATOM     19  C8  UNL     1       6.257   3.961   3.121  0.00  0.00    +0.055 C 
INPUT-LIGAND-PDBQT: ATOM     20  C9  UNL     1       3.749   4.368   2.988  0.00  0.00    +0.055 C 
INPUT-LIGAND-PDBQT: ATOM     21  C10 UNL     1       4.855   3.930   5.176  0.00  0.00    +0.055 C 
INPUT-LIGAND-PDBQT: ENDBRANCH  17  18
INPUT-LIGAND-PDBQT: ENDBRANCH  14  17
INPUT-LIGAND-PDBQT: ENDBRANCH  12  13
INPUT-LIGAND-PDBQT: BRANCH  12  22
INPUT-LIGAND-PDBQT: ATOM     22  C3  UNL     1       4.278  -2.186   2.015  0.00  0.00    +0.015 C 
INPUT-LIGAND-PDBQT: ATOM     23  C4  UNL     1       5.706  -2.392   2.541  0.00  0.00    +0.010 C 
INPUT-LIGAND-PDBQT: BRANCH  22  25
INPUT-LIGAND-PDBQT: ATOM     24  C1  UNL     1       4.171  -4.648   1.241  0.00  0.00    +0.004 C 
INPUT-LIGAND-PDBQT: ATOM     25  C2  UNL     1       3.956  -3.186   0.880  0.00  0.00    +0.002 C 
INPUT-LIGAND-PDBQT: ENDBRANCH  22  25
INPUT-LIGAND-PDBQT: ENDBRANCH  12  22
INPUT-LIGAND-PDBQT: ENDBRANCH   8  12
INPUT-LIGAND-PDBQT: ENDBRANCH   6  10
INPUT-LIGAND-PDBQT: ENDBRANCH   2   6
INPUT-LIGAND-PDBQT: ENDBRANCH   1   4
INPUT-LIGAND-PDBQT: BRANCH   1  26
INPUT-LIGAND-PDBQT: ATOM     26  C16 UNL     1      -0.264  -3.850  -3.684  0.00  0.00    +0.060 C 
INPUT-LIGAND-PDBQT: BRANCH  26  27
INPUT-LIGAND-PDBQT: ATOM     27  C17 UNL     1      -1.412  -4.270  -2.797  0.00  0.00    -0.046 A 
INPUT-LIGAND-PDBQT: ATOM     28  C18 UNL     1      -2.499  -4.977  -3.331  0.00  0.00    +0.004 A 
INPUT-LIGAND-PDBQT: ATOM     29  C19 UNL     1      -3.579  -5.340  -2.526  0.00  0.00    +0.000 A 
INPUT-LIGAND-PDBQT: ATOM     30  C20 UNL     1      -3.579  -5.011  -1.171  0.00  0.00    +0.000 A 
INPUT-LIGAND-PDBQT: ATOM     31  C21 UNL     1      -2.495  -4.331  -0.619  0.00  0.00    +0.000 A 
INPUT-LIGAND-PDBQT: ATOM     32  C22 UNL     1      -1.412  -3.975  -1.424  0.00  0.00    +0.004 A 
INPUT-LIGAND-PDBQT: ENDBRANCH  26  27
INPUT-LIGAND-PDBQT: ENDBRANCH   1  26
INPUT-LIGAND-PDBQT: BRANCH   1  33
INPUT-LIGAND-PDBQT: ATOM     33  C23 UNL     1      -1.231  -1.777  -5.003  0.00  0.00    +0.136 C 
INPUT-LIGAND-PDBQT: BRANCH  33  34
INPUT-LIGAND-PDBQT: ATOM     34  O5  UNL     1      -1.177  -2.478  -6.253  0.00  0.00    -0.390 OA
INPUT-LIGAND-PDBQT: ATOM     35  H36 UNL     1      -0.317  -2.269  -6.656  0.00  0.00    +0.210 HD
INPUT-LIGAND-PDBQT: ENDBRANCH  33  34
INPUT-LIGAND-PDBQT: BRANCH  33  36
INPUT-LIGAND-PDBQT: ATOM     36  C24 UNL     1      -2.690  -1.811  -4.514  0.00  0.00    +0.045 C 
INPUT-LIGAND-PDBQT: BRANCH  36  37
INPUT-LIGAND-PDBQT: ATOM     37  C25 UNL     1      -3.409  -0.482  -4.799  0.00  0.00    +0.074 C 
INPUT-LIGAND-PDBQT: ATOM     38  C26 UNL     1      -4.918  -0.686  -4.925  0.00  0.00    +0.017 C 
INPUT-LIGAND-PDBQT: BRANCH  37  39
INPUT-LIGAND-PDBQT: ATOM     39  C27 UNL     1      -3.047   0.517  -3.703  0.00  0.00    +0.217 C 
INPUT-LIGAND-PDBQT: ATOM     40  O6  UNL     1      -2.156   1.348  -3.852  0.00  0.00    -0.276 OA
INPUT-LIGAND-PDBQT: ATOM     41  N4  UNL     1      -3.699   0.353  -2.511  0.00  0.00    -0.304 N 
INPUT-LIGAND-PDBQT: ATOM     42  H43 UNL     1      -4.315  -0.443  -2.368  0.00  0.00    +0.149 HD
INPUT-LIGAND-PDBQT: BRANCH  41  43
INPUT-LIGAND-PDBQT: ATOM     43  C28 UNL     1      -3.396   1.120  -1.303  0.00  0.00    +0.161 C 
INPUT-LIGAND-PDBQT: BRANCH  43  44
INPUT-LIGAND-PDBQT: ATOM     44  C29 UNL     1      -3.386   0.056  -0.179  0.00  0.00    +0.234 C 
INPUT-LIGAND-PDBQT: ATOM     45  O7  UNL     1      -4.046  -0.982  -0.265  0.00  0.00    -0.274 OA
INPUT-LIGAND-PDBQT: ATOM     46  N5  UNL     1      -2.598   0.351   0.909  0.00  0.00    -0.310 N 
INPUT-LIGAND-PDBQT: ATOM     47  H45 UNL     1      -2.145   1.251   0.974  0.00  0.00    +0.149 HD
INPUT-LIGAND-PDBQT: BRANCH  46  48
INPUT-LIGAND-PDBQT: ATOM     48  C30 UNL     1      -2.584  -0.491   2.086  0.00  0.00    +0.139 C 
INPUT-LIGAND-PDBQT: BRANCH  48  49
INPUT-LIGAND-PDBQT: ATOM     49  C31 UNL     1      -3.705  -0.143   3.026  0.00  0.00    -0.027 A 
INPUT-LIGAND-PDBQT: ATOM     50  C32 UNL     1      -4.946  -0.789   2.928  0.00  0.00    +0.025 A 
INPUT-LIGAND-PDBQT: ATOM     51  C33 UNL     1      -5.961  -0.423   3.795  0.00  0.00    +0.111 A 
INPUT-LIGAND-PDBQT: ATOM     52  N6  UNL     1      -5.826   0.528   4.749  0.00  0.00    -0.263 NA
INPUT-LIGAND-PDBQT: ATOM     53  C34 UNL     1      -4.629   1.150   4.817  0.00  0.00    +0.111 A 
INPUT-LIGAND-PDBQT: ATOM     54  C35 UNL     1      -3.555   0.857   3.990  0.00  0.00    +0.025 A 
INPUT-LIGAND-PDBQT: ENDBRANCH  48  49
INPUT-LIGAND-PDBQT: ENDBRANCH  46  48
INPUT-LIGAND-PDBQT: ENDBRANCH  43  44
INPUT-LIGAND-PDBQT: BRANCH  43  55
INPUT-LIGAND-PDBQT: ATOM     55  C36 UNL     1      -4.436   2.236  -1.061  0.00  0.00    +0.012 C 
INPUT-LIGAND-PDBQT: ATOM     56  C37 UNL     1      -4.143   3.043   0.207  0.00  0.00    +0.009 C 
INPUT-LIGAND-PDBQT: ATOM     57  C38 UNL     1      -4.504   3.202  -2.252  0.00  0.00    +0.009 C 
INPUT-LIGAND-PDBQT: ENDBRANCH  43  55
INPUT-LIGAND-PDBQT: ENDBRANCH  41  43
INPUT-LIGAND-PDBQT: ENDBRANCH  37  39
INPUT-LIGAND-PDBQT: ENDBRANCH  36  37
INPUT-LIGAND-PDBQT: ENDBRANCH  33  36
INPUT-LIGAND-PDBQT: ENDBRANCH   1  33
INPUT-LIGAND-PDBQT: TORSDOF 21


    FINAL DOCKED STATE:
    ________________________


Run:   1 / 20
Time taken for this run:   1.471s

DOCKED: MODEL        1
DOCKED: USER    Run = 1
DOCKED: USER
DOCKED: USER    Estimated Free Energy of Binding    =  +6.26 kcal/mol  [=(1)+(2)+(3)-(4)]
DOCKED: USER
DOCKED: USER    (1) Final Intermolecular Energy     =  +0.00 kcal/mol
DOCKED: USER        vdW + Hbond + desolv Energy     =  +0.00 kcal/mol
DOCKED: USER        Electrostatic Energy            =  +0.00 kcal/mol
DOCKED: USER        Moving Ligand-Fixed Receptor    =  +0.00 kcal/mol
DOCKED: USER        Moving Ligand-Moving Receptor   =  +0.00 kcal/mol
DOCKED: USER    (2) Final Total Internal Energy     = -14.94 kcal/mol
DOCKED: USER    (3) Torsional Free Energy           =  +6.26 kcal/mol
DOCKED: USER    (4) Unbound System's Energy         = -14.94 kcal/mol
DOCKED: USER
DOCKED: USER
DOCKED: REMARK  Name = ligands/ligand_12.pdb
DOCKED: REMARK  30 active torsions:
DOCKED: REMARK  status: ('A' for Active; 'I' for Inactive)
DOCKED: REMARK    1  A    between atoms: C1_1  and  C2_2
DOCKED: REMARK    2  A    between atoms: C2_2  and  C3_3
DOCKED: REMARK    3  A    between atoms: C3_3  and  C4_4
DOCKED: REMARK    4  A    between atoms: C3_3  and  C5_5
DOCKED: REMARK    5  A    between atoms: C5_5  and  N1_6
DOCKED: REMARK    6  A    between atoms: C5_5  and  C11_14
DOCKED: REMARK    7  A    between atoms: C6_7  and  O2_9
DOCKED: REMARK    8  A    between atoms: O2_9  and  C7_10
DOCKED: REMARK    9  A    between atoms: C7_10  and  C8_11
DOCKED: REMARK   10  A    between atoms: C7_10  and  C9_12
DOCKED: REMARK   11  A    between atoms: C7_10  and  C10_13
DOCKED: REMARK   12  A    between atoms: N2_16  and  C12_17
DOCKED: REMARK   13  A    between atoms: C12_17  and  C13_18
DOCKED: REMARK   14  A    between atoms: C12_17  and  C14_19
DOCKED: REMARK   15  A    between atoms: N3_21  and  C15_22
DOCKED: REMARK   16  A    between atoms: C15_22  and  C16_23
DOCKED: REMARK   17  A    between atoms: C15_22  and  C23_30
DOCKED: REMARK   18  A    between atoms: C16_23  and  C17_24
DOCKED: REMARK   19  A    between atoms: C23_30  and  O5_31
DOCKED: REMARK   20  A    between atoms: C23_30  and  C24_32
DOCKED: REMARK   21  A    between atoms: C24_32  and  C25_33
DOCKED: REMARK   22  A    between atoms: C25_33  and  C26_34
DOCKED: REMARK   23  A    between atoms: C25_33  and  C27_35
DOCKED: REMARK   24  A    between atoms: N4_37  and  C28_38
DOCKED: REMARK   25  A    between atoms: C28_38  and  C29_39
DOCKED: REMARK   26  A    between atoms: C28_38  and  C36_49
DOCKED: REMARK   27  A    between atoms: N5_41  and  C30_42
DOCKED: REMARK   28  A    between atoms: C30_42  and  C31_43
DOCKED: REMARK   29  A    between atoms: C36_49  and  C37_50
DOCKED: REMARK   30  A    between atoms: C36_49  and  C38_51
DOCKED: REMARK                            x       y       z     vdW  Elec       q    Type
DOCKED: REMARK                         _______ _______ _______ _____ _____    ______ ____
DOCKED: USER                              x       y       z     vdW  Elec       q    Type
DOCKED: USER                           _______ _______ _______ _____ _____    ______ ____
DOCKED: ROOT
DOCKED: ATOM      1  C15 UNL     1       5.674  -4.100  -0.226 +0.00 +0.00    +0.106 C  
DOCKED: ENDROOT
DOCKED: BRANCH   1   4
DOCKED: ATOM      2  C14 UNL     1       4.168  -3.254  -2.018 +0.00 +0.00    +0.233 C  
DOCKED: ATOM      3  O4  UNL     1       4.516  -4.128  -2.811 +0.00 -0.00    -0.274 OA 
DOCKED: ATOM      4  N3  UNL     1       4.646  -3.186  -0.728 +0.00 -0.00    -0.308 N  
DOCKED: ATOM      5  H26 UNL     1       4.486  -2.331  -0.201 +0.00 +0.00    +0.149 HD 
DOCKED: BRANCH   2   6
DOCKED: ATOM      6  C12 UNL     1       3.161  -2.147  -2.392 +0.00 +0.00    +0.156 C  
DOCKED: ATOM      7  C13 UNL     1       2.968  -2.064  -3.902 +0.00 +0.00    +0.038 C  
DOCKED: BRANCH   6  10
DOCKED: ATOM      8  C11 UNL     1       4.722  -0.207  -2.413 +0.00 +0.00    +0.234 C  
DOCKED: ATOM      9  O3  UNL     1       5.316  -0.599  -3.415 +0.00 -0.00    -0.274 OA 
DOCKED: ATOM     10  N2  UNL     1       3.673  -0.896  -1.850 +0.00 -0.00    -0.303 N  
DOCKED: ATOM     11  H21 UNL     1       3.167  -0.513  -1.058 +0.00 +0.00    +0.149 HD 
DOCKED: BRANCH   8  12
DOCKED: ATOM     12  C5  UNL     1       5.045   1.128  -1.697 +0.00 +0.00    +0.165 C  
DOCKED: BRANCH  12  13
DOCKED: ATOM     13  N1  UNL     1       5.991   0.811  -0.636 +0.00 -0.00    -0.270 N  
DOCKED: ATOM     14  C6  UNL     1       5.652   0.007   0.411 +0.00 +0.00    +0.401 C  
DOCKED: ATOM     15  O1  UNL     1       4.530  -0.424   0.625 +0.00 -0.00    -0.226 OA 
DOCKED: ATOM     16  H11 UNL     1       6.982   0.816  -0.841 +0.00 +0.00    +0.153 HD 
DOCKED: BRANCH  14  17
DOCKED: ATOM     17  O2  UNL     1       6.767  -0.252   1.128 +0.00 -0.00    -0.445 OA 
DOCKED: BRANCH  17  18
DOCKED: ATOM     18  C7  UNL     1       6.973   0.352   2.427 +0.00 +0.00    +0.107 C  
DOCKED: ATOM     19  C8  UNL     1       7.076   1.878   2.335 +0.00 +0.00    +0.055 C  
DOCKED: ATOM     20  C9  UNL     1       5.888  -0.099   3.410 +0.00 +0.00    +0.055 C  
DOCKED: ATOM     21  C10 UNL     1       8.326  -0.195   2.909 +0.00 +0.00    +0.055 C  
DOCKED: ENDBRANCH  17  18
DOCKED: ENDBRANCH  14  17
DOCKED: ENDBRANCH  12  13
DOCKED: BRANCH  12  22
DOCKED: ATOM     22  C3  UNL     1       5.637   2.181  -2.675 +0.00 +0.00    +0.015 C  
DOCKED: ATOM     23  C4  UNL     1       6.834   2.898  -2.033 +0.00 +0.00    +0.010 C  
DOCKED: BRANCH  22  25
DOCKED: ATOM     24  C1  UNL     1       3.177   2.607  -3.336 +0.00 +0.00    +0.004 C  
DOCKED: ATOM     25  C2  UNL     1       4.565   3.196  -3.135 +0.00 +0.00    +0.002 C  
DOCKED: ENDBRANCH  22  25
DOCKED: ENDBRANCH  12  22
DOCKED: ENDBRANCH   8  12
DOCKED: ENDBRANCH   6  10
DOCKED: ENDBRANCH   2   6
DOCKED: ENDBRANCH   1   4
DOCKED: BRANCH   1  26
DOCKED: ATOM     26  C16 UNL     1       6.959  -4.126  -1.093 +0.00 +0.00    +0.060 C  
DOCKED: BRANCH  26  27
DOCKED: ATOM     27  C17 UNL     1       7.727  -2.832  -1.222 +0.00 -0.00    -0.046 A  
DOCKED: ATOM     28  C18 UNL     1       8.565  -2.398  -0.185 +0.00 +0.00    +0.004 A  
DOCKED: ATOM     29  C19 UNL     1       9.252  -1.188  -0.281 +0.00 +0.00    +0.000 A  
DOCKED: ATOM     30  C20 UNL     1       9.120  -0.402  -1.425 +0.00 +0.00    +0.000 A  
DOCKED: ATOM     31  C21 UNL     1       8.311  -0.831  -2.476 +0.00 +0.00    +0.000 A  
DOCKED: ATOM     32  C22 UNL     1       7.630  -2.045  -2.381 +0.00 +0.00    +0.004 A  
DOCKED: ENDBRANCH  26  27
DOCKED: ENDBRANCH   1  26
DOCKED: BRANCH   1  33
DOCKED: ATOM     33  C23 UNL     1       5.873  -3.937   1.307 +0.00 +0.00    +0.136 C  
DOCKED: BRANCH  33  34
DOCKED: ATOM     34  O5  UNL     1       5.252  -2.723   1.752 +0.00 -0.00    -0.390 OA 
DOCKED: ATOM     35  H36 UNL     1       5.792  -1.990   1.412 +0.00 +0.00    +0.210 HD 
DOCKED: ENDBRANCH  33  34
DOCKED: BRANCH  33  36
DOCKED: ATOM     36  C24 UNL     1       5.352  -5.079   2.197 +0.00 +0.00    +0.045 C  
DOCKED: BRANCH  36  37
DOCKED: ATOM     37  C25 UNL     1       4.135  -5.774   1.564 +0.00 +0.00    +0.074 C  
DOCKED: ATOM     38  C26 UNL     1       4.163  -7.280   1.822 +0.00 +0.00    +0.017 C  
DOCKED: BRANCH  37  39
DOCKED: ATOM     39  C27 UNL     1       2.864  -5.117   2.094 +0.00 +0.00    +0.217 C  
DOCKED: ATOM     40  O6  UNL     1       1.907  -5.778   2.485 +0.00 -0.00    -0.276 OA 
DOCKED: ATOM     41  N4  UNL     1       2.817  -3.752   1.999 +0.00 -0.00    -0.304 N  
DOCKED: ATOM     42  H43 UNL     1       3.559  -3.245   1.524 +0.00 +0.00    +0.149 HD 
DOCKED: BRANCH  41  43
DOCKED: ATOM     43  C28 UNL     1       1.638  -2.951   2.327 +0.00 +0.00    +0.161 C  
DOCKED: BRANCH  43  44
DOCKED: ATOM     44  C29 UNL     1       1.644  -1.827   1.263 +0.00 +0.00    +0.234 C  
DOCKED: ATOM     45  O7  UNL     1       2.430  -1.839   0.314 +0.00 -0.00    -0.274 OA 
DOCKED: ATOM     46  N5  UNL     1       0.720  -0.826   1.455 +0.00 -0.00    -0.310 N  
DOCKED: ATOM     47  H45 UNL     1       0.157  -0.813   2.293 +0.00 +0.00    +0.149 HD 
DOCKED: BRANCH  46  48
DOCKED: ATOM     48  C30 UNL     1       0.690   0.350   0.611 +0.00 +0.00    +0.139 C  
DOCKED: BRANCH  48  49
DOCKED: ATOM     49  C31 UNL     1       1.837   1.275   0.914 +0.00 -0.00    -0.027 A  
DOCKED: ATOM     50  C32 UNL     1       2.481   1.230   2.159 +0.00 +0.00    +0.025 A  
DOCKED: ATOM     51  C33 UNL     1       3.516   2.115   2.409 +0.00 +0.00    +0.111 A  
DOCKED: ATOM     52  N6  UNL     1       3.954   3.030   1.512 +0.00 -0.00    -0.263 NA 
DOCKED: ATOM     53  C34 UNL     1       3.310   3.069   0.325 +0.00 +0.00    +0.111 A  
DOCKED: ATOM     54  C35 UNL     1       2.261   2.228  -0.016 +0.00 +0.00    +0.025 A  
DOCKED: ENDBRANCH  48  49
DOCKED: ENDBRANCH  46  48
DOCKED: ENDBRANCH  43  44
DOCKED: BRANCH  43  55
DOCKED: ATOM     55  C36 UNL     1       1.701  -2.409   3.772 +0.00 +0.00    +0.012 C  
DOCKED: ATOM     56  C37 UNL     1       1.353  -3.477   4.812 +0.00 +0.00    +0.009 C  
DOCKED: ATOM     57  C38 UNL     1       3.091  -1.845   4.094 +0.00 +0.00    +0.009 C  
DOCKED: ENDBRANCH  43  55
DOCKED: ENDBRANCH  41  43
DOCKED: ENDBRANCH  37  39
DOCKED: ENDBRANCH  36  37
DOCKED: ENDBRANCH  33  36
DOCKED: ENDBRANCH   1  33
DOCKED: TORSDOF 21
DOCKED: TER
DOCKED: ENDMDL
________________________________________________________________________________


    FINAL DOCKED STATE:
    ________________________


Run:   2 / 20
Time taken for this run:   1.471s

DOCKED: MODEL        2
DOCKED: USER    Run = 2
DOCKED: USER
DOCKED: USER    Estimated Free Energy of Binding    =  +6.26 kcal/mol  [=(1)+(2)+(3)-(4)]
DOCKED: USER
DOCKED: USER    (1) Final Intermolecular Energy     =  +0.00 kcal/mol
DOCKED: USER        vdW + Hbond + desolv Energy     =  +0.00 kcal/mol
DOCKED: USER        Electrostatic Energy            =  +0.00 kcal/mol
DOCKED: USER        Moving Ligand-Fixed Receptor    =  +0.00 kcal/mol
DOCKED: USER        Moving Ligand-Moving Receptor   =  +0.00 kcal/mol
DOCKED: USER    (2) Final Total Internal Energy     = -14.71 kcal/mol
DOCKED: USER    (3) Torsional Free Energy           =  +6.26 kcal/mol
DOCKED: USER    (4) Unbound System's Energy         = -14.71 kcal/mol
DOCKED: USER
DOCKED: USER
DOCKED: REMARK  Name = ligands/ligand_12.pdb
DOCKED: REMARK  30 active torsions:
DOCKED: REMARK  status: ('A' for Active; 'I' for Inactive)
DOCKED: REMARK    1  A    between atoms: C1_1  and  C2_2
DOCKED: REMARK    2  A    between atoms: C2_2  and  C3_3
DOCKED: REMARK    3  A    between atoms: C3_3  and  C4_4
DOCKED: REMARK    4  A    between atoms: C3_3  and  C5_5
DOCKED: REMARK    5  A    between atoms: C5_5  and  N1_6
DOCKED: REMARK    6  A    between atoms: C5_5  and  C11_14
DOCKED: REMARK    7  A    between atoms: C6_7  and  O2_9
DOCKED: REMARK    8  A    between atoms: O2_9  and  C7_10
DOCKED: REMARK    9  A    between atoms: C7_10  and  C8_11
DOCKED: REMARK   10  A    between atoms: C7_10  and  C9_12
DOCKED: REMARK   11  A    between atoms: C7_10  and  C10_13
DOCKED: REMARK   12  A    between atoms: N2_16  and  C12_17
DOCKED: REMARK   13  A    between atoms: C12_17  and  C13_18
DOCKED: REMARK   14  A    between atoms: C12_17  and  C14_19
DOCKED: REMARK   15  A    between atoms: N3_21  and  C15_22
DOCKED: REMARK   16  A    between atoms: C15_22  and  C16_23
DOCKED: REMARK   17  A    between atoms: C15_22  and  C23_30
DOCKED: REMARK   18  A    between atoms: C16_23  and  C17_24
DOCKED: REMARK   19  A    between atoms: C23_30  and  O5_31
DOCKED: REMARK   20  A    between atoms: C23_30  and  C24_32
DOCKED: REMARK   21  A    between atoms: C24_32  and  C25_33
DOCKED: REMARK   22  A    between atoms: C25_33  and  C26_34
DOCKED: REMARK   23  A    between atoms: C25_33  and  C27_35
DOCKED: REMARK   24  A    between atoms: N4_37  and  C28_38
DOCKED: REMARK   25  A    between atoms: C28_38  and  C29_39
DOCKED: REMARK   26  A    between atoms: C28_38  and  C36_49
DOCKED: REMARK   27  A    between atoms: N5_41  and  C30_42
DOCKED: REMARK   28  A    between atoms: C30_42  and  C31_43
DOCKED: REMARK   29  A    between atoms: C36_49  and  C37_50
DOCKED: REMARK   30  A    between atoms: C36_49  and  C38_51
DOCKED: REMARK                            x       y       z     vdW  Elec       q    Type
DOCKED: REMARK                         _______ _______ _______ _____ _____    ______ ____
DOCKED: USER                              x       y       z     vdW  Elec       q    Type
DOCKED: USER                           _______ _______ _______ _____ _____    ______ ____
DOCKED: ROOT
DOCKED: ATOM      1  C15 UNL     1       6.982  -2.875  -4.390 +0.00 +0.00    +0.106 C  
DOCKED: ENDROOT
DOCKED: BRANCH   1   4
DOCKED: ATOM      2  C14 UNL     1       6.752  -4.631  -2.641 +0.00 +0.00    +0.233 C  
DOCKED: ATOM      3  O4  UNL     1       5.592  -4.890  -2.963 +0.00 -0.00    -0.274 OA 
DOCKED: ATOM      4  N3  UNL     1       7.517  -3.697  -3.302 +0.00 -0.00    -0.308 N  
DOCKED: ATOM      5  H26 UNL     1       8.378  -3.382  -2.862 +0.00 +0.00    +0.149 HD 
DOCKED: BRANCH   2   6
DOCKED: ATOM      6  C12 UNL     1       7.460  -5.329  -1.462 +0.00 +0.00    +0.156 C  
DOCKED: ATOM      7  C13 UNL     1       6.736  -5.062  -0.147 +0.00 +0.00    +0.038 C  
DOCKED: BRANCH   6  10
DOCKED: ATOM      8  C11 UNL     1       9.892  -5.596  -0.998 +0.00 +0.00    +0.234 C  
DOCKED: ATOM      9  O3  UNL     1       9.766  -6.753  -0.600 +0.00 -0.00    -0.274 OA 
DOCKED: ATOM     10  N2  UNL     1       8.830  -4.834  -1.427 +0.00 -0.00    -0.303 N  
DOCKED: ATOM     11  H21 UNL     1       8.978  -3.904  -1.805 +0.00 +0.00    +0.149 HD 
DOCKED: BRANCH   8  12
DOCKED: ATOM     12  C5  UNL     1      11.259  -4.877  -1.112 +0.00 +0.00    +0.165 C  
DOCKED: BRANCH  12  13
DOCKED: ATOM     13  N1  UNL     1      11.150  -3.653  -0.331 +0.00 -0.00    -0.270 N  
DOCKED: ATOM     14  C6  UNL     1      10.520  -2.546  -0.816 +0.00 +0.00    +0.401 C  
DOCKED: ATOM     15  O1  UNL     1      10.099  -2.426  -1.955 +0.00 -0.00    -0.226 OA 
DOCKED: ATOM     16  H11 UNL     1      11.150  -3.711   0.680 +0.00 +0.00    +0.153 HD 
DOCKED: BRANCH  14  17
DOCKED: ATOM     17  O2  UNL     1      10.417  -1.642   0.183 +0.00 -0.00    -0.445 OA 
DOCKED: BRANCH  17  18
DOCKED: ATOM     18  C7  UNL     1       9.304  -1.680   1.107 +0.00 +0.00    +0.107 C  
DOCKED: ATOM     19  C8  UNL     1       9.523  -2.709   2.220 +0.00 +0.00    +0.055 C  
DOCKED: ATOM     20  C9  UNL     1       9.013  -0.281   1.658 +0.00 +0.00    +0.055 C  
DOCKED: ATOM     21  C10 UNL     1       8.101  -2.131   0.262 +0.00 +0.00    +0.055 C  
DOCKED: ENDBRANCH  17  18
DOCKED: ENDBRANCH  14  17
DOCKED: ENDBRANCH  12  13
DOCKED: BRANCH  12  22
DOCKED: ATOM     22  C3  UNL     1      12.425  -5.766  -0.595 +0.00 +0.00    +0.015 C  
DOCKED: ATOM     23  C4  UNL     1      12.528  -5.681   0.935 +0.00 +0.00    +0.010 C  
DOCKED: BRANCH  22  25
DOCKED: ATOM     24  C1  UNL     1      13.984  -3.893  -1.452 +0.00 +0.00    +0.004 C  
DOCKED: ATOM     25  C2  UNL     1      13.768  -5.386  -1.263 +0.00 +0.00    +0.002 C  
DOCKED: ENDBRANCH  22  25
DOCKED: ENDBRANCH  12  22
DOCKED: ENDBRANCH   8  12
DOCKED: ENDBRANCH   6  10
DOCKED: ENDBRANCH   2   6
DOCKED: ENDBRANCH   1   4
DOCKED: BRANCH   1  26
DOCKED: ATOM     26  C16 UNL     1       5.854  -1.910  -3.941 +0.00 +0.00    +0.060 C  
DOCKED: BRANCH  26  27
DOCKED: ATOM     27  C17 UNL     1       6.158  -0.991  -2.782 +0.00 -0.00    -0.046 A  
DOCKED: ATOM     28  C18 UNL     1       5.279  -0.908  -1.692 +0.00 +0.00    +0.004 A  
DOCKED: ATOM     29  C19 UNL     1       5.535  -0.038  -0.633 +0.00 +0.00    +0.000 A  
DOCKED: ATOM     30  C20 UNL     1       6.683   0.754  -0.644 +0.00 +0.00    +0.000 A  
DOCKED: ATOM     31  C21 UNL     1       7.580   0.665  -1.706 +0.00 +0.00    +0.000 A  
DOCKED: ATOM     32  C22 UNL     1       7.326  -0.212  -2.762 +0.00 +0.00    +0.004 A  
DOCKED: ENDBRANCH  26  27
DOCKED: ENDBRANCH   1  26
DOCKED: BRANCH   1  33
DOCKED: ATOM     33  C23 UNL     1       8.123  -2.260  -5.246 +0.00 +0.00    +0.136 C  
DOCKED: BRANCH  33  34
DOCKED: ATOM     34  O5  UNL     1       9.205  -1.854  -4.396 +0.00 -0.00    -0.390 OA 
DOCKED: ATOM     35  H36 UNL     1       9.360  -2.582  -3.771 +0.00 +0.00    +0.210 HD 
DOCKED: ENDBRANCH  33  34
DOCKED: BRANCH  33  36
DOCKED: ATOM     36  C24 UNL     1       8.712  -3.150  -6.355 +0.00 +0.00    +0.045 C  
DOCKED: BRANCH  36  37
DOCKED: ATOM     37  C25 UNL     1       9.004  -4.569  -5.840 +0.00 +0.00    +0.074 C  
DOCKED: ATOM     38  C26 UNL     1       9.251  -5.536  -6.997 +0.00 +0.00    +0.017 C  
DOCKED: BRANCH  37  39
DOCKED: ATOM     39  C27 UNL     1      10.183  -4.507  -4.872 +0.00 +0.00    +0.217 C  
DOCKED: ATOM     40  O6  UNL     1      10.026  -4.305  -3.672 +0.00 -0.00    -0.276 OA 
DOCKED: ATOM     41  N4  UNL     1      11.425  -4.578  -5.444 +0.00 -0.00    -0.304 N  
DOCKED: ATOM     42  H43 UNL     1      11.525  -4.584  -6.455 +0.00 +0.00    +0.149 HD 
DOCKED: BRANCH  41  43
DOCKED: ATOM     43  C28 UNL     1      12.675  -4.402  -4.704 +0.00 +0.00    +0.161 C  
DOCKED: BRANCH  43  44
DOCKED: ATOM     44  C29 UNL     1      12.948  -2.881  -4.790 +0.00 +0.00    +0.234 C  
DOCKED: ATOM     45  O7  UNL     1      13.988  -2.438  -5.282 +0.00 -0.00    -0.274 OA 
DOCKED: ATOM     46  N5  UNL     1      11.959  -2.072  -4.281 +0.00 -0.00    -0.310 N  
DOCKED: ATOM     47  H45 UNL     1      11.166  -2.481  -3.810 +0.00 +0.00    +0.149 HD 
DOCKED: BRANCH  46  48
DOCKED: ATOM     48  C30 UNL     1      12.128  -0.638  -4.184 +0.00 +0.00    +0.139 C  
DOCKED: BRANCH  48  49
DOCKED: ATOM     49  C31 UNL     1      12.078  -0.173  -2.754 +0.00 -0.00    -0.027 A  
DOCKED: ATOM     50  C32 UNL     1      11.042   0.663  -2.311 +0.00 +0.00    +0.025 A  
DOCKED: ATOM     51  C33 UNL     1      11.045   1.090  -0.994 +0.00 +0.00    +0.111 A  
DOCKED: ATOM     52  N6  UNL     1      11.994   0.741  -0.094 +0.00 -0.00    -0.263 NA 
DOCKED: ATOM     53  C34 UNL     1      12.992  -0.051  -0.545 +0.00 +0.00    +0.111 A  
DOCKED: ATOM     54  C35 UNL     1      13.078  -0.525  -1.845 +0.00 +0.00    +0.025 A  
DOCKED: ENDBRANCH  48  49
DOCKED: ENDBRANCH  46  48
DOCKED: ENDBRANCH  43  44
DOCKED: BRANCH  43  55
DOCKED: ATOM     55  C36 UNL     1      13.817  -5.250  -5.306 +0.00 +0.00    +0.012 C  
DOCKED: ATOM     56  C37 UNL     1      15.106  -5.161  -4.485 +0.00 +0.00    +0.009 C  
DOCKED: ATOM     57  C38 UNL     1      13.412  -6.726  -5.424 +0.00 +0.00    +0.009 C  
DOCKED: ENDBRANCH  43  55
DOCKED: ENDBRANCH  41  43
DOCKED: ENDBRANCH  37  39
DOCKED: ENDBRANCH  36  37
DOCKED: ENDBRANCH  33  36
DOCKED: ENDBRANCH   1  33
DOCKED: TORSDOF 21
DOCKED: TER
DOCKED: ENDMDL
________________________________________________________________________________


    FINAL DOCKED STATE:
    ________________________


Run:   3 / 20
Time taken for this run:   1.471s

DOCKED: MODEL        3
DOCKED: USER    Run = 3
DOCKED: USER
DOCKED: USER    Estimated Free Energy of Binding    =  +6.26 kcal/mol  [=(1)+(2)+(3)-(4)]
DOCKED: USER
DOCKED: USER    (1) Final Intermolecular Energy     =  +0.00 kcal/mol
DOCKED: USER        vdW + Hbond + desolv Energy     =  +0.00 kcal/mol
DOCKED: USER        Electrostatic Energy            =  +0.00 kcal/mol
DOCKED: USER        Moving Ligand-Fixed Receptor    =  +0.00 kcal/mol
DOCKED: USER        Moving Ligand-Moving Receptor   =  +0.00 kcal/mol
DOCKED: USER    (2) Final Total Internal Energy     = -14.95 kcal/mol
DOCKED: USER    (3) Torsional Free Energy           =  +6.26 kcal/mol
DOCKED: USER    (4) Unbound System's Energy         = -14.95 kcal/mol
DOCKED: USER
DOCKED: USER
DOCKED: REMARK  Name = ligands/ligand_12.pdb
DOCKED: REMARK  30 active torsions:
DOCKED: REMARK  status: ('A' for Active; 'I' for Inactive)
DOCKED: REMARK    1  A    between atoms: C1_1  and  C2_2
DOCKED: REMARK    2  A    between atoms: C2_2  and  C3_3
DOCKED: REMARK    3  A    between atoms: C3_3  and  C4_4
DOCKED: REMARK    4  A    between atoms: C3_3  and  C5_5
DOCKED: REMARK    5  A    between atoms: C5_5  and  N1_6
DOCKED: REMARK    6  A    between atoms: C5_5  and  C11_14
DOCKED: REMARK    7  A    between atoms: C6_7  and  O2_9
DOCKED: REMARK    8  A    between atoms: O2_9  and  C7_10
DOCKED: REMARK    9  A    between atoms: C7_10  and  C8_11
DOCKED: REMARK   10  A    between atoms: C7_10  and  C9_12
DOCKED: REMARK   11  A    between atoms: C7_10  and  C10_13
DOCKED: REMARK   12  A    between atoms: N2_16  and  C12_17
DOCKED: REMARK   13  A    between atoms: C12_17  and  C13_18
DOCKED: REMARK   14  A    between atoms: C12_17  and  C14_19
DOCKED: REMARK   15  A    between atoms: N3_21  and  C15_22
DOCKED: REMARK   16  A    between atoms: C15_22  and  C16_23
DOCKED: REMARK   17  A    between atoms: C15_22  and  C23_30
DOCKED: REMARK   18  A    between atoms: C16_23  and  C17_24
DOCKED: REMARK   19  A    between atoms: C23_30  and  O5_31
DOCKED: REMARK   20  A    between atoms: C23_30  and  C24_32
DOCKED: REMARK   21  A    between atoms: C24_32  and  C25_33
DOCKED: REMARK   22  A    between atoms: C25_33  and  C26_34
DOCKED: REMARK   23  A    between atoms: C25_33  and  C27_35
DOCKED: REMARK   24  A    between atoms: N4_37  and  C28_38
DOCKED: REMARK   25  A    between atoms: C28_38  and  C29_39
DOCKED: REMARK   26  A    between atoms: C28_38  and  C36_49
DOCKED: REMARK   27  A    between atoms: N5_41  and  C30_42
DOCKED: REMARK   28  A    between atoms: C30_42  and  C31_43
DOCKED: REMARK   29  A    between atoms: C36_49  and  C37_50
DOCKED: REMARK   30  A    between atoms: C36_49  and  C38_51
DOCKED: REMARK                            x       y       z     vdW  Elec       q    Type
DOCKED: REMARK                         _______ _______ _______ _____ _____    ______ ____
DOCKED: USER                              x       y       z     vdW  Elec       q    Type
DOCKED: USER                           _______ _______ _______ _____ _____    ______ ____
DOCKED: ROOT
DOCKED: ATOM      1  C15 UNL     1      16.021  -5.865   2.076 +0.00 +0.00    +0.106 C  
DOCKED: ENDROOT
DOCKED: BRANCH   1   4
DOCKED: ATOM      2  C14 UNL     1      13.886  -4.586   2.085 +0.00 +0.00    +0.233 C  
DOCKED: ATOM      3  O4  UNL     1      13.206  -5.598   2.260 +0.00 -0.00    -0.274 OA 
DOCKED: ATOM      4  N3  UNL     1      15.261  -4.614   2.024 +0.00 -0.00    -0.308 N  
DOCKED: ATOM      5  H26 UNL     1      15.743  -3.792   1.671 +0.00 +0.00    +0.149 HD 
DOCKED: BRANCH   2   6
DOCKED: ATOM      6  C12 UNL     1      13.260  -3.186   1.917 +0.00 +0.00    +0.156 C  
DOCKED: ATOM      7  C13 UNL     1      11.769  -3.281   1.616 +0.00 +0.00    +0.038 C  
DOCKED: BRANCH   6  10
DOCKED: ATOM      8  C11 UNL     1      13.795  -2.819  -0.487 +0.00 +0.00    +0.234 C  
DOCKED: ATOM      9  O3  UNL     1      13.011  -3.684  -0.872 +0.00 -0.00    -0.274 OA 
DOCKED: ATOM     10  N2  UNL     1      13.981  -2.518   0.842 +0.00 -0.00    -0.303 N  
DOCKED: ATOM     11  H21 UNL     1      14.592  -1.757   1.121 +0.00 +0.00    +0.149 HD 
DOCKED: BRANCH   8  12
DOCKED: ATOM     12  C5  UNL     1      14.626  -1.932  -1.448 +0.00 +0.00    +0.165 C  
DOCKED: BRANCH  12  13
DOCKED: ATOM     13  N1  UNL     1      15.915  -2.590  -1.609 +0.00 -0.00    -0.270 N  
DOCKED: ATOM     14  C6  UNL     1      16.774  -2.749  -0.563 +0.00 +0.00    +0.401 C  
DOCKED: ATOM     15  O1  UNL     1      16.614  -2.275   0.550 +0.00 -0.00    -0.226 OA 
DOCKED: ATOM     16  H11 UNL     1      16.027  -3.284  -2.337 +0.00 +0.00    +0.153 HD 
DOCKED: BRANCH  14  17
DOCKED: ATOM     17  O2  UNL     1      17.791  -3.542  -0.965 +0.00 -0.00    -0.445 OA 
DOCKED: BRANCH  17  18
DOCKED: ATOM     18  C7  UNL     1      19.114  -2.998  -1.190 +0.00 +0.00    +0.107 C  
DOCKED: ATOM     19  C8  UNL     1      19.122  -1.975  -2.330 +0.00 +0.00    +0.055 C  
DOCKED: ATOM     20  C9  UNL     1      19.691  -2.427   0.108 +0.00 +0.00    +0.055 C  
DOCKED: ATOM     21  C10 UNL     1      19.970  -4.202  -1.616 +0.00 +0.00    +0.055 C  
DOCKED: ENDBRANCH  17  18
DOCKED: ENDBRANCH  14  17
DOCKED: ENDBRANCH  12  13
DOCKED: BRANCH  12  22
DOCKED: ATOM     22  C3  UNL     1      13.919  -1.746  -2.820 +0.00 +0.00    +0.015 C  
DOCKED: ATOM     23  C4  UNL     1      14.927  -1.901  -3.969 +0.00 +0.00    +0.010 C  
DOCKED: BRANCH  22  25
DOCKED: ATOM     24  C1  UNL     1      12.565   0.082  -1.598 +0.00 +0.00    +0.004 C  
DOCKED: ATOM     25  C2  UNL     1      13.189  -0.386  -2.904 +0.00 +0.00    +0.002 C  
DOCKED: ENDBRANCH  22  25
DOCKED: ENDBRANCH  12  22
DOCKED: ENDBRANCH   8  12
DOCKED: ENDBRANCH   6  10
DOCKED: ENDBRANCH   2   6
DOCKED: ENDBRANCH   1   4
DOCKED: BRANCH   1  26
DOCKED: ATOM     26  C16 UNL     1      15.597  -6.895   0.997 +0.00 +0.00    +0.060 C  
DOCKED: BRANCH  26  27
DOCKED: ATOM     27  C17 UNL     1      15.774  -6.489  -0.447 +0.00 -0.00    -0.046 A  
DOCKED: ATOM     28  C18 UNL     1      17.039  -6.550  -1.050 +0.00 +0.00    +0.004 A  
DOCKED: ATOM     29  C19 UNL     1      17.218  -6.146  -2.373 +0.00 +0.00    +0.000 A  
DOCKED: ATOM     30  C20 UNL     1      16.130  -5.687  -3.115 +0.00 +0.00    +0.000 A  
DOCKED: ATOM     31  C21 UNL     1      14.862  -5.644  -2.538 +0.00 +0.00    +0.000 A  
DOCKED: ATOM     32  C22 UNL     1      14.683  -6.055  -1.217 +0.00 +0.00    +0.004 A  
DOCKED: ENDBRANCH  26  27
DOCKED: ENDBRANCH   1  26
DOCKED: BRANCH   1  33
DOCKED: ATOM     33  C23 UNL     1      17.544  -5.594   2.216 +0.00 +0.00    +0.136 C  
DOCKED: BRANCH  33  34
DOCKED: ATOM     34  O5  UNL     1      17.824  -4.218   1.920 +0.00 -0.00    -0.390 OA 
DOCKED: ATOM     35  H36 UNL     1      17.692  -4.104   0.964 +0.00 +0.00    +0.210 HD 
DOCKED: ENDBRANCH  33  34
DOCKED: BRANCH  33  36
DOCKED: ATOM     36  C24 UNL     1      18.181  -5.914   3.580 +0.00 +0.00    +0.045 C  
DOCKED: BRANCH  36  37
DOCKED: ATOM     37  C25 UNL     1      17.171  -5.737   4.727 +0.00 +0.00    +0.074 C  
DOCKED: ATOM     38  C26 UNL     1      17.366  -6.804   5.803 +0.00 +0.00    +0.017 C  
DOCKED: BRANCH  37  39
DOCKED: ATOM     39  C27 UNL     1      17.300  -4.321   5.281 +0.00 +0.00    +0.217 C  
DOCKED: ATOM     40  O6  UNL     1      17.321  -4.097   6.488 +0.00 -0.00    -0.276 OA 
DOCKED: ATOM     41  N4  UNL     1      17.276  -3.316   4.353 +0.00 -0.00    -0.304 N  
DOCKED: ATOM     42  H43 UNL     1      17.098  -3.524   3.374 +0.00 +0.00    +0.149 HD 
DOCKED: BRANCH  41  43
DOCKED: ATOM     43  C28 UNL     1      17.252  -1.893   4.692 +0.00 +0.00    +0.161 C  
DOCKED: BRANCH  43  44
DOCKED: ATOM     44  C29 UNL     1      16.294  -1.277   3.644 +0.00 +0.00    +0.234 C  
DOCKED: ATOM     45  O7  UNL     1      15.644  -1.981   2.868 +0.00 -0.00    -0.274 OA 
DOCKED: ATOM     46  N5  UNL     1      16.223   0.097   3.641 +0.00 -0.00    -0.310 N  
DOCKED: ATOM     47  H45 UNL     1      16.838   0.634   4.235 +0.00 +0.00    +0.149 HD 
DOCKED: BRANCH  46  48
DOCKED: ATOM     48  C30 UNL     1      15.463   0.815   2.641 +0.00 +0.00    +0.139 C  
DOCKED: BRANCH  48  49
DOCKED: ATOM     49  C31 UNL     1      16.148   0.786   1.302 +0.00 -0.00    -0.027 A  
DOCKED: ATOM     50  C32 UNL     1      17.530   0.564   1.212 +0.00 +0.00    +0.025 A  
DOCKED: ATOM     51  C33 UNL     1      18.128   0.569  -0.036 +0.00 +0.00    +0.111 A  
DOCKED: ATOM     52  N6  UNL     1      17.452   0.772  -1.191 +0.00 -0.00    -0.263 NA 
DOCKED: ATOM     53  C34 UNL     1      16.125   1.000  -1.082 +0.00 +0.00    +0.111 A  
DOCKED: ATOM     54  C35 UNL     1      15.438   1.019   0.122 +0.00 +0.00    +0.025 A  
DOCKED: ENDBRANCH  48  49
DOCKED: ENDBRANCH  46  48
DOCKED: ENDBRANCH  43  44
DOCKED: BRANCH  43  55
DOCKED: ATOM     55  C36 UNL     1      18.666  -1.273   4.647 +0.00 +0.00    +0.012 C  
DOCKED: ATOM     56  C37 UNL     1      19.528  -1.696   5.839 +0.00 +0.00    +0.009 C  
DOCKED: ATOM     57  C38 UNL     1      19.400  -1.651   3.353 +0.00 +0.00    +0.009 C  
DOCKED: ENDBRANCH  43  55
DOCKED: ENDBRANCH  41  43
DOCKED: ENDBRANCH  37  39
DOCKED: ENDBRANCH  36  37
DOCKED: ENDBRANCH  33  36
DOCKED: ENDBRANCH   1  33
DOCKED: TORSDOF 21
DOCKED: TER
DOCKED: ENDMDL
________________________________________________________________________________


    FINAL DOCKED STATE:
    ________________________


Run:   4 / 20
Time taken for this run:   1.471s

DOCKED: MODEL        4
DOCKED: USER    Run = 4
DOCKED: USER
DOCKED: USER    Estimated Free Energy of Binding    =  +6.26 kcal/mol  [=(1)+(2)+(3)-(4)]
DOCKED: USER
DOCKED: USER    (1) Final Intermolecular Energy     =  +0.00 kcal/mol
DOCKED: USER        vdW + Hbond + desolv Energy     =  +0.00 kcal/mol
DOCKED: USER        Electrostatic Energy            =  +0.00 kcal/mol
DOCKED: USER        Moving Ligand-Fixed Receptor    =  +0.00 kcal/mol
DOCKED: USER        Moving Ligand-Moving Receptor   =  +0.00 kcal/mol
DOCKED: USER    (2) Final Total Internal Energy     = -15.09 kcal/mol
DOCKED: USER    (3) Torsional Free Energy           =  +6.26 kcal/mol
DOCKED: USER    (4) Unbound System's Energy         = -15.09 kcal/mol
DOCKED: USER
DOCKED: USER
DOCKED: REMARK  Name = ligands/ligand_12.pdb
DOCKED: REMARK  30 active torsions:
DOCKED: REMARK  status: ('A' for Active; 'I' for Inactive)
DOCKED: REMARK    1  A    between atoms: C1_1  and  C2_2
DOCKED: REMARK    2  A    between atoms: C2_2  and  C3_3
DOCKED: REMARK    3  A    between atoms: C3_3  and  C4_4
DOCKED: REMARK    4  A    between atoms: C3_3  and  C5_5
DOCKED: REMARK    5  A    between atoms: C5_5  and  N1_6
DOCKED: REMARK    6  A    between atoms: C5_5  and  C11_14
DOCKED: REMARK    7  A    between atoms: C6_7  and  O2_9
DOCKED: REMARK    8  A    between atoms: O2_9  and  C7_10
DOCKED: REMARK    9  A    between atoms: C7_10  and  C8_11
DOCKED: REMARK   10  A    between atoms: C7_10  and  C9_12
DOCKED: REMARK   11  A    between atoms: C7_10  and  C10_13
DOCKED: REMARK   12  A    between atoms: N2_16  and  C12_17
DOCKED: REMARK   13  A    between atoms: C12_17  and  C13_18
DOCKED: REMARK   14  A    between atoms: C12_17  and  C14_19
DOCKED: REMARK   15  A    between atoms: N3_21  and  C15_22
DOCKED: REMARK   16  A    between atoms: C15_22  and  C16_23
DOCKED: REMARK   17  A    between atoms: C15_22  and  C23_30
DOCKED: REMARK   18  A    between atoms: C16_23  and  C17_24
DOCKED: REMARK   19  A    between atoms: C23_30  and  O5_31
DOCKED: REMARK   20  A    between atoms: C23_30  and  C24_32
DOCKED: REMARK   21  A    between atoms: C24_32  and  C25_33
DOCKED: REMARK   22  A    between atoms: C25_33  and  C26_34
DOCKED: REMARK   23  A    between atoms: C25_33  and  C27_35
DOCKED: REMARK   24  A    between atoms: N4_37  and  C28_38
DOCKED: REMARK   25  A    between atoms: C28_38  and  C29_39
DOCKED: REMARK   26  A    between atoms: C28_38  and  C36_49
DOCKED: REMARK   27  A    between atoms: N5_41  and  C30_42
DOCKED: REMARK   28  A    between atoms: C30_42  and  C31_43
DOCKED: REMARK   29  A    between atoms: C36_49  and  C37_50
DOCKED: REMARK   30  A    between atoms: C36_49  and  C38_51
DOCKED: REMARK                            x       y       z     vdW  Elec       q    Type
DOCKED: REMARK                         _______ _______ _______ _____ _____    ______ ____
DOCKED: USER                              x       y       z     vdW  Elec       q    Type
DOCKED: USER                           _______ _______ _______ _____ _____    ______ ____
DOCKED: ROOT
DOCKED: ATOM      1  C15 UNL     1       6.506  -3.730   2.978 +0.00 +0.00    +0.106 C  
DOCKED: ENDROOT
DOCKED: BRANCH   1   4
DOCKED: ATOM      2  C14 UNL     1       7.848  -5.096   1.388 +0.00 +0.00    +0.233 C  
DOCKED: ATOM      3  O4  UNL     1       7.035  -6.020   1.397 +0.00 -0.00    -0.274 OA 
DOCKED: ATOM      4  N3  UNL     1       7.656  -3.929   2.092 +0.00 -0.00    -0.308 N  
DOCKED: ATOM      5  H26 UNL     1       8.449  -3.304   2.213 +0.00 +0.00    +0.149 HD 
DOCKED: BRANCH   2   6
DOCKED: ATOM      6  C12 UNL     1       9.164  -5.157   0.587 +0.00 +0.00    +0.156 C  
DOCKED: ATOM      7  C13 UNL     1       9.484  -6.585   0.159 +0.00 +0.00    +0.038 C  
DOCKED: BRANCH   6  10
DOCKED: ATOM      8  C11 UNL     1      10.899  -5.355   2.363 +0.00 +0.00    +0.234 C  
DOCKED: ATOM      9  O3  UNL     1      10.674  -6.549   2.555 +0.00 -0.00    -0.274 OA 
DOCKED: ATOM     10  N2  UNL     1      10.212  -4.606   1.435 +0.00 -0.00    -0.303 N  
DOCKED: ATOM     11  H21 UNL     1      10.465  -3.639   1.261 +0.00 +0.00    +0.149 HD 
DOCKED: BRANCH   8  12
DOCKED: ATOM     12  C5  UNL     1      12.010  -4.567   3.100 +0.00 +0.00    +0.165 C  
DOCKED: BRANCH  12  13
DOCKED: ATOM     13  N1  UNL     1      11.381  -3.950   4.259 +0.00 -0.00    -0.270 N  
DOCKED: ATOM     14  C6  UNL     1      10.404  -3.008   4.129 +0.00 +0.00    +0.401 C  
DOCKED: ATOM     15  O1  UNL     1      10.047  -2.515   3.072 +0.00 -0.00    -0.226 OA 
DOCKED: ATOM     16  H11 UNL     1      11.335  -4.466   5.129 +0.00 +0.00    +0.153 HD 
DOCKED: BRANCH  14  17
DOCKED: ATOM     17  O2  UNL     1       9.891  -2.756   5.353 +0.00 -0.00    -0.445 OA 
DOCKED: BRANCH  17  18
DOCKED: ATOM     18  C7  UNL     1      10.419  -1.688   6.175 +0.00 +0.00    +0.107 C  
DOCKED: ATOM     19  C8  UNL     1      11.761  -1.173   5.647 +0.00 +0.00    +0.055 C  
DOCKED: ATOM     20  C9  UNL     1       9.387  -0.568   6.333 +0.00 +0.00    +0.055 C  
DOCKED: ATOM     21  C10 UNL     1      10.656  -2.329   7.552 +0.00 +0.00    +0.055 C  
DOCKED: ENDBRANCH  17  18
DOCKED: ENDBRANCH  14  17
DOCKED: ENDBRANCH  12  13
DOCKED: BRANCH  12  22
DOCKED: ATOM     22  C3  UNL     1      13.186  -5.489   3.528 +0.00 +0.00    +0.015 C  
DOCKED: ATOM     23  C4  UNL     1      12.844  -6.227   4.830 +0.00 +0.00    +0.010 C  
DOCKED: BRANCH  22  25
DOCKED: ATOM     24  C1  UNL     1      14.330  -3.196   3.852 +0.00 +0.00    +0.004 C  
DOCKED: ATOM     25  C2  UNL     1      14.506  -4.696   3.671 +0.00 +0.00    +0.002 C  
DOCKED: ENDBRANCH  22  25
DOCKED: ENDBRANCH  12  22
DOCKED: ENDBRANCH   8  12
DOCKED: ENDBRANCH   6  10
DOCKED: ENDBRANCH   2   6
DOCKED: ENDBRANCH   1   4
DOCKED: BRANCH   1  26
DOCKED: ATOM     26  C16 UNL     1       6.297  -4.882   3.993 +0.00 +0.00    +0.060 C  
DOCKED: BRANCH  26  27
DOCKED: ATOM     27  C17 UNL     1       7.417  -5.148   4.971 +0.00 -0.00    -0.046 A  
DOCKED: ATOM     28  C18 UNL     1       8.459  -6.025   4.635 +0.00 +0.00    +0.004 A  
DOCKED: ATOM     29  C19 UNL     1       9.480  -6.302   5.544 +0.00 +0.00    +0.000 A  
DOCKED: ATOM     30  C20 UNL     1       9.479  -5.693   6.799 +0.00 +0.00    +0.000 A  
DOCKED: ATOM     31  C21 UNL     1       8.465  -4.800   7.139 +0.00 +0.00    +0.000 A  
DOCKED: ATOM     32  C22 UNL     1       7.448  -4.518   6.226 +0.00 +0.00    +0.004 A  
DOCKED: ENDBRANCH  26  27
DOCKED: ENDBRANCH   1  26
DOCKED: BRANCH   1  33
DOCKED: ATOM     33  C23 UNL     1       6.480  -2.286   3.551 +0.00 +0.00    +0.136 C  
DOCKED: BRANCH  33  34
DOCKED: ATOM     34  O5  UNL     1       7.790  -1.917   4.004 +0.00 -0.00    -0.390 OA 
DOCKED: ATOM     35  H36 UNL     1       8.247  -2.741   4.242 +0.00 +0.00    +0.210 HD 
DOCKED: ENDBRANCH  33  34
DOCKED: BRANCH  33  36
DOCKED: ATOM     36  C24 UNL     1       5.986  -1.176   2.606 +0.00 +0.00    +0.045 C  
DOCKED: BRANCH  36  37
DOCKED: ATOM     37  C25 UNL     1       6.279   0.221   3.179 +0.00 +0.00    +0.074 C  
DOCKED: ATOM     38  C26 UNL     1       6.372   0.185   4.703 +0.00 +0.00    +0.017 C  
DOCKED: BRANCH  37  39
DOCKED: ATOM     39  C27 UNL     1       7.552   0.760   2.531 +0.00 +0.00    +0.217 C  
DOCKED: ATOM     40  O6  UNL     1       7.636   1.918   2.133 +0.00 -0.00    -0.276 OA 
DOCKED: ATOM     41  N4  UNL     1       8.546  -0.157   2.322 +0.00 -0.00    -0.304 N  
DOCKED: ATOM     42  H43 UNL     1       8.386  -1.142   2.518 +0.00 +0.00    +0.149 HD 
DOCKED: BRANCH  41  43
DOCKED: ATOM     43  C28 UNL     1       9.783   0.131   1.597 +0.00 +0.00    +0.161 C  
DOCKED: BRANCH  43  44
DOCKED: ATOM     44  C29 UNL     1       9.878  -1.008   0.555 +0.00 +0.00    +0.234 C  
DOCKED: ATOM     45  O7  UNL     1       9.232  -2.051   0.676 +0.00 -0.00    -0.274 OA 
DOCKED: ATOM     46  N5  UNL     1      10.727  -0.775  -0.502 +0.00 -0.00    -0.310 N  
DOCKED: ATOM     47  H45 UNL     1      11.301   0.055  -0.514 +0.00 +0.00    +0.149 HD 
DOCKED: BRANCH  46  48
DOCKED: ATOM     48  C30 UNL     1      11.009  -1.796  -1.488 +0.00 +0.00    +0.139 C  
DOCKED: BRANCH  48  49
DOCKED: ATOM     49  C31 UNL     1      11.901  -2.870  -0.930 +0.00 -0.00    -0.027 A  
DOCKED: ATOM     50  C32 UNL     1      12.913  -2.553  -0.012 +0.00 +0.00    +0.025 A  
DOCKED: ATOM     51  C33 UNL     1      13.730  -3.566   0.459 +0.00 +0.00    +0.111 A  
DOCKED: ATOM     52  N6  UNL     1      13.607  -4.862   0.090 +0.00 -0.00    -0.263 NA 
DOCKED: ATOM     53  C34 UNL     1      12.638  -5.146  -0.807 +0.00 +0.00    +0.111 A  
DOCKED: ATOM     54  C35 UNL     1      11.774  -4.200  -1.340 +0.00 +0.00    +0.025 A  
DOCKED: ENDBRANCH  48  49
DOCKED: ENDBRANCH  46  48
DOCKED: ENDBRANCH  43  44
DOCKED: BRANCH  43  55
DOCKED: ATOM     55  C36 UNL     1      11.001   0.178   2.546 +0.00 +0.00    +0.012 C  
DOCKED: ATOM     56  C37 UNL     1      12.322   0.356   1.792 +0.00 +0.00    +0.009 C  
DOCKED: ATOM     57  C38 UNL     1      10.866   1.311   3.572 +0.00 +0.00    +0.009 C  
DOCKED: ENDBRANCH  43  55
DOCKED: ENDBRANCH  41  43
DOCKED: ENDBRANCH  37  39
DOCKED: ENDBRANCH  36  37
DOCKED: ENDBRANCH  33  36
DOCKED: ENDBRANCH   1  33
DOCKED: TORSDOF 21
DOCKED: TER
DOCKED: ENDMDL
________________________________________________________________________________


    FINAL DOCKED STATE:
    ________________________


Run:   5 / 20
Time taken for this run:   1.471s

DOCKED: MODEL        5
DOCKED: USER    Run = 5
DOCKED: USER
DOCKED: USER    Estimated Free Energy of Binding    =  +6.26 kcal/mol  [=(1)+(2)+(3)-(4)]
DOCKED: USER
DOCKED: USER    (1) Final Intermolecular Energy     =  +0.00 kcal/mol
DOCKED: USER        vdW + Hbond + desolv Energy     =  +0.00 kcal/mol
DOCKED: USER        Electrostatic Energy            =  +0.00 kcal/mol
DOCKED: USER        Moving Ligand-Fixed Receptor    =  +0.00 kcal/mol
DOCKED: USER        Moving Ligand-Moving Receptor   =  +0.00 kcal/mol
DOCKED: USER    (2) Final Total Internal Energy     = -14.71 kcal/mol
DOCKED: USER    (3) Torsional Free Energy           =  +6.26 kcal/mol
DOCKED: USER    (4) Unbound System's Energy         = -14.71 kcal/mol
DOCKED: USER
DOCKED: USER
DOCKED: REMARK  Name = ligands/ligand_12.pdb
DOCKED: REMARK  30 active torsions:
DOCKED: REMARK  status: ('A' for Active; 'I' for Inactive)
DOCKED: REMARK    1  A    between atoms: C1_1  and  C2_2
DOCKED: REMARK    2  A    between atoms: C2_2  and  C3_3
DOCKED: REMARK    3  A    between atoms: C3_3  and  C4_4
DOCKED: REMARK    4  A    between atoms: C3_3  and  C5_5
DOCKED: REMARK    5  A    between atoms: C5_5  and  N1_6
DOCKED: REMARK    6  A    between atoms: C5_5  and  C11_14
DOCKED: REMARK    7  A    between atoms: C6_7  and  O2_9
DOCKED: REMARK    8  A    between atoms: O2_9  and  C7_10
DOCKED: REMARK    9  A    between atoms: C7_10  and  C8_11
DOCKED: REMARK   10  A    between atoms: C7_10  and  C9_12
DOCKED: REMARK   11  A    between atoms: C7_10  and  C10_13
DOCKED: REMARK   12  A    between atoms: N2_16  and  C12_17
DOCKED: REMARK   13  A    between atoms: C12_17  and  C13_18
DOCKED: REMARK   14  A    between atoms: C12_17  and  C14_19
DOCKED: REMARK   15  A    between atoms: N3_21  and  C15_22
DOCKED: REMARK   16  A    between atoms: C15_22  and  C16_23
DOCKED: REMARK   17  A    between atoms: C15_22  and  C23_30
DOCKED: REMARK   18  A    between atoms: C16_23  and  C17_24
DOCKED: REMARK   19  A    between atoms: C23_30  and  O5_31
DOCKED: REMARK   20  A    between atoms: C23_30  and  C24_32
DOCKED: REMARK   21  A    between atoms: C24_32  and  C25_33
DOCKED: REMARK   22  A    between atoms: C25_33  and  C26_34
DOCKED: REMARK   23  A    between atoms: C25_33  and  C27_35
DOCKED: REMARK   24  A    between atoms: N4_37  and  C28_38
DOCKED: REMARK   25  A    between atoms: C28_38  and  C29_39
DOCKED: REMARK   26  A    between atoms: C28_38  and  C36_49
DOCKED: REMARK   27  A    between atoms: N5_41  and  C30_42
DOCKED: REMARK   28  A    between atoms: C30_42  and  C31_43
DOCKED: REMARK   29  A    between atoms: C36_49  and  C37_50
DOCKED: REMARK   30  A    between atoms: C36_49  and  C38_51
DOCKED: REMARK                            x       y       z     vdW  Elec       q    Type
DOCKED: REMARK                         _______ _______ _______ _____ _____    ______ ____
DOCKED: USER                              x       y       z     vdW  Elec       q    Type
DOCKED: USER                           _______ _______ _______ _____ _____    ______ ____
DOCKED: ROOT
DOCKED: ATOM      1  C15 UNL     1       9.389   0.505  -4.562 +0.00 +0.00    +0.106 C  
DOCKED: ENDROOT
DOCKED: BRANCH   1   4
DOCKED: ATOM      2  C14 UNL     1      10.262  -1.812  -4.812 +0.00 +0.00    +0.233 C  
DOCKED: ATOM      3  O4  UNL     1       9.401  -2.116  -5.637 +0.00 -0.00    -0.274 OA 
DOCKED: ATOM      4  N3  UNL     1      10.359  -0.552  -4.266 +0.00 -0.00    -0.308 N  
DOCKED: ATOM      5  H26 UNL     1      10.946  -0.427  -3.446 +0.00 +0.00    +0.149 HD 
DOCKED: BRANCH   2   6
DOCKED: ATOM      6  C12 UNL     1      11.317  -2.817  -4.307 +0.00 +0.00    +0.156 C  
DOCKED: ATOM      7  C13 UNL     1      10.660  -4.043  -3.685 +0.00 +0.00    +0.038 C  
DOCKED: BRANCH   6  10
DOCKED: ATOM      8  C11 UNL     1      13.482  -2.423  -3.139 +0.00 +0.00    +0.234 C  
DOCKED: ATOM      9  O3  UNL     1      14.059  -3.323  -3.746 +0.00 -0.00    -0.274 OA 
DOCKED: ATOM     10  N2  UNL     1      12.156  -2.115  -3.345 +0.00 -0.00    -0.303 N  
DOCKED: ATOM     11  H21 UNL     1      11.728  -1.327  -2.870 +0.00 +0.00    +0.149 HD 
DOCKED: BRANCH   8  12
DOCKED: ATOM     12  C5  UNL     1      14.183  -1.499  -2.113 +0.00 +0.00    +0.165 C  
DOCKED: BRANCH  12  13
DOCKED: ATOM     13  N1  UNL     1      13.433  -1.615  -0.871 +0.00 -0.00    -0.270 N  
DOCKED: ATOM     14  C6  UNL     1      12.250  -0.964  -0.683 +0.00 +0.00    +0.401 C  
DOCKED: ATOM     15  O1  UNL     1      11.769  -0.155  -1.460 +0.00 -0.00    -0.226 OA 
DOCKED: ATOM     16  H11 UNL     1      13.529  -2.454  -0.313 +0.00 +0.00    +0.153 HD 
DOCKED: BRANCH  14  17
DOCKED: ATOM     17  O2  UNL     1      11.704  -1.397   0.473 +0.00 -0.00    -0.445 OA 
DOCKED: BRANCH  17  18
DOCKED: ATOM     18  C7  UNL     1      10.884  -2.589   0.508 +0.00 +0.00    +0.107 C  
DOCKED: ATOM     19  C8  UNL     1      11.733  -3.863   0.570 +0.00 +0.00    +0.055 C  
DOCKED: ATOM     20  C9  UNL     1       9.867  -2.512   1.650 +0.00 +0.00    +0.055 C  
DOCKED: ATOM     21  C10 UNL     1      10.119  -2.583  -0.826 +0.00 +0.00    +0.055 C  
DOCKED: ENDBRANCH  17  18
DOCKED: ENDBRANCH  14  17
DOCKED: ENDBRANCH  12  13
DOCKED: BRANCH  12  22
DOCKED: ATOM     22  C3  UNL     1      15.673  -1.892  -1.904 +0.00 +0.00    +0.015 C  
DOCKED: ATOM     23  C4  UNL     1      15.788  -3.039  -0.890 +0.00 +0.00    +0.010 C  
DOCKED: BRANCH  22  25
DOCKED: ATOM     24  C1  UNL     1      15.867   0.221  -0.431 +0.00 +0.00    +0.004 C  
DOCKED: ATOM     25  C2  UNL     1      16.525  -0.678  -1.467 +0.00 +0.00    +0.002 C  
DOCKED: ENDBRANCH  22  25
DOCKED: ENDBRANCH  12  22
DOCKED: ENDBRANCH   8  12
DOCKED: ENDBRANCH   6  10
DOCKED: ENDBRANCH   2   6
DOCKED: ENDBRANCH   1   4
DOCKED: BRANCH   1  26
DOCKED: ATOM     26  C16 UNL     1       7.941   0.159  -4.126 +0.00 +0.00    +0.060 C  
DOCKED: BRANCH  26  27
DOCKED: ATOM     27  C17 UNL     1       7.735  -0.240  -2.684 +0.00 -0.00    -0.046 A  
DOCKED: ATOM     28  C18 UNL     1       7.021  -1.404  -2.365 +0.00 +0.00    +0.004 A  
DOCKED: ATOM     29  C19 UNL     1       6.798  -1.763  -1.036 +0.00 +0.00    +0.000 A  
DOCKED: ATOM     30  C20 UNL     1       7.298  -0.967  -0.006 +0.00 +0.00    +0.000 A  
DOCKED: ATOM     31  C21 UNL     1       8.031   0.180  -0.305 +0.00 +0.00    +0.000 A  
DOCKED: ATOM     32  C22 UNL     1       8.260   0.534  -1.636 +0.00 +0.00    +0.004 A  
DOCKED: ENDBRANCH  26  27
DOCKED: ENDBRANCH   1  26
DOCKED: BRANCH   1  33
DOCKED: ATOM     33  C23 UNL     1       9.927   1.900  -4.137 +0.00 +0.00    +0.136 C  
DOCKED: BRANCH  33  34
DOCKED: ATOM     34  O5  UNL     1      10.626   1.793  -2.889 +0.00 -0.00    -0.390 OA 
DOCKED: ATOM     35  H36 UNL     1      11.191   1.003  -2.949 +0.00 +0.00    +0.210 HD 
DOCKED: ENDBRANCH  33  34
DOCKED: BRANCH  33  36
DOCKED: ATOM     36  C24 UNL     1      10.860   2.613  -5.132 +0.00 +0.00    +0.045 C  
DOCKED: BRANCH  36  37
DOCKED: ATOM     37  C25 UNL     1      11.941   1.660  -5.670 +0.00 +0.00    +0.074 C  
DOCKED: ATOM     38  C26 UNL     1      12.643   2.254  -6.890 +0.00 +0.00    +0.017 C  
DOCKED: BRANCH  37  39
DOCKED: ATOM     39  C27 UNL     1      12.914   1.335  -4.540 +0.00 +0.00    +0.217 C  
DOCKED: ATOM     40  O6  UNL     1      12.733   0.388  -3.780 +0.00 -0.00    -0.276 OA 
DOCKED: ATOM     41  N4  UNL     1      13.936   2.228  -4.361 +0.00 -0.00    -0.304 N  
DOCKED: ATOM     42  H43 UNL     1      13.968   3.087  -4.904 +0.00 +0.00    +0.149 HD 
DOCKED: BRANCH  41  43
DOCKED: ATOM     43  C28 UNL     1      14.889   2.165  -3.254 +0.00 +0.00    +0.161 C  
DOCKED: BRANCH  43  44
DOCKED: ATOM     44  C29 UNL     1      14.227   3.015  -2.142 +0.00 +0.00    +0.234 C  
DOCKED: ATOM     45  O7  UNL     1      14.789   4.000  -1.659 +0.00 -0.00    -0.274 OA 
DOCKED: ATOM     46  N5  UNL     1      12.981   2.594  -1.739 +0.00 -0.00    -0.310 N  
DOCKED: ATOM     47  H45 UNL     1      12.598   1.733  -2.101 +0.00 +0.00    +0.149 HD 
DOCKED: BRANCH  46  48
DOCKED: ATOM     48  C30 UNL     1      12.293   3.217  -0.628 +0.00 +0.00    +0.139 C  
DOCKED: BRANCH  48  49
DOCKED: ATOM     49  C31 UNL     1      12.106   2.255   0.513 +0.00 -0.00    -0.027 A  
DOCKED: ATOM     50  C32 UNL     1      10.819   1.900   0.944 +0.00 +0.00    +0.025 A  
DOCKED: ATOM     51  C33 UNL     1      10.688   1.031   2.013 +0.00 +0.00    +0.111 A  
DOCKED: ATOM     52  N6  UNL     1      11.739   0.492   2.675 +0.00 -0.00    -0.263 NA 
DOCKED: ATOM     53  C34 UNL     1      12.969   0.859   2.256 +0.00 +0.00    +0.111 A  
DOCKED: ATOM     54  C35 UNL     1      13.202   1.725   1.198 +0.00 +0.00    +0.025 A  
DOCKED: ENDBRANCH  48  49
DOCKED: ENDBRANCH  46  48
DOCKED: ENDBRANCH  43  44
DOCKED: BRANCH  43  55
DOCKED: ATOM     55  C36 UNL     1      16.278   2.700  -3.667 +0.00 +0.00    +0.012 C  
DOCKED: ATOM     56  C37 UNL     1      17.321   2.538  -2.557 +0.00 +0.00    +0.009 C  
DOCKED: ATOM     57  C38 UNL     1      16.793   1.995  -4.930 +0.00 +0.00    +0.009 C  
DOCKED: ENDBRANCH  43  55
DOCKED: ENDBRANCH  41  43
DOCKED: ENDBRANCH  37  39
DOCKED: ENDBRANCH  36  37
DOCKED: ENDBRANCH  33  36
DOCKED: ENDBRANCH   1  33
DOCKED: TORSDOF 21
DOCKED: TER
DOCKED: ENDMDL
________________________________________________________________________________


    FINAL DOCKED STATE:
    ________________________


Run:   6 / 20
Time taken for this run:   1.471s

DOCKED: MODEL        6
DOCKED: USER    Run = 6
DOCKED: USER
DOCKED: USER    Estimated Free Energy of Binding    =  +6.26 kcal/mol  [=(1)+(2)+(3)-(4)]
DOCKED: USER
DOCKED: USER    (1) Final Intermolecular Energy     =  +0.00 kcal/mol
DOCKED: USER        vdW + Hbond + desolv Energy     =  +0.00 kcal/mol
DOCKED: USER        Electrostatic Energy            =  +0.00 kcal/mol
DOCKED: USER        Moving Ligand-Fixed Receptor    =  +0.00 kcal/mol
DOCKED: USER        Moving Ligand-Moving Receptor   =  +0.00 kcal/mol
DOCKED: USER    (2) Final Total Internal Energy     = -14.70 kcal/mol
DOCKED: USER    (3) Torsional Free Energy           =  +6.26 kcal/mol
DOCKED: USER    (4) Unbound System's Energy         = -14.70 kcal/mol
DOCKED: USER
DOCKED: USER
DOCKED: REMARK  Name = ligands/ligand_12.pdb
DOCKED: REMARK  30 active torsions:
DOCKED: REMARK  status: ('A' for Active; 'I' for Inactive)
DOCKED: REMARK    1  A    between atoms: C1_1  and  C2_2
DOCKED: REMARK    2  A    between atoms: C2_2  and  C3_3
DOCKED: REMARK    3  A    between atoms: C3_3  and  C4_4
DOCKED: REMARK    4  A    between atoms: C3_3  and  C5_5
DOCKED: REMARK    5  A    between atoms: C5_5  and  N1_6
DOCKED: REMARK    6  A    between atoms: C5_5  and  C11_14
DOCKED: REMARK    7  A    between atoms: C6_7  and  O2_9
DOCKED: REMARK    8  A    between atoms: O2_9  and  C7_10
DOCKED: REMARK    9  A    between atoms: C7_10  and  C8_11
DOCKED: REMARK   10  A    between atoms: C7_10  and  C9_12
DOCKED: REMARK   11  A    between atoms: C7_10  and  C10_13
DOCKED: REMARK   12  A    between atoms: N2_16  and  C12_17
DOCKED: REMARK   13  A    between atoms: C12_17  and  C13_18
DOCKED: REMARK   14  A    between atoms: C12_17  and  C14_19
DOCKED: REMARK   15  A    between atoms: N3_21  and  C15_22
DOCKED: REMARK   16  A    between atoms: C15_22  and  C16_23
DOCKED: REMARK   17  A    between atoms: C15_22  and  C23_30
DOCKED: REMARK   18  A    between atoms: C16_23  and  C17_24
DOCKED: REMARK   19  A    between atoms: C23_30  and  O5_31
DOCKED: REMARK   20  A    between atoms: C23_30  and  C24_32
DOCKED: REMARK   21  A    between atoms: C24_32  and  C25_33
DOCKED: REMARK   22  A    between atoms: C25_33  and  C26_34
DOCKED: REMARK   23  A    between atoms: C25_33  and  C27_35
DOCKED: REMARK   24  A    between atoms: N4_37  and  C28_38
DOCKED: REMARK   25  A    between atoms: C28_38  and  C29_39
DOCKED: REMARK   26  A    between atoms: C28_38  and  C36_49
DOCKED: REMARK   27  A    between atoms: N5_41  and  C30_42
DOCKED: REMARK   28  A    between atoms: C30_42  and  C31_43
DOCKED: REMARK   29  A    between atoms: C36_49  and  C37_50
DOCKED: REMARK   30  A    between atoms: C36_49  and  C38_51
DOCKED: REMARK                            x       y       z     vdW  Elec       q    Type
DOCKED: REMARK                         _______ _______ _______ _____ _____    ______ ____
DOCKED: USER                              x       y       z     vdW  Elec       q    Type
DOCKED: USER                           _______ _______ _______ _____ _____    ______ ____
DOCKED: ROOT
DOCKED: ATOM      1  C15 UNL     1       7.526 -11.676   0.210 +0.00 +0.00    +0.106 C  
DOCKED: ENDROOT
DOCKED: BRANCH   1   4
DOCKED: ATOM      2  C14 UNL     1       7.224  -9.516   1.409 +0.00 +0.00    +0.233 C  
DOCKED: ATOM      3  O4  UNL     1       6.892 -10.071   2.457 +0.00 -0.00    -0.274 OA 
DOCKED: ATOM      4  N3  UNL     1       7.588 -10.215   0.280 +0.00 -0.00    -0.308 N  
DOCKED: ATOM      5  H26 UNL     1       7.644  -9.710  -0.601 +0.00 +0.00    +0.149 HD 
DOCKED: BRANCH   2   6
DOCKED: ATOM      6  C12 UNL     1       7.263  -7.982   1.259 +0.00 +0.00    +0.156 C  
DOCKED: ATOM      7  C13 UNL     1       5.898  -7.365   1.542 +0.00 +0.00    +0.038 C  
DOCKED: BRANCH   6  10
DOCKED: ATOM      8  C11 UNL     1       8.429  -6.564  -0.424 +0.00 +0.00    +0.234 C  
DOCKED: ATOM      9  O3  UNL     1       8.743  -5.710   0.402 +0.00 -0.00    -0.274 OA 
DOCKED: ATOM     10  N2  UNL     1       7.710  -7.691  -0.096 +0.00 -0.00    -0.303 N  
DOCKED: ATOM     11  H21 UNL     1       7.519  -8.405  -0.791 +0.00 +0.00    +0.149 HD 
DOCKED: BRANCH   8  12
DOCKED: ATOM     12  C5  UNL     1       8.845  -6.505  -1.915 +0.00 +0.00    +0.165 C  
DOCKED: BRANCH  12  13
DOCKED: ATOM     13  N1  UNL     1       7.616  -6.570  -2.692 +0.00 -0.00    -0.270 N  
DOCKED: ATOM     14  C6  UNL     1       6.962  -7.748  -2.902 +0.00 +0.00    +0.401 C  
DOCKED: ATOM     15  O1  UNL     1       7.381  -8.846  -2.575 +0.00 -0.00    -0.226 OA 
DOCKED: ATOM     16  H11 UNL     1       7.013  -5.757  -2.732 +0.00 +0.00    +0.153 HD 
DOCKED: BRANCH  14  17
DOCKED: ATOM     17  O2  UNL     1       5.777  -7.477  -3.491 +0.00 -0.00    -0.445 OA 
DOCKED: BRANCH  17  18
DOCKED: ATOM     18  C7  UNL     1       4.611  -7.146  -2.700 +0.00 +0.00    +0.107 C  
DOCKED: ATOM     19  C8  UNL     1       4.605  -5.671  -2.286 +0.00 +0.00    +0.055 C  
DOCKED: ATOM     20  C9  UNL     1       3.329  -7.549  -3.433 +0.00 +0.00    +0.055 C  
DOCKED: ATOM     21  C10 UNL     1       4.737  -8.003  -1.430 +0.00 +0.00    +0.055 C  
DOCKED: ENDBRANCH  17  18
DOCKED: ENDBRANCH  14  17
DOCKED: ENDBRANCH  12  13
DOCKED: BRANCH  12  22
DOCKED: ATOM     22  C3  UNL     1       9.643  -5.211  -2.241 +0.00 +0.00    +0.015 C  
DOCKED: ATOM     23  C4  UNL     1       8.687  -4.025  -2.434 +0.00 +0.00    +0.010 C  
DOCKED: BRANCH  22  25
DOCKED: ATOM     24  C1  UNL     1       9.935  -6.230  -4.597 +0.00 +0.00    +0.004 C  
DOCKED: ATOM     25  C2  UNL     1      10.549  -5.399  -3.480 +0.00 +0.00    +0.002 C  
DOCKED: ENDBRANCH  22  25
DOCKED: ENDBRANCH  12  22
DOCKED: ENDBRANCH   8  12
DOCKED: ENDBRANCH   6  10
DOCKED: ENDBRANCH   2   6
DOCKED: ENDBRANCH   1   4
DOCKED: BRANCH   1  26
DOCKED: ATOM     26  C16 UNL     1       6.099 -12.248   0.411 +0.00 +0.00    +0.060 C  
DOCKED: BRANCH  26  27
DOCKED: ATOM     27  C17 UNL     1       5.008 -11.701  -0.480 +0.00 -0.00    -0.046 A  
DOCKED: ATOM     28  C18 UNL     1       3.827 -11.191   0.077 +0.00 +0.00    +0.004 A  
DOCKED: ATOM     29  C19 UNL     1       2.801 -10.715  -0.740 +0.00 +0.00    +0.000 A  
DOCKED: ATOM     30  C20 UNL     1       2.950 -10.731  -2.126 +0.00 +0.00    +0.000 A  
DOCKED: ATOM     31  C21 UNL     1       4.128 -11.212  -2.695 +0.00 +0.00    +0.000 A  
DOCKED: ATOM     32  C22 UNL     1       5.156 -11.681  -1.876 +0.00 +0.00    +0.004 A  
DOCKED: ENDBRANCH  26  27
DOCKED: ENDBRANCH   1  26
DOCKED: BRANCH   1  33
DOCKED: ATOM     33  C23 UNL     1       8.325 -12.217  -1.008 +0.00 +0.00    +0.136 C  
DOCKED: BRANCH  33  34
DOCKED: ATOM     34  O5  UNL     1       8.140 -11.351  -2.136 +0.00 -0.00    -0.390 OA 
DOCKED: ATOM     35  H36 UNL     1       8.252 -10.440  -1.813 +0.00 +0.00    +0.210 HD 
DOCKED: ENDBRANCH  33  34
DOCKED: BRANCH  33  36
DOCKED: ATOM     36  C24 UNL     1       9.840 -12.407  -0.812 +0.00 +0.00    +0.045 C  
DOCKED: BRANCH  36  37
DOCKED: ATOM     37  C25 UNL     1      10.477 -11.180  -0.138 +0.00 +0.00    +0.074 C  
DOCKED: ATOM     38  C26 UNL     1      11.888 -11.492   0.357 +0.00 +0.00    +0.017 C  
DOCKED: BRANCH  37  39
DOCKED: ATOM     39  C27 UNL     1      10.451 -10.012  -1.120 +0.00 +0.00    +0.217 C  
DOCKED: ATOM     40  O6  UNL     1       9.485  -9.259  -1.206 +0.00 -0.00    -0.276 OA 
DOCKED: ATOM     41  N4  UNL     1      11.519  -9.927  -1.972 +0.00 -0.00    -0.304 N  
DOCKED: ATOM     42  H43 UNL     1      12.225 -10.658  -1.983 +0.00 +0.00    +0.149 HD 
DOCKED: BRANCH  41  43
DOCKED: ATOM     43  C28 UNL     1      11.614  -8.964  -3.068 +0.00 +0.00    +0.161 C  
DOCKED: BRANCH  43  44
DOCKED: ATOM     44  C29 UNL     1      10.979  -9.704  -4.270 +0.00 +0.00    +0.234 C  
DOCKED: ATOM     45  O7  UNL     1      11.610  -9.911  -5.309 +0.00 -0.00    -0.274 OA 
DOCKED: ATOM     46  N5  UNL     1       9.675 -10.105  -4.097 +0.00 -0.00    -0.310 N  
DOCKED: ATOM     47  H45 UNL     1       9.171  -9.837  -3.264 +0.00 +0.00    +0.149 HD 
DOCKED: BRANCH  46  48
DOCKED: ATOM     48  C30 UNL     1       8.914 -10.700  -5.175 +0.00 +0.00    +0.139 C  
DOCKED: BRANCH  48  49
DOCKED: ATOM     49  C31 UNL     1       7.704  -9.875  -5.516 +0.00 -0.00    -0.027 A  
DOCKED: ATOM     50  C32 UNL     1       6.413 -10.367  -5.275 +0.00 +0.00    +0.025 A  
DOCKED: ATOM     51  C33 UNL     1       5.324  -9.588  -5.625 +0.00 +0.00    +0.111 A  
DOCKED: ATOM     52  N6  UNL     1       5.429  -8.361  -6.188 +0.00 -0.00    -0.263 NA 
DOCKED: ATOM     53  C34 UNL     1       6.680  -7.912  -6.427 +0.00 +0.00    +0.111 A  
DOCKED: ATOM     54  C35 UNL     1       7.831  -8.620  -6.116 +0.00 +0.00    +0.025 A  
DOCKED: ENDBRANCH  48  49
DOCKED: ENDBRANCH  46  48
DOCKED: ENDBRANCH  43  44
DOCKED: BRANCH  43  55
DOCKED: ATOM     55  C36 UNL     1      13.077  -8.542  -3.330 +0.00 +0.00    +0.012 C  
DOCKED: ATOM     56  C37 UNL     1      13.185  -7.426  -4.373 +0.00 +0.00    +0.009 C  
DOCKED: ATOM     57  C38 UNL     1      13.762  -8.075  -2.039 +0.00 +0.00    +0.009 C  
DOCKED: ENDBRANCH  43  55
DOCKED: ENDBRANCH  41  43
DOCKED: ENDBRANCH  37  39
DOCKED: ENDBRANCH  36  37
DOCKED: ENDBRANCH  33  36
DOCKED: ENDBRANCH   1  33
DOCKED: TORSDOF 21
DOCKED: TER
DOCKED: ENDMDL
________________________________________________________________________________


    FINAL DOCKED STATE:
    ________________________


Run:   7 / 20
Time taken for this run:   1.471s

DOCKED: MODEL        7
DOCKED: USER    Run = 7
DOCKED: USER
DOCKED: USER    Estimated Free Energy of Binding    =  +6.26 kcal/mol  [=(1)+(2)+(3)-(4)]
DOCKED: USER
DOCKED: USER    (1) Final Intermolecular Energy     =  +0.00 kcal/mol
DOCKED: USER        vdW + Hbond + desolv Energy     =  +0.00 kcal/mol
DOCKED: USER        Electrostatic Energy            =  +0.00 kcal/mol
DOCKED: USER        Moving Ligand-Fixed Receptor    =  +0.00 kcal/mol
DOCKED: USER        Moving Ligand-Moving Receptor   =  +0.00 kcal/mol
DOCKED: USER    (2) Final Total Internal Energy     = -14.94 kcal/mol
DOCKED: USER    (3) Torsional Free Energy           =  +6.26 kcal/mol
DOCKED: USER    (4) Unbound System's Energy         = -14.94 kcal/mol
DOCKED: USER
DOCKED: USER
DOCKED: REMARK  Name = ligands/ligand_12.pdb
DOCKED: REMARK  30 active torsions:
DOCKED: REMARK  status: ('A' for Active; 'I' for Inactive)
DOCKED: REMARK    1  A    between atoms: C1_1  and  C2_2
DOCKED: REMARK    2  A    between atoms: C2_2  and  C3_3
DOCKED: REMARK    3  A    between atoms: C3_3  and  C4_4
DOCKED: REMARK    4  A    between atoms: C3_3  and  C5_5
DOCKED: REMARK    5  A    between atoms: C5_5  and  N1_6
DOCKED: REMARK    6  A    between atoms: C5_5  and  C11_14
DOCKED: REMARK    7  A    between atoms: C6_7  and  O2_9
DOCKED: REMARK    8  A    between atoms: O2_9  and  C7_10
DOCKED: REMARK    9  A    between atoms: C7_10  and  C8_11
DOCKED: REMARK   10  A    between atoms: C7_10  and  C9_12
DOCKED: REMARK   11  A    between atoms: C7_10  and  C10_13
DOCKED: REMARK   12  A    between atoms: N2_16  and  C12_17
DOCKED: REMARK   13  A    between atoms: C12_17  and  C13_18
DOCKED: REMARK   14  A    between atoms: C12_17  and  C14_19
DOCKED: REMARK   15  A    between atoms: N3_21  and  C15_22
DOCKED: REMARK   16  A    between atoms: C15_22  and  C16_23
DOCKED: REMARK   17  A    between atoms: C15_22  and  C23_30
DOCKED: REMARK   18  A    between atoms: C16_23  and  C17_24
DOCKED: REMARK   19  A    between atoms: C23_30  and  O5_31
DOCKED: REMARK   20  A    between atoms: C23_30  and  C24_32
DOCKED: REMARK   21  A    between atoms: C24_32  and  C25_33
DOCKED: REMARK   22  A    between atoms: C25_33  and  C26_34
DOCKED: REMARK   23  A    between atoms: C25_33  and  C27_35
DOCKED: REMARK   24  A    between atoms: N4_37  and  C28_38
DOCKED: REMARK   25  A    between atoms: C28_38  and  C29_39
DOCKED: REMARK   26  A    between atoms: C28_38  and  C36_49
DOCKED: REMARK   27  A    between atoms: N5_41  and  C30_42
DOCKED: REMARK   28  A    between atoms: C30_42  and  C31_43
DOCKED: REMARK   29  A    between atoms: C36_49  and  C37_50
DOCKED: REMARK   30  A    between atoms: C36_49  and  C38_51
DOCKED: REMARK                            x       y       z     vdW  Elec       q    Type
DOCKED: REMARK                         _______ _______ _______ _____ _____    ______ ____
DOCKED: USER                              x       y       z     vdW  Elec       q    Type
DOCKED: USER                           _______ _______ _______ _____ _____    ______ ____
DOCKED: ROOT
DOCKED: ATOM      1  C15 UNL     1       6.176   1.515  -2.308 +0.00 +0.00    +0.106 C  
DOCKED: ENDROOT
DOCKED: BRANCH   1   4
DOCKED: ATOM      2  C14 UNL     1       5.235  -0.765  -1.977 +0.00 +0.00    +0.233 C  
DOCKED: ATOM      3  O4  UNL     1       4.116  -0.333  -1.701 +0.00 -0.00    -0.274 OA 
DOCKED: ATOM      4  N3  UNL     1       6.285   0.055  -2.324 +0.00 -0.00    -0.308 N  
DOCKED: ATOM      5  H26 UNL     1       7.222  -0.341  -2.332 +0.00 +0.00    +0.149 HD 
DOCKED: BRANCH   2   6
DOCKED: ATOM      6  C12 UNL     1       5.570  -2.270  -1.961 +0.00 +0.00    +0.156 C  
DOCKED: ATOM      7  C13 UNL     1       4.510  -3.063  -1.204 +0.00 +0.00    +0.038 C  
DOCKED: BRANCH   6  10
DOCKED: ATOM      8  C11 UNL     1       7.097  -2.302   0.006 +0.00 +0.00    +0.234 C  
DOCKED: ATOM      9  O3  UNL     1       6.194  -2.061   0.805 +0.00 -0.00    -0.274 OA 
DOCKED: ATOM     10  N2  UNL     1       6.883  -2.415  -1.349 +0.00 -0.00    -0.303 N  
DOCKED: ATOM     11  H21 UNL     1       7.640  -2.673  -1.973 +0.00 +0.00    +0.149 HD 
DOCKED: BRANCH   8  12
DOCKED: ATOM     12  C5  UNL     1       8.565  -2.557   0.427 +0.00 +0.00    +0.165 C  
DOCKED: BRANCH  12  13
DOCKED: ATOM     13  N1  UNL     1       9.252  -1.277   0.332 +0.00 -0.00    -0.270 N  
DOCKED: ATOM     14  C6  UNL     1       9.426  -0.644  -0.863 +0.00 +0.00    +0.401 C  
DOCKED: ATOM     15  O1  UNL     1       9.139  -1.116  -1.951 +0.00 -0.00    -0.226 OA 
DOCKED: ATOM     16  H11 UNL     1       9.242  -0.651   1.127 +0.00 +0.00    +0.153 HD 
DOCKED: BRANCH  14  17
DOCKED: ATOM     17  O2  UNL     1       9.926   0.588  -0.623 +0.00 -0.00    -0.445 OA 
DOCKED: BRANCH  17  18
DOCKED: ATOM     18  C7  UNL     1      11.298   0.911  -0.953 +0.00 +0.00    +0.107 C  
DOCKED: ATOM     19  C8  UNL     1      12.291   0.055  -0.161 +0.00 +0.00    +0.055 C  
DOCKED: ATOM     20  C9  UNL     1      11.526   0.817  -2.464 +0.00 +0.00    +0.055 C  
DOCKED: ATOM     21  C10 UNL     1      11.474   2.377  -0.523 +0.00 +0.00    +0.055 C  
DOCKED: ENDBRANCH  17  18
DOCKED: ENDBRANCH  14  17
DOCKED: ENDBRANCH  12  13
DOCKED: BRANCH  12  22
DOCKED: ATOM     22  C3  UNL     1       8.662  -3.136   1.867 +0.00 +0.00    +0.015 C  
DOCKED: ATOM     23  C4  UNL     1       9.762  -2.418   2.662 +0.00 +0.00    +0.010 C  
DOCKED: BRANCH  22  25
DOCKED: ATOM     24  C1  UNL     1       8.140  -5.413   0.764 +0.00 +0.00    +0.004 C  
DOCKED: ATOM     25  C2  UNL     1       8.897  -4.664   1.851 +0.00 +0.00    +0.002 C  
DOCKED: ENDBRANCH  22  25
DOCKED: ENDBRANCH  12  22
DOCKED: ENDBRANCH   8  12
DOCKED: ENDBRANCH   6  10
DOCKED: ENDBRANCH   2   6
DOCKED: ENDBRANCH   1   4
DOCKED: BRANCH   1  26
DOCKED: ATOM     26  C16 UNL     1       5.724   2.088  -0.940 +0.00 +0.00    +0.060 C  
DOCKED: BRANCH  26  27
DOCKED: ATOM     27  C17 UNL     1       6.619   1.820   0.247 +0.00 -0.00    -0.046 A  
DOCKED: ATOM     28  C18 UNL     1       7.790   2.569   0.435 +0.00 +0.00    +0.004 A  
DOCKED: ATOM     29  C19 UNL     1       8.640   2.306   1.510 +0.00 +0.00    +0.000 A  
DOCKED: ATOM     30  C20 UNL     1       8.322   1.297   2.419 +0.00 +0.00    +0.000 A  
DOCKED: ATOM     31  C21 UNL     1       7.149   0.561   2.261 +0.00 +0.00    +0.000 A  
DOCKED: ATOM     32  C22 UNL     1       6.296   0.831   1.189 +0.00 +0.00    +0.004 A  
DOCKED: ENDBRANCH  26  27
DOCKED: ENDBRANCH   1  26
DOCKED: BRANCH   1  33
DOCKED: ATOM     33  C23 UNL     1       7.417   2.181  -2.964 +0.00 +0.00    +0.136 C  
DOCKED: BRANCH  33  34
DOCKED: ATOM     34  O5  UNL     1       8.464   1.214  -3.119 +0.00 -0.00    -0.390 OA 
DOCKED: ATOM     35  H36 UNL     1       8.784   0.999  -2.227 +0.00 +0.00    +0.210 HD 
DOCKED: ENDBRANCH  33  34
DOCKED: BRANCH  33  36
DOCKED: ATOM     36  C24 UNL     1       7.199   2.854  -4.331 +0.00 +0.00    +0.045 C  
DOCKED: BRANCH  36  37
DOCKED: ATOM     37  C25 UNL     1       6.078   2.162  -5.124 +0.00 +0.00    +0.074 C  
DOCKED: ATOM     38  C26 UNL     1       5.253   3.176  -5.914 +0.00 +0.00    +0.017 C  
DOCKED: BRANCH  37  39
DOCKED: ATOM     39  C27 UNL     1       6.699   1.093  -6.021 +0.00 +0.00    +0.217 C  
DOCKED: ATOM     40  O6  UNL     1       6.358   0.952  -7.191 +0.00 -0.00    -0.276 OA 
DOCKED: ATOM     41  N4  UNL     1       7.571   0.236  -5.407 +0.00 -0.00    -0.304 N  
DOCKED: ATOM     42  H43 UNL     1       7.711   0.280  -4.401 +0.00 +0.00    +0.149 HD 
DOCKED: BRANCH  41  43
DOCKED: ATOM     43  C28 UNL     1       8.164  -0.931  -6.059 +0.00 +0.00    +0.161 C  
DOCKED: BRANCH  43  44
DOCKED: ATOM     44  C29 UNL     1       8.173  -2.012  -4.952 +0.00 +0.00    +0.234 C  
DOCKED: ATOM     45  O7  UNL     1       7.622  -1.829  -3.864 +0.00 -0.00    -0.274 OA 
DOCKED: ATOM     46  N5  UNL     1       8.834  -3.176  -5.266 +0.00 -0.00    -0.310 N  
DOCKED: ATOM     47  H45 UNL     1       9.344  -3.248  -6.135 +0.00 +0.00    +0.149 HD 
DOCKED: BRANCH  46  48
DOCKED: ATOM     48  C30 UNL     1       9.028  -4.226  -4.289 +0.00 +0.00    +0.139 C  
DOCKED: BRANCH  48  49
DOCKED: ATOM     49  C31 UNL     1      10.053  -3.839  -3.260 +0.00 -0.00    -0.027 A  
DOCKED: ATOM     50  C32 UNL     1      11.035  -2.881  -3.554 +0.00 +0.00    +0.025 A  
DOCKED: ATOM     51  C33 UNL     1      11.977  -2.570  -2.589 +0.00 +0.00    +0.111 A  
DOCKED: ATOM     52  N6  UNL     1      12.005  -3.135  -1.359 +0.00 -0.00    -0.263 NA 
DOCKED: ATOM     53  C34 UNL     1      11.062  -4.066  -1.100 +0.00 +0.00    +0.111 A  
DOCKED: ATOM     54  C35 UNL     1      10.081  -4.448  -2.003 +0.00 +0.00    +0.025 A  
DOCKED: ENDBRANCH  48  49
DOCKED: ENDBRANCH  46  48
DOCKED: ENDBRANCH  43  44
DOCKED: BRANCH  43  55
DOCKED: ATOM     55  C36 UNL     1       9.576  -0.622  -6.605 +0.00 +0.00    +0.012 C  
DOCKED: ATOM     56  C37 UNL     1       9.539   0.269  -7.850 +0.00 +0.00    +0.009 C  
DOCKED: ATOM     57  C38 UNL     1      10.448   0.059  -5.541 +0.00 +0.00    +0.009 C  
DOCKED: ENDBRANCH  43  55
DOCKED: ENDBRANCH  41  43
DOCKED: ENDBRANCH  37  39
DOCKED: ENDBRANCH  36  37
DOCKED: ENDBRANCH  33  36
DOCKED: ENDBRANCH   1  33
DOCKED: TORSDOF 21
DOCKED: TER
DOCKED: ENDMDL
________________________________________________________________________________


    FINAL DOCKED STATE:
    ________________________


Run:   8 / 20
Time taken for this run:   1.471s

DOCKED: MODEL        8
DOCKED: USER    Run = 8
DOCKED: USER
DOCKED: USER    Estimated Free Energy of Binding    =  +6.26 kcal/mol  [=(1)+(2)+(3)-(4)]
DOCKED: USER
DOCKED: USER    (1) Final Intermolecular Energy     =  +0.00 kcal/mol
DOCKED: USER        vdW + Hbond + desolv Energy     =  +0.00 kcal/mol
DOCKED: USER        Electrostatic Energy            =  +0.00 kcal/mol
DOCKED: USER        Moving Ligand-Fixed Receptor    =  +0.00 kcal/mol
DOCKED: USER        Moving Ligand-Moving Receptor   =  +0.00 kcal/mol
DOCKED: USER    (2) Final Total Internal Energy     = -14.70 kcal/mol
DOCKED: USER    (3) Torsional Free Energy           =  +6.26 kcal/mol
DOCKED: USER    (4) Unbound System's Energy         = -14.70 kcal/mol
DOCKED: USER
DOCKED: USER
DOCKED: REMARK  Name = ligands/ligand_12.pdb
DOCKED: REMARK  30 active torsions:
DOCKED: REMARK  status: ('A' for Active; 'I' for Inactive)
DOCKED: REMARK    1  A    between atoms: C1_1  and  C2_2
DOCKED: REMARK    2  A    between atoms: C2_2  and  C3_3
DOCKED: REMARK    3  A    between atoms: C3_3  and  C4_4
DOCKED: REMARK    4  A    between atoms: C3_3  and  C5_5
DOCKED: REMARK    5  A    between atoms: C5_5  and  N1_6
DOCKED: REMARK    6  A    between atoms: C5_5  and  C11_14
DOCKED: REMARK    7  A    between atoms: C6_7  and  O2_9
DOCKED: REMARK    8  A    between atoms: O2_9  and  C7_10
DOCKED: REMARK    9  A    between atoms: C7_10  and  C8_11
DOCKED: REMARK   10  A    between atoms: C7_10  and  C9_12
DOCKED: REMARK   11  A    between atoms: C7_10  and  C10_13
DOCKED: REMARK   12  A    between atoms: N2_16  and  C12_17
DOCKED: REMARK   13  A    between atoms: C12_17  and  C13_18
DOCKED: REMARK   14  A    between atoms: C12_17  and  C14_19
DOCKED: REMARK   15  A    between atoms: N3_21  and  C15_22
DOCKED: REMARK   16  A    between atoms: C15_22  and  C16_23
DOCKED: REMARK   17  A    between atoms: C15_22  and  C23_30
DOCKED: REMARK   18  A    between atoms: C16_23  and  C17_24
DOCKED: REMARK   19  A    between atoms: C23_30  and  O5_31
DOCKED: REMARK   20  A    between atoms: C23_30  and  C24_32
DOCKED: REMARK   21  A    between atoms: C24_32  and  C25_33
DOCKED: REMARK   22  A    between atoms: C25_33  and  C26_34
DOCKED: REMARK   23  A    between atoms: C25_33  and  C27_35
DOCKED: REMARK   24  A    between atoms: N4_37  and  C28_38
DOCKED: REMARK   25  A    between atoms: C28_38  and  C29_39
DOCKED: REMARK   26  A    between atoms: C28_38  and  C36_49
DOCKED: REMARK   27  A    between atoms: N5_41  and  C30_42
DOCKED: REMARK   28  A    between atoms: C30_42  and  C31_43
DOCKED: REMARK   29  A    between atoms: C36_49  and  C37_50
DOCKED: REMARK   30  A    between atoms: C36_49  and  C38_51
DOCKED: REMARK                            x       y       z     vdW  Elec       q    Type
DOCKED: REMARK                         _______ _______ _______ _____ _____    ______ ____
DOCKED: USER                              x       y       z     vdW  Elec       q    Type
DOCKED: USER                           _______ _______ _______ _____ _____    ______ ____
DOCKED: ROOT
DOCKED: ATOM      1  C15 UNL     1      14.367  -3.060  -2.489 +0.00 +0.00    +0.106 C  
DOCKED: ENDROOT
DOCKED: BRANCH   1   4
DOCKED: ATOM      2  C14 UNL     1      13.724  -4.395  -0.489 +0.00 +0.00    +0.233 C  
DOCKED: ATOM      3  O4  UNL     1      13.287  -5.323  -1.170 +0.00 -0.00    -0.274 OA 
DOCKED: ATOM      4  N3  UNL     1      14.302  -3.275  -1.041 +0.00 -0.00    -0.308 N  
DOCKED: ATOM      5  H26 UNL     1      14.446  -2.464  -0.444 +0.00 +0.00    +0.149 HD 
DOCKED: BRANCH   2   6
DOCKED: ATOM      6  C12 UNL     1      13.663  -4.398   1.052 +0.00 +0.00    +0.156 C  
DOCKED: ATOM      7  C13 UNL     1      12.223  -4.449   1.548 +0.00 +0.00    +0.038 C  
DOCKED: BRANCH   6  10
DOCKED: ATOM      8  C11 UNL     1      15.053  -3.140   2.692 +0.00 +0.00    +0.234 C  
DOCKED: ATOM      9  O3  UNL     1      15.158  -4.100   3.453 +0.00 -0.00    -0.274 OA 
DOCKED: ATOM     10  N2  UNL     1      14.345  -3.196   1.513 +0.00 -0.00    -0.303 N  
DOCKED: ATOM     11  H21 UNL     1      14.329  -2.403   0.880 +0.00 +0.00    +0.149 HD 
DOCKED: BRANCH   8  12
DOCKED: ATOM     12  C5  UNL     1      15.743  -1.776   2.939 +0.00 +0.00    +0.165 C  
DOCKED: BRANCH  12  13
DOCKED: ATOM     13  N1  UNL     1      14.694  -0.768   2.899 +0.00 -0.00    -0.270 N  
DOCKED: ATOM     14  C6  UNL     1      14.189  -0.303   1.720 +0.00 +0.00    +0.401 C  
DOCKED: ATOM     15  O1  UNL     1      14.625  -0.585   0.616 +0.00 -0.00    -0.226 OA 
DOCKED: ATOM     16  H11 UNL     1      14.046  -0.698   3.674 +0.00 +0.00    +0.153 HD 
DOCKED: BRANCH  14  17
DOCKED: ATOM     17  O2  UNL     1      13.120   0.477   1.993 +0.00 -0.00    -0.445 OA 
DOCKED: BRANCH  17  18
DOCKED: ATOM     18  C7  UNL     1      11.800  -0.097   2.143 +0.00 +0.00    +0.107 C  
DOCKED: ATOM     19  C8  UNL     1      11.588  -0.679   3.544 +0.00 +0.00    +0.055 C  
DOCKED: ATOM     20  C9  UNL     1      10.722   0.924   1.768 +0.00 +0.00    +0.055 C  
DOCKED: ATOM     21  C10 UNL     1      11.752  -1.251   1.128 +0.00 +0.00    +0.055 C  
DOCKED: ENDBRANCH  17  18
DOCKED: ENDBRANCH  14  17
DOCKED: ENDBRANCH  12  13
DOCKED: BRANCH  12  22
DOCKED: ATOM     22  C3  UNL     1      16.494  -1.745   4.299 +0.00 +0.00    +0.015 C  
DOCKED: ATOM     23  C4  UNL     1      15.522  -1.418   5.442 +0.00 +0.00    +0.010 C  
DOCKED: BRANCH  22  25
DOCKED: ATOM     24  C1  UNL     1      17.372   0.580   3.596 +0.00 +0.00    +0.004 C  
DOCKED: ATOM     25  C2  UNL     1      17.676  -0.748   4.274 +0.00 +0.00    +0.002 C  
DOCKED: ENDBRANCH  22  25
DOCKED: ENDBRANCH  12  22
DOCKED: ENDBRANCH   8  12
DOCKED: ENDBRANCH   6  10
DOCKED: ENDBRANCH   2   6
DOCKED: ENDBRANCH   1   4
DOCKED: BRANCH   1  26
DOCKED: ATOM     26  C16 UNL     1      12.976  -2.888  -3.153 +0.00 +0.00    +0.060 C  
DOCKED: BRANCH  26  27
DOCKED: ATOM     27  C17 UNL     1      12.068  -1.825  -2.582 +0.00 -0.00    -0.046 A  
DOCKED: ATOM     28  C18 UNL     1      10.745  -2.134  -2.234 +0.00 +0.00    +0.004 A  
DOCKED: ATOM     29  C19 UNL     1       9.890  -1.150  -1.737 +0.00 +0.00    +0.000 A  
DOCKED: ATOM     30  C20 UNL     1      10.352   0.155  -1.569 +0.00 +0.00    +0.000 A  
DOCKED: ATOM     31  C21 UNL     1      11.671   0.473  -1.886 +0.00 +0.00    +0.000 A  
DOCKED: ATOM     32  C22 UNL     1      12.528  -0.514  -2.376 +0.00 +0.00    +0.004 A  
DOCKED: ENDBRANCH  26  27
DOCKED: ENDBRANCH   1  26
DOCKED: BRANCH   1  33
DOCKED: ATOM     33  C23 UNL     1      15.446  -2.003  -2.854 +0.00 +0.00    +0.136 C  
DOCKED: BRANCH  33  34
DOCKED: ATOM     34  O5  UNL     1      15.441  -0.946  -1.885 +0.00 -0.00    -0.390 OA 
DOCKED: ATOM     35  H36 UNL     1      15.401  -1.367  -1.009 +0.00 +0.00    +0.210 HD 
DOCKED: ENDBRANCH  33  34
DOCKED: BRANCH  33  36
DOCKED: ATOM     36  C24 UNL     1      16.894  -2.510  -2.982 +0.00 +0.00    +0.045 C  
DOCKED: BRANCH  36  37
DOCKED: ATOM     37  C25 UNL     1      17.274  -3.424  -1.805 +0.00 +0.00    +0.074 C  
DOCKED: ATOM     38  C26 UNL     1      18.565  -4.188  -2.094 +0.00 +0.00    +0.017 C  
DOCKED: BRANCH  37  39
DOCKED: ATOM     39  C27 UNL     1      17.371  -2.578  -0.538 +0.00 +0.00    +0.217 C  
DOCKED: ATOM     40  O6  UNL     1      16.393  -2.362   0.173 +0.00 -0.00    -0.276 OA 
DOCKED: ATOM     41  N4  UNL     1      18.584  -1.989  -0.308 +0.00 -0.00    -0.304 N  
DOCKED: ATOM     42  H43 UNL     1      19.327  -2.058  -0.998 +0.00 +0.00    +0.149 HD 
DOCKED: BRANCH  41  43
DOCKED: ATOM     43  C28 UNL     1      18.838  -1.038   0.774 +0.00 +0.00    +0.161 C  
DOCKED: BRANCH  43  44
DOCKED: ATOM     44  C29 UNL     1      18.521   0.339   0.143 +0.00 +0.00    +0.234 C  
DOCKED: ATOM     45  O7  UNL     1      19.361   1.240   0.100 +0.00 -0.00    -0.274 OA 
DOCKED: ATOM     46  N5  UNL     1      17.248   0.481  -0.359 +0.00 -0.00    -0.310 N  
DOCKED: ATOM     47  H45 UNL     1      16.567  -0.252  -0.223 +0.00 +0.00    +0.149 HD 
DOCKED: BRANCH  46  48
DOCKED: ATOM     48  C30 UNL     1      16.771   1.749  -0.869 +0.00 +0.00    +0.139 C  
DOCKED: BRANCH  48  49
DOCKED: ATOM     49  C31 UNL     1      15.616   2.270  -0.059 +0.00 -0.00    -0.027 A  
DOCKED: ATOM     50  C32 UNL     1      14.341   2.390  -0.629 +0.00 +0.00    +0.025 A  
DOCKED: ATOM     51  C33 UNL     1      13.309   2.897   0.142 +0.00 +0.00    +0.111 A  
DOCKED: ATOM     52  N6  UNL     1      13.455   3.284   1.431 +0.00 -0.00    -0.263 NA 
DOCKED: ATOM     53  C34 UNL     1      14.695   3.177   1.956 +0.00 +0.00    +0.111 A  
DOCKED: ATOM     54  C35 UNL     1      15.791   2.686   1.263 +0.00 +0.00    +0.025 A  
DOCKED: ENDBRANCH  48  49
DOCKED: ENDBRANCH  46  48
DOCKED: ENDBRANCH  43  44
DOCKED: BRANCH  43  55
DOCKED: ATOM     55  C36 UNL     1      20.289  -1.139   1.293 +0.00 +0.00    +0.012 C  
DOCKED: ATOM     56  C37 UNL     1      20.554  -0.202   2.475 +0.00 +0.00    +0.009 C  
DOCKED: ATOM     57  C38 UNL     1      20.631  -2.574   1.718 +0.00 +0.00    +0.009 C  
DOCKED: ENDBRANCH  43  55
DOCKED: ENDBRANCH  41  43
DOCKED: ENDBRANCH  37  39
DOCKED: ENDBRANCH  36  37
DOCKED: ENDBRANCH  33  36
DOCKED: ENDBRANCH   1  33
DOCKED: TORSDOF 21
DOCKED: TER
DOCKED: ENDMDL
________________________________________________________________________________


    FINAL DOCKED STATE:
    ________________________


Run:   9 / 20
Time taken for this run:   1.471s

DOCKED: MODEL        9
DOCKED: USER    Run = 9
DOCKED: USER
DOCKED: USER    Estimated Free Energy of Binding    =  +6.26 kcal/mol  [=(1)+(2)+(3)-(4)]
DOCKED: USER
DOCKED: USER    (1) Final Intermolecular Energy     =  +0.00 kcal/mol
DOCKED: USER        vdW + Hbond + desolv Energy     =  +0.00 kcal/mol
DOCKED: USER        Electrostatic Energy            =  +0.00 kcal/mol
DOCKED: USER        Moving Ligand-Fixed Receptor    =  +0.00 kcal/mol
DOCKED: USER        Moving Ligand-Moving Receptor   =  +0.00 kcal/mol
DOCKED: USER    (2) Final Total Internal Energy     = -14.95 kcal/mol
DOCKED: USER    (3) Torsional Free Energy           =  +6.26 kcal/mol
DOCKED: USER    (4) Unbound System's Energy         = -14.95 kcal/mol
DOCKED: USER
DOCKED: USER
DOCKED: REMARK  Name = ligands/ligand_12.pdb
DOCKED: REMARK  30 active torsions:
DOCKED: REMARK  status: ('A' for Active; 'I' for Inactive)
DOCKED: REMARK    1  A    between atoms: C1_1  and  C2_2
DOCKED: REMARK    2  A    between atoms: C2_2  and  C3_3
DOCKED: REMARK    3  A    between atoms: C3_3  and  C4_4
DOCKED: REMARK    4  A    between atoms: C3_3  and  C5_5
DOCKED: REMARK    5  A    between atoms: C5_5  and  N1_6
DOCKED: REMARK    6  A    between atoms: C5_5  and  C11_14
DOCKED: REMARK    7  A    between atoms: C6_7  and  O2_9
DOCKED: REMARK    8  A    between atoms: O2_9  and  C7_10
DOCKED: REMARK    9  A    between atoms: C7_10  and  C8_11
DOCKED: REMARK   10  A    between atoms: C7_10  and  C9_12
DOCKED: REMARK   11  A    between atoms: C7_10  and  C10_13
DOCKED: REMARK   12  A    between atoms: N2_16  and  C12_17
DOCKED: REMARK   13  A    between atoms: C12_17  and  C13_18
DOCKED: REMARK   14  A    between atoms: C12_17  and  C14_19
DOCKED: REMARK   15  A    between atoms: N3_21  and  C15_22
DOCKED: REMARK   16  A    between atoms: C15_22  and  C16_23
DOCKED: REMARK   17  A    between atoms: C15_22  and  C23_30
DOCKED: REMARK   18  A    between atoms: C16_23  and  C17_24
DOCKED: REMARK   19  A    between atoms: C23_30  and  O5_31
DOCKED: REMARK   20  A    between atoms: C23_30  and  C24_32
DOCKED: REMARK   21  A    between atoms: C24_32  and  C25_33
DOCKED: REMARK   22  A    between atoms: C25_33  and  C26_34
DOCKED: REMARK   23  A    between atoms: C25_33  and  C27_35
DOCKED: REMARK   24  A    between atoms: N4_37  and  C28_38
DOCKED: REMARK   25  A    between atoms: C28_38  and  C29_39
DOCKED: REMARK   26  A    between atoms: C28_38  and  C36_49
DOCKED: REMARK   27  A    between atoms: N5_41  and  C30_42
DOCKED: REMARK   28  A    between atoms: C30_42  and  C31_43
DOCKED: REMARK   29  A    between atoms: C36_49  and  C37_50
DOCKED: REMARK   30  A    between atoms: C36_49  and  C38_51
DOCKED: REMARK                            x       y       z     vdW  Elec       q    Type
DOCKED: REMARK                         _______ _______ _______ _____ _____    ______ ____
DOCKED: USER                              x       y       z     vdW  Elec       q    Type
DOCKED: USER                           _______ _______ _______ _____ _____    ______ ____
DOCKED: ROOT
DOCKED: ATOM      1  C15 UNL     1      10.927  -5.643  -0.814 +0.00 +0.00    +0.106 C  
DOCKED: ENDROOT
DOCKED: BRANCH   1   4
DOCKED: ATOM      2  C14 UNL     1       9.566  -6.067   1.226 +0.00 +0.00    +0.233 C  
DOCKED: ATOM      3  O4  UNL     1       8.861  -5.076   1.040 +0.00 -0.00    -0.274 OA 
DOCKED: ATOM      4  N3  UNL     1      10.566  -6.444   0.358 +0.00 -0.00    -0.308 N  
DOCKED: ATOM      5  H26 UNL     1      11.240  -7.137   0.673 +0.00 +0.00    +0.149 HD 
DOCKED: BRANCH   2   6
DOCKED: ATOM      6  C12 UNL     1       9.397  -6.986   2.453 +0.00 +0.00    +0.156 C  
DOCKED: ATOM      7  C13 UNL     1       8.536  -6.325   3.523 +0.00 +0.00    +0.038 C  
DOCKED: BRANCH   6  10
DOCKED: ATOM      8  C11 UNL     1      11.488  -6.388   3.667 +0.00 +0.00    +0.234 C  
DOCKED: ATOM      9  O3  UNL     1      11.099  -5.251   3.930 +0.00 -0.00    -0.274 OA 
DOCKED: ATOM     10  N2  UNL     1      10.731  -7.289   2.953 +0.00 -0.00    -0.303 N  
DOCKED: ATOM     11  H21 UNL     1      11.058  -8.238   2.806 +0.00 +0.00    +0.149 HD 
DOCKED: BRANCH   8  12
DOCKED: ATOM     12  C5  UNL     1      12.845  -6.958   4.147 +0.00 +0.00    +0.165 C  
DOCKED: BRANCH  12  13
DOCKED: ATOM     13  N1  UNL     1      13.796  -6.729   3.068 +0.00 -0.00    -0.270 N  
DOCKED: ATOM     14  C6  UNL     1      13.670  -7.344   1.858 +0.00 +0.00    +0.401 C  
DOCKED: ATOM     15  O1  UNL     1      12.847  -8.207   1.596 +0.00 -0.00    -0.226 OA 
DOCKED: ATOM     16  H11 UNL     1      14.292  -5.848   3.027 +0.00 +0.00    +0.153 HD 
DOCKED: BRANCH  14  17
DOCKED: ATOM     17  O2  UNL     1      14.576  -6.808   1.011 +0.00 -0.00    -0.445 OA 
DOCKED: BRANCH  17  18
DOCKED: ATOM     18  C7  UNL     1      15.730  -7.566   0.579 +0.00 +0.00    +0.107 C  
DOCKED: ATOM     19  C8  UNL     1      16.638  -7.941   1.754 +0.00 +0.00    +0.055 C  
DOCKED: ATOM     20  C9  UNL     1      15.297  -8.789  -0.234 +0.00 +0.00    +0.055 C  
DOCKED: ATOM     21  C10 UNL     1      16.506  -6.615  -0.346 +0.00 +0.00    +0.055 C  
DOCKED: ENDBRANCH  17  18
DOCKED: ENDBRANCH  14  17
DOCKED: ENDBRANCH  12  13
DOCKED: BRANCH  12  22
DOCKED: ATOM     22  C3  UNL     1      13.323  -6.284   5.464 +0.00 +0.00    +0.015 C  
DOCKED: ATOM     23  C4  UNL     1      14.815  -5.932   5.376 +0.00 +0.00    +0.010 C  
DOCKED: BRANCH  22  25
DOCKED: ATOM     24  C1  UNL     1      11.744  -7.975   6.613 +0.00 +0.00    +0.004 C  
DOCKED: ATOM     25  C2  UNL     1      13.035  -7.175   6.695 +0.00 +0.00    +0.002 C  
DOCKED: ENDBRANCH  22  25
DOCKED: ENDBRANCH  12  22
DOCKED: ENDBRANCH   8  12
DOCKED: ENDBRANCH   6  10
DOCKED: ENDBRANCH   2   6
DOCKED: ENDBRANCH   1   4
DOCKED: BRANCH   1  26
DOCKED: ATOM     26  C16 UNL     1      11.262  -4.166  -0.477 +0.00 +0.00    +0.060 C  
DOCKED: BRANCH  26  27
DOCKED: ATOM     27  C17 UNL     1      12.430  -3.920   0.448 +0.00 -0.00    -0.046 A  
DOCKED: ATOM     28  C18 UNL     1      13.745  -4.010  -0.031 +0.00 +0.00    +0.004 A  
DOCKED: ATOM     29  C19 UNL     1      14.830  -3.816   0.824 +0.00 +0.00    +0.000 A  
DOCKED: ATOM     30  C20 UNL     1      14.613  -3.517   2.169 +0.00 +0.00    +0.000 A  
DOCKED: ATOM     31  C21 UNL     1      13.312  -3.400   2.655 +0.00 +0.00    +0.000 A  
DOCKED: ATOM     32  C22 UNL     1      12.227  -3.586   1.797 +0.00 +0.00    +0.004 A  
DOCKED: ENDBRANCH  26  27
DOCKED: ENDBRANCH   1  26
DOCKED: BRANCH   1  33
DOCKED: ATOM     33  C23 UNL     1      11.941  -6.395  -1.720 +0.00 +0.00    +0.136 C  
DOCKED: BRANCH  33  34
DOCKED: ATOM     34  O5  UNL     1      12.502  -7.505  -1.007 +0.00 -0.00    -0.390 OA 
DOCKED: ATOM     35  H36 UNL     1      13.019  -7.135  -0.271 +0.00 +0.00    +0.210 HD 
DOCKED: ENDBRANCH  33  34
DOCKED: BRANCH  33  36
DOCKED: ATOM     36  C24 UNL     1      11.406  -6.928  -3.061 +0.00 +0.00    +0.045 C  
DOCKED: BRANCH  36  37
DOCKED: ATOM     37  C25 UNL     1       9.914  -7.291  -2.966 +0.00 +0.00    +0.074 C  
DOCKED: ATOM     38  C26 UNL     1       9.175  -6.933  -4.255 +0.00 +0.00    +0.017 C  
DOCKED: BRANCH  37  39
DOCKED: ATOM     39  C27 UNL     1       9.791  -8.772  -2.618 +0.00 +0.00    +0.217 C  
DOCKED: ATOM     40  O6  UNL     1       9.017  -9.516  -3.214 +0.00 -0.00    -0.276 OA 
DOCKED: ATOM     41  N4  UNL     1      10.511  -9.188  -1.531 +0.00 -0.00    -0.304 N  
DOCKED: ATOM     42  H43 UNL     1      11.018  -8.515  -0.963 +0.00 +0.00    +0.149 HD 
DOCKED: BRANCH  41  43
DOCKED: ATOM     43  C28 UNL     1      10.423 -10.532  -0.960 +0.00 +0.00    +0.161 C  
DOCKED: BRANCH  43  44
DOCKED: ATOM     44  C29 UNL     1      10.543 -10.297   0.565 +0.00 +0.00    +0.234 C  
DOCKED: ATOM     45  O7  UNL     1      10.542  -9.162   1.046 +0.00 -0.00    -0.274 OA 
DOCKED: ATOM     46  N5  UNL     1      10.651 -11.433   1.333 +0.00 -0.00    -0.310 N  
DOCKED: ATOM     47  H45 UNL     1      10.735 -12.336   0.888 +0.00 +0.00    +0.149 HD 
DOCKED: BRANCH  46  48
DOCKED: ATOM     48  C30 UNL     1      10.891 -11.365   2.758 +0.00 +0.00    +0.139 C  
DOCKED: BRANCH  48  49
DOCKED: ATOM     49  C31 UNL     1      12.304 -10.950   3.060 +0.00 -0.00    -0.027 A  
DOCKED: ATOM     50  C32 UNL     1      13.329 -11.177   2.130 +0.00 +0.00    +0.025 A  
DOCKED: ATOM     51  C33 UNL     1      14.622 -10.804   2.456 +0.00 +0.00    +0.111 A  
DOCKED: ATOM     52  N6  UNL     1      14.962 -10.220   3.629 +0.00 -0.00    -0.263 NA 
DOCKED: ATOM     53  C34 UNL     1      13.964 -10.025   4.518 +0.00 +0.00    +0.111 A  
DOCKED: ATOM     54  C35 UNL     1      12.640 -10.369   4.286 +0.00 +0.00    +0.025 A  
DOCKED: ENDBRANCH  48  49
DOCKED: ENDBRANCH  46  48
DOCKED: ENDBRANCH  43  44
DOCKED: BRANCH  43  55
DOCKED: ATOM     55  C36 UNL     1      11.528 -11.459  -1.511 +0.00 +0.00    +0.012 C  
DOCKED: ATOM     56  C37 UNL     1      11.281 -11.862  -2.968 +0.00 +0.00    +0.009 C  
DOCKED: ATOM     57  C38 UNL     1      12.910 -10.798  -1.413 +0.00 +0.00    +0.009 C  
DOCKED: ENDBRANCH  43  55
DOCKED: ENDBRANCH  41  43
DOCKED: ENDBRANCH  37  39
DOCKED: ENDBRANCH  36  37
DOCKED: ENDBRANCH  33  36
DOCKED: ENDBRANCH   1  33
DOCKED: TORSDOF 21
DOCKED: TER
DOCKED: ENDMDL
________________________________________________________________________________


    FINAL DOCKED STATE:
    ________________________


Run:   10 / 20
Time taken for this run:   1.471s

DOCKED: MODEL        10
DOCKED: USER    Run = 10
DOCKED: USER
DOCKED: USER    Estimated Free Energy of Binding    =  +6.26 kcal/mol  [=(1)+(2)+(3)-(4)]
DOCKED: USER
DOCKED: USER    (1) Final Intermolecular Energy     =  +0.00 kcal/mol
DOCKED: USER        vdW + Hbond + desolv Energy     =  +0.00 kcal/mol
DOCKED: USER        Electrostatic Energy            =  +0.00 kcal/mol
DOCKED: USER        Moving Ligand-Fixed Receptor    =  +0.00 kcal/mol
DOCKED: USER        Moving Ligand-Moving Receptor   =  +0.00 kcal/mol
DOCKED: USER    (2) Final Total Internal Energy     = -15.09 kcal/mol
DOCKED: USER    (3) Torsional Free Energy           =  +6.26 kcal/mol
DOCKED: USER    (4) Unbound System's Energy         = -15.09 kcal/mol
DOCKED: USER
DOCKED: USER
DOCKED: REMARK  Name = ligands/ligand_12.pdb
DOCKED: REMARK  30 active torsions:
DOCKED: REMARK  status: ('A' for Active; 'I' for Inactive)
DOCKED: REMARK    1  A    between atoms: C1_1  and  C2_2
DOCKED: REMARK    2  A    between atoms: C2_2  and  C3_3
DOCKED: REMARK    3  A    between atoms: C3_3  and  C4_4
DOCKED: REMARK    4  A    between atoms: C3_3  and  C5_5
DOCKED: REMARK    5  A    between atoms: C5_5  and  N1_6
DOCKED: REMARK    6  A    between atoms: C5_5  and  C11_14
DOCKED: REMARK    7  A    between atoms: C6_7  and  O2_9
DOCKED: REMARK    8  A    between atoms: O2_9  and  C7_10
DOCKED: REMARK    9  A    between atoms: C7_10  and  C8_11
DOCKED: REMARK   10  A    between atoms: C7_10  and  C9_12
DOCKED: REMARK   11  A    between atoms: C7_10  and  C10_13
DOCKED: REMARK   12  A    between atoms: N2_16  and  C12_17
DOCKED: REMARK   13  A    between atoms: C12_17  and  C13_18
DOCKED: REMARK   14  A    between atoms: C12_17  and  C14_19
DOCKED: REMARK   15  A    between atoms: N3_21  and  C15_22
DOCKED: REMARK   16  A    between atoms: C15_22  and  C16_23
DOCKED: REMARK   17  A    between atoms: C15_22  and  C23_30
DOCKED: REMARK   18  A    between atoms: C16_23  and  C17_24
DOCKED: REMARK   19  A    between atoms: C23_30  and  O5_31
DOCKED: REMARK   20  A    between atoms: C23_30  and  C24_32
DOCKED: REMARK   21  A    between atoms: C24_32  and  C25_33
DOCKED: REMARK   22  A    between atoms: C25_33  and  C26_34
DOCKED: REMARK   23  A    between atoms: C25_33  and  C27_35
DOCKED: REMARK   24  A    between atoms: N4_37  and  C28_38
DOCKED: REMARK   25  A    between atoms: C28_38  and  C29_39
DOCKED: REMARK   26  A    between atoms: C28_38  and  C36_49
DOCKED: REMARK   27  A    between atoms: N5_41  and  C30_42
DOCKED: REMARK   28  A    between atoms: C30_42  and  C31_43
DOCKED: REMARK   29  A    between atoms: C36_49  and  C37_50
DOCKED: REMARK   30  A    between atoms: C36_49  and  C38_51
DOCKED: REMARK                            x       y       z     vdW  Elec       q    Type
DOCKED: REMARK                         _______ _______ _______ _____ _____    ______ ____
DOCKED: USER                              x       y       z     vdW  Elec       q    Type
DOCKED: USER                           _______ _______ _______ _____ _____    ______ ____
DOCKED: ROOT
DOCKED: ATOM      1  C15 UNL     1      12.771  -3.206   1.951 +0.00 +0.00    +0.106 C  
DOCKED: ENDROOT
DOCKED: BRANCH   1   4
DOCKED: ATOM      2  C14 UNL     1      12.933  -1.158   3.357 +0.00 +0.00    +0.233 C  
DOCKED: ATOM      3  O4  UNL     1      13.874  -1.606   4.013 +0.00 -0.00    -0.274 OA 
DOCKED: ATOM      4  N3  UNL     1      12.361  -1.846   2.311 +0.00 -0.00    -0.308 N  
DOCKED: ATOM      5  H26 UNL     1      11.466  -1.522   1.954 +0.00 +0.00    +0.149 HD 
DOCKED: BRANCH   2   6
DOCKED: ATOM      6  C12 UNL     1      12.303   0.220   3.645 +0.00 +0.00    +0.156 C  
DOCKED: ATOM      7  C13 UNL     1      12.694   0.727   5.028 +0.00 +0.00    +0.038 C  
DOCKED: BRANCH   6  10
DOCKED: ATOM      8  C11 UNL     1      10.060  -0.385   4.543 +0.00 +0.00    +0.234 C  
DOCKED: ATOM      9  O3  UNL     1      10.504  -0.708   5.643 +0.00 -0.00    -0.274 OA 
DOCKED: ATOM     10  N2  UNL     1      10.860   0.069   3.519 +0.00 -0.00    -0.303 N  
DOCKED: ATOM     11  H21 UNL     1      10.453   0.384   2.644 +0.00 +0.00    +0.149 HD 
DOCKED: BRANCH   8  12
DOCKED: ATOM     12  C5  UNL     1       8.551  -0.399   4.194 +0.00 +0.00    +0.165 C  
DOCKED: BRANCH  12  13
DOCKED: ATOM     13  N1  UNL     1       8.277  -1.697   3.595 +0.00 -0.00    -0.270 N  
DOCKED: ATOM     14  C6  UNL     1       8.845  -2.079   2.417 +0.00 +0.00    +0.401 C  
DOCKED: ATOM     15  O1  UNL     1       9.526  -1.358   1.705 +0.00 -0.00    -0.226 OA 
DOCKED: ATOM     16  H11 UNL     1       8.023  -2.473   4.194 +0.00 +0.00    +0.153 HD 
DOCKED: BRANCH  14  17
DOCKED: ATOM     17  O2  UNL     1       8.555  -3.381   2.205 +0.00 -0.00    -0.445 OA 
DOCKED: BRANCH  17  18
DOCKED: ATOM     18  C7  UNL     1       7.345  -3.770   1.512 +0.00 +0.00    +0.107 C  
DOCKED: ATOM     19  C8  UNL     1       6.603  -4.891   2.247 +0.00 +0.00    +0.055 C  
DOCKED: ATOM     20  C9  UNL     1       6.453  -2.551   1.258 +0.00 +0.00    +0.055 C  
DOCKED: ATOM     21  C10 UNL     1       7.823  -4.316   0.157 +0.00 +0.00    +0.055 C  
DOCKED: ENDBRANCH  17  18
DOCKED: ENDBRANCH  14  17
DOCKED: ENDBRANCH  12  13
DOCKED: BRANCH  12  22
DOCKED: ATOM     22  C3  UNL     1       7.665  -0.165   5.449 +0.00 +0.00    +0.015 C  
DOCKED: ATOM     23  C4  UNL     1       7.530  -1.462   6.261 +0.00 +0.00    +0.010 C  
DOCKED: BRANCH  22  25
DOCKED: ATOM     24  C1  UNL     1       5.898   0.219   3.604 +0.00 +0.00    +0.004 C  
DOCKED: ATOM     25  C2  UNL     1       6.275   0.396   5.068 +0.00 +0.00    +0.002 C  
DOCKED: ENDBRANCH  22  25
DOCKED: ENDBRANCH  12  22
DOCKED: ENDBRANCH   8  12
DOCKED: ENDBRANCH   6  10
DOCKED: ENDBRANCH   2   6
DOCKED: ENDBRANCH   1   4
DOCKED: BRANCH   1  26
DOCKED: ATOM     26  C16 UNL     1      12.762  -4.194   3.146 +0.00 +0.00    +0.060 C  
DOCKED: BRANCH  26  27
DOCKED: ATOM     27  C17 UNL     1      11.435  -4.437   3.826 +0.00 -0.00    -0.046 A  
DOCKED: ATOM     28  C18 UNL     1      10.591  -5.467   3.386 +0.00 +0.00    +0.004 A  
DOCKED: ATOM     29  C19 UNL     1       9.350  -5.677   3.987 +0.00 +0.00    +0.000 A  
DOCKED: ATOM     30  C20 UNL     1       8.942  -4.867   5.045 +0.00 +0.00    +0.000 A  
DOCKED: ATOM     31  C21 UNL     1       9.780  -3.855   5.511 +0.00 +0.00    +0.000 A  
DOCKED: ATOM     32  C22 UNL     1      11.025  -3.651   4.914 +0.00 +0.00    +0.004 A  
DOCKED: ENDBRANCH  26  27
DOCKED: ENDBRANCH   1  26
DOCKED: BRANCH   1  33
DOCKED: ATOM     33  C23 UNL     1      12.066  -3.681   0.651 +0.00 +0.00    +0.136 C  
DOCKED: BRANCH  33  34
DOCKED: ATOM     34  O5  UNL     1      10.674  -3.344   0.699 +0.00 -0.00    -0.390 OA 
DOCKED: ATOM     35  H36 UNL     1      10.420  -3.330   1.638 +0.00 +0.00    +0.210 HD 
DOCKED: ENDBRANCH  33  34
DOCKED: BRANCH  33  36
DOCKED: ATOM     36  C24 UNL     1      12.629  -3.143  -0.677 +0.00 +0.00    +0.045 C  
DOCKED: BRANCH  36  37
DOCKED: ATOM     37  C25 UNL     1      11.682  -3.442  -1.851 +0.00 +0.00    +0.074 C  
DOCKED: ATOM     38  C26 UNL     1      10.818  -4.669  -1.565 +0.00 +0.00    +0.017 C  
DOCKED: BRANCH  37  39
DOCKED: ATOM     39  C27 UNL     1      10.846  -2.197  -2.137 +0.00 +0.00    +0.217 C  
DOCKED: ATOM     40  O6  UNL     1      10.645  -1.799  -3.281 +0.00 -0.00    -0.276 OA 
DOCKED: ATOM     41  N4  UNL     1      10.432  -1.494  -1.038 +0.00 -0.00    -0.304 N  
DOCKED: ATOM     42  H43 UNL     1      10.748  -1.760  -0.109 +0.00 +0.00    +0.149 HD 
DOCKED: BRANCH  41  43
DOCKED: ATOM     43  C28 UNL     1       9.739  -0.208  -1.105 +0.00 +0.00    +0.161 C  
DOCKED: BRANCH  43  44
DOCKED: ATOM     44  C29 UNL     1      10.525   0.691  -0.120 +0.00 +0.00    +0.234 C  
DOCKED: ATOM     45  O7  UNL     1      11.301   0.215   0.711 +0.00 -0.00    -0.274 OA 
DOCKED: ATOM     46  N5  UNL     1      10.296   2.042  -0.239 +0.00 -0.00    -0.310 N  
DOCKED: ATOM     47  H45 UNL     1       9.588   2.379  -0.875 +0.00 +0.00    +0.149 HD 
DOCKED: BRANCH  46  48
DOCKED: ATOM     48  C30 UNL     1      10.867   2.993   0.691 +0.00 +0.00    +0.139 C  
DOCKED: BRANCH  48  49
DOCKED: ATOM     49  C31 UNL     1      10.145   2.975   2.010 +0.00 -0.00    -0.027 A  
DOCKED: ATOM     50  C32 UNL     1       8.768   2.717   2.067 +0.00 +0.00    +0.025 A  
DOCKED: ATOM     51  C33 UNL     1       8.134   2.735   3.297 +0.00 +0.00    +0.111 A  
DOCKED: ATOM     52  N6  UNL     1       8.772   2.982   4.466 +0.00 -0.00    -0.263 NA 
DOCKED: ATOM     53  C34 UNL     1      10.095   3.245   4.388 +0.00 +0.00    +0.111 A  
DOCKED: ATOM     54  C35 UNL     1      10.815   3.255   3.203 +0.00 +0.00    +0.025 A  
DOCKED: ENDBRANCH  48  49
DOCKED: ENDBRANCH  46  48
DOCKED: ENDBRANCH  43  44
DOCKED: BRANCH  43  55
DOCKED: ATOM     55  C36 UNL     1       8.247  -0.344  -0.730 +0.00 +0.00    +0.012 C  
DOCKED: ATOM     56  C37 UNL     1       7.514   1.000  -0.749 +0.00 +0.00    +0.009 C  
DOCKED: ATOM     57  C38 UNL     1       7.521  -1.312  -1.674 +0.00 +0.00    +0.009 C  
DOCKED: ENDBRANCH  43  55
DOCKED: ENDBRANCH  41  43
DOCKED: ENDBRANCH  37  39
DOCKED: ENDBRANCH  36  37
DOCKED: ENDBRANCH  33  36
DOCKED: ENDBRANCH   1  33
DOCKED: TORSDOF 21
DOCKED: TER
DOCKED: ENDMDL
________________________________________________________________________________


    FINAL DOCKED STATE:
    ________________________


Run:   11 / 20
Time taken for this run:   1.471s

DOCKED: MODEL        11
DOCKED: USER    Run = 11
DOCKED: USER
DOCKED: USER    Estimated Free Energy of Binding    =  +6.26 kcal/mol  [=(1)+(2)+(3)-(4)]
DOCKED: USER
DOCKED: USER    (1) Final Intermolecular Energy     =  +0.00 kcal/mol
DOCKED: USER        vdW + Hbond + desolv Energy     =  +0.00 kcal/mol
DOCKED: USER        Electrostatic Energy            =  +0.00 kcal/mol
DOCKED: USER        Moving Ligand-Fixed Receptor    =  +0.00 kcal/mol
DOCKED: USER        Moving Ligand-Moving Receptor   =  +0.00 kcal/mol
DOCKED: USER    (2) Final Total Internal Energy     = -14.94 kcal/mol
DOCKED: USER    (3) Torsional Free Energy           =  +6.26 kcal/mol
DOCKED: USER    (4) Unbound System's Energy         = -14.94 kcal/mol
DOCKED: USER
DOCKED: USER
DOCKED: REMARK  Name = ligands/ligand_12.pdb
DOCKED: REMARK  30 active torsions:
DOCKED: REMARK  status: ('A' for Active; 'I' for Inactive)
DOCKED: REMARK    1  A    between atoms: C1_1  and  C2_2
DOCKED: REMARK    2  A    between atoms: C2_2  and  C3_3
DOCKED: REMARK    3  A    between atoms: C3_3  and  C4_4
DOCKED: REMARK    4  A    between atoms: C3_3  and  C5_5
DOCKED: REMARK    5  A    between atoms: C5_5  and  N1_6
DOCKED: REMARK    6  A    between atoms: C5_5  and  C11_14
DOCKED: REMARK    7  A    between atoms: C6_7  and  O2_9
DOCKED: REMARK    8  A    between atoms: O2_9  and  C7_10
DOCKED: REMARK    9  A    between atoms: C7_10  and  C8_11
DOCKED: REMARK   10  A    between atoms: C7_10  and  C9_12
DOCKED: REMARK   11  A    between atoms: C7_10  and  C10_13
DOCKED: REMARK   12  A    between atoms: N2_16  and  C12_17
DOCKED: REMARK   13  A    between atoms: C12_17  and  C13_18
DOCKED: REMARK   14  A    between atoms: C12_17  and  C14_19
DOCKED: REMARK   15  A    between atoms: N3_21  and  C15_22
DOCKED: REMARK   16  A    between atoms: C15_22  and  C16_23
DOCKED: REMARK   17  A    between atoms: C15_22  and  C23_30
DOCKED: REMARK   18  A    between atoms: C16_23  and  C17_24
DOCKED: REMARK   19  A    between atoms: C23_30  and  O5_31
DOCKED: REMARK   20  A    between atoms: C23_30  and  C24_32
DOCKED: REMARK   21  A    between atoms: C24_32  and  C25_33
DOCKED: REMARK   22  A    between atoms: C25_33  and  C26_34
DOCKED: REMARK   23  A    between atoms: C25_33  and  C27_35
DOCKED: REMARK   24  A    between atoms: N4_37  and  C28_38
DOCKED: REMARK   25  A    between atoms: C28_38  and  C29_39
DOCKED: REMARK   26  A    between atoms: C28_38  and  C36_49
DOCKED: REMARK   27  A    between atoms: N5_41  and  C30_42
DOCKED: REMARK   28  A    between atoms: C30_42  and  C31_43
DOCKED: REMARK   29  A    between atoms: C36_49  and  C37_50
DOCKED: REMARK   30  A    between atoms: C36_49  and  C38_51
DOCKED: REMARK                            x       y       z     vdW  Elec       q    Type
DOCKED: REMARK                         _______ _______ _______ _____ _____    ______ ____
DOCKED: USER                              x       y       z     vdW  Elec       q    Type
DOCKED: USER                           _______ _______ _______ _____ _____    ______ ____
DOCKED: ROOT
DOCKED: ATOM      1  C15 UNL     1      11.276  -0.836  -6.988 +0.00 +0.00    +0.106 C  
DOCKED: ENDROOT
DOCKED: BRANCH   1   4
DOCKED: ATOM      2  C14 UNL     1      12.486  -0.580  -4.828 +0.00 +0.00    +0.233 C  
DOCKED: ATOM      3  O4  UNL     1      13.133   0.386  -5.231 +0.00 -0.00    -0.274 OA 
DOCKED: ATOM      4  N3  UNL     1      11.533  -1.212  -5.595 +0.00 -0.00    -0.308 N  
DOCKED: ATOM      5  H26 UNL     1      11.192  -2.119  -5.288 +0.00 +0.00    +0.149 HD 
DOCKED: BRANCH   2   6
DOCKED: ATOM      6  C12 UNL     1      12.680  -1.179  -3.420 +0.00 +0.00    +0.156 C  
DOCKED: ATOM      7  C13 UNL     1      13.974  -0.684  -2.784 +0.00 +0.00    +0.038 C  
DOCKED: BRANCH   6  10
DOCKED: ATOM      8  C11 UNL     1      13.738  -3.337  -4.072 +0.00 +0.00    +0.234 C  
DOCKED: ATOM      9  O3  UNL     1      14.775  -2.799  -4.456 +0.00 -0.00    -0.274 OA 
DOCKED: ATOM     10  N2  UNL     1      12.675  -2.628  -3.561 +0.00 -0.00    -0.303 N  
DOCKED: ATOM     11  H21 UNL     1      11.858  -3.109  -3.198 +0.00 +0.00    +0.149 HD 
DOCKED: BRANCH   8  12
DOCKED: ATOM     12  C5  UNL     1      13.523  -4.871  -4.065 +0.00 +0.00    +0.165 C  
DOCKED: BRANCH  12  13
DOCKED: ATOM     13  N1  UNL     1      12.862  -5.202  -5.319 +0.00 -0.00    -0.270 N  
DOCKED: ATOM     14  C6  UNL     1      11.608  -4.753  -5.609 +0.00 +0.00    +0.401 C  
DOCKED: ATOM     15  O1  UNL     1      10.887  -4.146  -4.833 +0.00 -0.00    -0.226 OA 
DOCKED: ATOM     16  H11 UNL     1      13.425  -5.394  -6.138 +0.00 +0.00    +0.153 HD 
DOCKED: BRANCH  14  17
DOCKED: ATOM     17  O2  UNL     1      11.332  -5.062  -6.895 +0.00 -0.00    -0.445 OA 
DOCKED: BRANCH  17  18
DOCKED: ATOM     18  C7  UNL     1      10.367  -6.090  -7.222 +0.00 +0.00    +0.107 C  
DOCKED: ATOM     19  C8  UNL     1      10.807  -7.466  -6.713 +0.00 +0.00    +0.055 C  
DOCKED: ATOM     20  C9  UNL     1       8.974  -5.702  -6.719 +0.00 +0.00    +0.055 C  
DOCKED: ATOM     21  C10 UNL     1      10.337  -6.131  -8.759 +0.00 +0.00    +0.055 C  
DOCKED: ENDBRANCH  17  18
DOCKED: ENDBRANCH  14  17
DOCKED: ENDBRANCH  12  13
DOCKED: BRANCH  12  22
DOCKED: ATOM     22  C3  UNL     1      14.866  -5.642  -3.922 +0.00 +0.00    +0.015 C  
DOCKED: ATOM     23  C4  UNL     1      14.935  -6.792  -4.937 +0.00 +0.00    +0.010 C  
DOCKED: BRANCH  22  25
DOCKED: ATOM     24  C1  UNL     1      14.645  -5.194  -1.388 +0.00 +0.00    +0.004 C  
DOCKED: ATOM     25  C2  UNL     1      15.071  -6.162  -2.480 +0.00 +0.00    +0.002 C  
DOCKED: ENDBRANCH  22  25
DOCKED: ENDBRANCH  12  22
DOCKED: ENDBRANCH   8  12
DOCKED: ENDBRANCH   6  10
DOCKED: ENDBRANCH   2   6
DOCKED: ENDBRANCH   1   4
DOCKED: BRANCH   1  26
DOCKED: ATOM     26  C16 UNL     1      12.540  -0.874  -7.885 +0.00 +0.00    +0.060 C  
DOCKED: BRANCH  26  27
DOCKED: ATOM     27  C17 UNL     1      13.225  -2.210  -8.051 +0.00 -0.00    -0.046 A  
DOCKED: ATOM     28  C18 UNL     1      12.710  -3.164  -8.940 +0.00 +0.00    +0.004 A  
DOCKED: ATOM     29  C19 UNL     1      13.317  -4.413  -9.076 +0.00 +0.00    +0.000 A  
DOCKED: ATOM     30  C20 UNL     1      14.456  -4.718  -8.331 +0.00 +0.00    +0.000 A  
DOCKED: ATOM     31  C21 UNL     1      14.995  -3.772  -7.462 +0.00 +0.00    +0.000 A  
DOCKED: ATOM     32  C22 UNL     1      14.391  -2.520  -7.333 +0.00 +0.00    +0.004 A  
DOCKED: ENDBRANCH  26  27
DOCKED: ENDBRANCH   1  26
DOCKED: BRANCH   1  33
DOCKED: ATOM     33  C23 UNL     1      10.011  -1.551  -7.539 +0.00 +0.00    +0.136 C  
DOCKED: BRANCH  33  34
DOCKED: ATOM     34  O5  UNL     1       9.651  -2.639  -6.678 +0.00 -0.00    -0.390 OA 
DOCKED: ATOM     35  H36 UNL     1      10.360  -3.301  -6.748 +0.00 +0.00    +0.210 HD 
DOCKED: ENDBRANCH  33  34
DOCKED: BRANCH  33  36
DOCKED: ATOM     36  C24 UNL     1       8.757  -0.681  -7.738 +0.00 +0.00    +0.045 C  
DOCKED: BRANCH  36  37
DOCKED: ATOM     37  C25 UNL     1       8.724   0.492  -6.744 +0.00 +0.00    +0.074 C  
DOCKED: ATOM     38  C26 UNL     1       8.174   1.757  -7.400 +0.00 +0.00    +0.017 C  
DOCKED: BRANCH  37  39
DOCKED: ATOM     39  C27 UNL     1       7.914   0.074  -5.519 +0.00 +0.00    +0.217 C  
DOCKED: ATOM     40  O6  UNL     1       7.075   0.813  -5.013 +0.00 -0.00    -0.276 OA 
DOCKED: ATOM     41  N4  UNL     1       8.262  -1.125  -4.958 +0.00 -0.00    -0.304 N  
DOCKED: ATOM     42  H43 UNL     1       9.067  -1.640  -5.305 +0.00 +0.00    +0.149 HD 
DOCKED: BRANCH  41  43
DOCKED: ATOM     43  C28 UNL     1       7.699  -1.635  -3.708 +0.00 +0.00    +0.161 C  
DOCKED: BRANCH  43  44
DOCKED: ATOM     44  C29 UNL     1       8.904  -2.300  -3.000 +0.00 +0.00    +0.234 C  
DOCKED: ATOM     45  O7  UNL     1      10.051  -2.197  -3.442 +0.00 -0.00    -0.274 OA 
DOCKED: ATOM     46  N5  UNL     1       8.605  -3.005  -1.858 +0.00 -0.00    -0.310 N  
DOCKED: ATOM     47  H45 UNL     1       7.643  -3.134  -1.583 +0.00 +0.00    +0.149 HD 
DOCKED: BRANCH  46  48
DOCKED: ATOM     48  C30 UNL     1       9.610  -3.778  -1.159 +0.00 +0.00    +0.139 C  
DOCKED: BRANCH  48  49
DOCKED: ATOM     49  C31 UNL     1       9.973  -5.025  -1.918 +0.00 -0.00    -0.027 A  
DOCKED: ATOM     50  C32 UNL     1       9.077  -5.587  -2.838 +0.00 +0.00    +0.025 A  
DOCKED: ATOM     51  C33 UNL     1       9.437  -6.749  -3.498 +0.00 +0.00    +0.111 A  
DOCKED: ATOM     52  N6  UNL     1      10.619  -7.382  -3.312 +0.00 -0.00    -0.263 NA 
DOCKED: ATOM     53  C34 UNL     1      11.462  -6.834  -2.409 +0.00 +0.00    +0.111 A  
DOCKED: ATOM     54  C35 UNL     1      11.188  -5.677  -1.696 +0.00 +0.00    +0.025 A  
DOCKED: ENDBRANCH  48  49
DOCKED: ENDBRANCH  46  48
DOCKED: ENDBRANCH  43  44
DOCKED: BRANCH  43  55
DOCKED: ATOM     55  C36 UNL     1       6.539  -2.621  -3.966 +0.00 +0.00    +0.012 C  
DOCKED: ATOM     56  C37 UNL     1       5.260  -1.913  -4.421 +0.00 +0.00    +0.009 C  
DOCKED: ATOM     57  C38 UNL     1       6.921  -3.668  -5.022 +0.00 +0.00    +0.009 C  
DOCKED: ENDBRANCH  43  55
DOCKED: ENDBRANCH  41  43
DOCKED: ENDBRANCH  37  39
DOCKED: ENDBRANCH  36  37
DOCKED: ENDBRANCH  33  36
DOCKED: ENDBRANCH   1  33
DOCKED: TORSDOF 21
DOCKED: TER
DOCKED: ENDMDL
________________________________________________________________________________


    FINAL DOCKED STATE:
    ________________________


Run:   12 / 20
Time taken for this run:   1.471s

DOCKED: MODEL        12
DOCKED: USER    Run = 12
DOCKED: USER
DOCKED: USER    Estimated Free Energy of Binding    =  +6.26 kcal/mol  [=(1)+(2)+(3)-(4)]
DOCKED: USER
DOCKED: USER    (1) Final Intermolecular Energy     =  +0.00 kcal/mol
DOCKED: USER        vdW + Hbond + desolv Energy     =  +0.00 kcal/mol
DOCKED: USER        Electrostatic Energy            =  +0.00 kcal/mol
DOCKED: USER        Moving Ligand-Fixed Receptor    =  +0.00 kcal/mol
DOCKED: USER        Moving Ligand-Moving Receptor   =  +0.00 kcal/mol
DOCKED: USER    (2) Final Total Internal Energy     = -14.93 kcal/mol
DOCKED: USER    (3) Torsional Free Energy           =  +6.26 kcal/mol
DOCKED: USER    (4) Unbound System's Energy         = -14.93 kcal/mol
DOCKED: USER
DOCKED: USER
DOCKED: REMARK  Name = ligands/ligand_12.pdb
DOCKED: REMARK  30 active torsions:
DOCKED: REMARK  status: ('A' for Active; 'I' for Inactive)
DOCKED: REMARK    1  A    between atoms: C1_1  and  C2_2
DOCKED: REMARK    2  A    between atoms: C2_2  and  C3_3
DOCKED: REMARK    3  A    between atoms: C3_3  and  C4_4
DOCKED: REMARK    4  A    between atoms: C3_3  and  C5_5
DOCKED: REMARK    5  A    between atoms: C5_5  and  N1_6
DOCKED: REMARK    6  A    between atoms: C5_5  and  C11_14
DOCKED: REMARK    7  A    between atoms: C6_7  and  O2_9
DOCKED: REMARK    8  A    between atoms: O2_9  and  C7_10
DOCKED: REMARK    9  A    between atoms: C7_10  and  C8_11
DOCKED: REMARK   10  A    between atoms: C7_10  and  C9_12
DOCKED: REMARK   11  A    between atoms: C7_10  and  C10_13
DOCKED: REMARK   12  A    between atoms: N2_16  and  C12_17
DOCKED: REMARK   13  A    between atoms: C12_17  and  C13_18
DOCKED: REMARK   14  A    between atoms: C12_17  and  C14_19
DOCKED: REMARK   15  A    between atoms: N3_21  and  C15_22
DOCKED: REMARK   16  A    between atoms: C15_22  and  C16_23
DOCKED: REMARK   17  A    between atoms: C15_22  and  C23_30
DOCKED: REMARK   18  A    between atoms: C16_23  and  C17_24
DOCKED: REMARK   19  A    between atoms: C23_30  and  O5_31
DOCKED: REMARK   20  A    between atoms: C23_30  and  C24_32
DOCKED: REMARK   21  A    between atoms: C24_32  and  C25_33
DOCKED: REMARK   22  A    between atoms: C25_33  and  C26_34
DOCKED: REMARK   23  A    between atoms: C25_33  and  C27_35
DOCKED: REMARK   24  A    between atoms: N4_37  and  C28_38
DOCKED: REMARK   25  A    between atoms: C28_38  and  C29_39
DOCKED: REMARK   26  A    between atoms: C28_38  and  C36_49
DOCKED: REMARK   27  A    between atoms: N5_41  and  C30_42
DOCKED: REMARK   28  A    between atoms: C30_42  and  C31_43
DOCKED: REMARK   29  A    between atoms: C36_49  and  C37_50
DOCKED: REMARK   30  A    between atoms: C36_49  and  C38_51
DOCKED: REMARK                            x       y       z     vdW  Elec       q    Type
DOCKED: REMARK                         _______ _______ _______ _____ _____    ______ ____
DOCKED: USER                              x       y       z     vdW  Elec       q    Type
DOCKED: USER                           _______ _______ _______ _____ _____    ______ ____
DOCKED: ROOT
DOCKED: ATOM      1  C15 UNL     1      12.927  -7.603   4.078 +0.00 +0.00    +0.106 C  
DOCKED: ENDROOT
DOCKED: BRANCH   1   4
DOCKED: ATOM      2  C14 UNL     1      12.358  -5.466   5.220 +0.00 +0.00    +0.233 C  
DOCKED: ATOM      3  O4  UNL     1      13.256  -5.597   6.052 +0.00 -0.00    -0.274 OA 
DOCKED: ATOM      4  N3  UNL     1      12.149  -6.368   4.201 +0.00 -0.00    -0.308 N  
DOCKED: ATOM      5  H26 UNL     1      11.274  -6.317   3.685 +0.00 +0.00    +0.149 HD 
DOCKED: BRANCH   2   6
DOCKED: ATOM      6  C12 UNL     1      11.377  -4.276   5.240 +0.00 +0.00    +0.156 C  
DOCKED: ATOM      7  C13 UNL     1      11.423  -3.544   6.576 +0.00 +0.00    +0.038 C  
DOCKED: BRANCH   6  10
DOCKED: ATOM      8  C11 UNL     1       9.311  -5.499   5.900 +0.00 +0.00    +0.234 C  
DOCKED: ATOM      9  O3  UNL     1       9.721  -5.731   7.036 +0.00 -0.00    -0.274 OA 
DOCKED: ATOM     10  N2  UNL     1      10.048  -4.807   4.968 +0.00 -0.00    -0.303 N  
DOCKED: ATOM     11  H21 UNL     1       9.655  -4.581   4.060 +0.00 +0.00    +0.149 HD 
DOCKED: BRANCH   8  12
DOCKED: ATOM     12  C5  UNL     1       7.903  -5.909   5.401 +0.00 +0.00    +0.165 C  
DOCKED: BRANCH  12  13
DOCKED: ATOM     13  N1  UNL     1       8.057  -7.195   4.737 +0.00 -0.00    -0.270 N  
DOCKED: ATOM     14  C6  UNL     1       8.786  -7.329   3.593 +0.00 +0.00    +0.401 C  
DOCKED: ATOM     15  O1  UNL     1       9.274  -6.404   2.964 +0.00 -0.00    -0.226 OA 
DOCKED: ATOM     16  H11 UNL     1       8.001  -8.044   5.286 +0.00 +0.00    +0.153 HD 
DOCKED: BRANCH  14  17
DOCKED: ATOM     17  O2  UNL     1       8.901  -8.646   3.313 +0.00 -0.00    -0.445 OA 
DOCKED: BRANCH  17  18
DOCKED: ATOM     18  C7  UNL     1       8.199  -9.231   2.191 +0.00 +0.00    +0.107 C  
DOCKED: ATOM     19  C8  UNL     1       6.679  -9.108   2.344 +0.00 +0.00    +0.055 C  
DOCKED: ATOM     20  C9  UNL     1       8.701  -8.639   0.872 +0.00 +0.00    +0.055 C  
DOCKED: ATOM     21  C10 UNL     1       8.568 -10.723   2.228 +0.00 +0.00    +0.055 C  
DOCKED: ENDBRANCH  17  18
DOCKED: ENDBRANCH  14  17
DOCKED: ENDBRANCH  12  13
DOCKED: BRANCH  12  22
DOCKED: ATOM     22  C3  UNL     1       6.880  -6.002   6.568 +0.00 +0.00    +0.015 C  
DOCKED: ATOM     23  C4  UNL     1       6.037  -7.280   6.442 +0.00 +0.00    +0.010 C  
DOCKED: BRANCH  22  25
DOCKED: ATOM     24  C1  UNL     1       6.682  -3.440   6.309 +0.00 +0.00    +0.004 C  
DOCKED: ATOM     25  C2  UNL     1       5.977  -4.748   6.634 +0.00 +0.00    +0.002 C  
DOCKED: ENDBRANCH  22  25
DOCKED: ENDBRANCH  12  22
DOCKED: ENDBRANCH   8  12
DOCKED: ENDBRANCH   6  10
DOCKED: ENDBRANCH   2   6
DOCKED: ENDBRANCH   1   4
DOCKED: BRANCH   1  26
DOCKED: ATOM     26  C16 UNL     1      12.891  -8.489   5.350 +0.00 +0.00    +0.060 C  
DOCKED: BRANCH  26  27
DOCKED: ATOM     27  C17 UNL     1      11.541  -9.004   5.790 +0.00 -0.00    -0.046 A  
DOCKED: ATOM     28  C18 UNL     1      10.947 -10.089   5.131 +0.00 +0.00    +0.004 A  
DOCKED: ATOM     29  C19 UNL     1       9.686 -10.551   5.510 +0.00 +0.00    +0.000 A  
DOCKED: ATOM     30  C20 UNL     1       9.008  -9.938   6.563 +0.00 +0.00    +0.000 A  
DOCKED: ATOM     31  C21 UNL     1       9.596  -8.875   7.245 +0.00 +0.00    +0.000 A  
DOCKED: ATOM     32  C22 UNL     1      10.860  -8.419   6.870 +0.00 +0.00    +0.004 A  
DOCKED: ENDBRANCH  26  27
DOCKED: ENDBRANCH   1  26
DOCKED: BRANCH   1  33
DOCKED: ATOM     33  C23 UNL     1      12.643  -8.316   2.727 +0.00 +0.00    +0.136 C  
DOCKED: BRANCH  33  34
DOCKED: ATOM     34  O5  UNL     1      11.462  -7.768   2.125 +0.00 -0.00    -0.390 OA 
DOCKED: ATOM     35  H36 UNL     1      10.720  -7.982   2.716 +0.00 +0.00    +0.210 HD 
DOCKED: ENDBRANCH  33  34
DOCKED: BRANCH  33  36
DOCKED: ATOM     36  C24 UNL     1      13.764  -8.271   1.673 +0.00 +0.00    +0.045 C  
DOCKED: BRANCH  36  37
DOCKED: ATOM     37  C25 UNL     1      14.622  -7.003   1.818 +0.00 +0.00    +0.074 C  
DOCKED: ATOM     38  C26 UNL     1      16.096  -7.299   1.548 +0.00 +0.00    +0.017 C  
DOCKED: BRANCH  37  39
DOCKED: ATOM     39  C27 UNL     1      14.066  -5.926   0.891 +0.00 +0.00    +0.217 C  
DOCKED: ATOM     40  O6  UNL     1      14.798  -5.229   0.195 +0.00 -0.00    -0.276 OA 
DOCKED: ATOM     41  N4  UNL     1      12.716  -5.713   0.970 +0.00 -0.00    -0.304 N  
DOCKED: ATOM     42  H43 UNL     1      12.161  -6.196   1.671 +0.00 +0.00    +0.149 HD 
DOCKED: BRANCH  41  43
DOCKED: ATOM     43  C28 UNL     1      12.017  -4.639   0.265 +0.00 +0.00    +0.161 C  
DOCKED: BRANCH  43  44
DOCKED: ATOM     44  C29 UNL     1      10.964  -4.146   1.287 +0.00 +0.00    +0.234 C  
DOCKED: ATOM     45  O7  UNL     1      10.941  -4.567   2.446 +0.00 -0.00    -0.274 OA 
DOCKED: ATOM     46  N5  UNL     1      10.067  -3.218   0.812 +0.00 -0.00    -0.310 N  
DOCKED: ATOM     47  H45 UNL     1      10.070  -2.969  -0.166 +0.00 +0.00    +0.149 HD 
DOCKED: BRANCH  46  48
DOCKED: ATOM     48  C30 UNL     1       8.955  -2.758   1.616 +0.00 +0.00    +0.139 C  
DOCKED: BRANCH  48  49
DOCKED: ATOM     49  C31 UNL     1       7.906  -3.825   1.768 +0.00 -0.00    -0.027 A  
DOCKED: ATOM     50  C32 UNL     1       7.773  -4.838   0.807 +0.00 +0.00    +0.025 A  
DOCKED: ATOM     51  C33 UNL     1       6.779  -5.787   0.968 +0.00 +0.00    +0.111 A  
DOCKED: ATOM     52  N6  UNL     1       5.920  -5.802   2.014 +0.00 -0.00    -0.263 NA 
DOCKED: ATOM     53  C34 UNL     1       6.053  -4.810   2.921 +0.00 +0.00    +0.111 A  
DOCKED: ATOM     54  C35 UNL     1       7.013  -3.812   2.842 +0.00 +0.00    +0.025 A  
DOCKED: ENDBRANCH  48  49
DOCKED: ENDBRANCH  46  48
DOCKED: ENDBRANCH  43  44
DOCKED: BRANCH  43  55
DOCKED: ATOM     55  C36 UNL     1      11.384  -5.140  -1.052 +0.00 +0.00    +0.012 C  
DOCKED: ATOM     56  C37 UNL     1      12.429  -5.401  -2.140 +0.00 +0.00    +0.009 C  
DOCKED: ATOM     57  C38 UNL     1      10.577  -6.426  -0.828 +0.00 +0.00    +0.009 C  
DOCKED: ENDBRANCH  43  55
DOCKED: ENDBRANCH  41  43
DOCKED: ENDBRANCH  37  39
DOCKED: ENDBRANCH  36  37
DOCKED: ENDBRANCH  33  36
DOCKED: ENDBRANCH   1  33
DOCKED: TORSDOF 21
DOCKED: TER
DOCKED: ENDMDL
________________________________________________________________________________


    FINAL DOCKED STATE:
    ________________________


Run:   13 / 20
Time taken for this run:   1.471s

DOCKED: MODEL        13
DOCKED: USER    Run = 13
DOCKED: USER
DOCKED: USER    Estimated Free Energy of Binding    =  +6.26 kcal/mol  [=(1)+(2)+(3)-(4)]
DOCKED: USER
DOCKED: USER    (1) Final Intermolecular Energy     =  +0.00 kcal/mol
DOCKED: USER        vdW + Hbond + desolv Energy     =  +0.00 kcal/mol
DOCKED: USER        Electrostatic Energy            =  +0.00 kcal/mol
DOCKED: USER        Moving Ligand-Fixed Receptor    =  +0.00 kcal/mol
DOCKED: USER        Moving Ligand-Moving Receptor   =  +0.00 kcal/mol
DOCKED: USER    (2) Final Total Internal Energy     = -14.96 kcal/mol
DOCKED: USER    (3) Torsional Free Energy           =  +6.26 kcal/mol
DOCKED: USER    (4) Unbound System's Energy         = -14.96 kcal/mol
DOCKED: USER
DOCKED: USER
DOCKED: REMARK  Name = ligands/ligand_12.pdb
DOCKED: REMARK  30 active torsions:
DOCKED: REMARK  status: ('A' for Active; 'I' for Inactive)
DOCKED: REMARK    1  A    between atoms: C1_1  and  C2_2
DOCKED: REMARK    2  A    between atoms: C2_2  and  C3_3
DOCKED: REMARK    3  A    between atoms: C3_3  and  C4_4
DOCKED: REMARK    4  A    between atoms: C3_3  and  C5_5
DOCKED: REMARK    5  A    between atoms: C5_5  and  N1_6
DOCKED: REMARK    6  A    between atoms: C5_5  and  C11_14
DOCKED: REMARK    7  A    between atoms: C6_7  and  O2_9
DOCKED: REMARK    8  A    between atoms: O2_9  and  C7_10
DOCKED: REMARK    9  A    between atoms: C7_10  and  C8_11
DOCKED: REMARK   10  A    between atoms: C7_10  and  C9_12
DOCKED: REMARK   11  A    between atoms: C7_10  and  C10_13
DOCKED: REMARK   12  A    between atoms: N2_16  and  C12_17
DOCKED: REMARK   13  A    between atoms: C12_17  and  C13_18
DOCKED: REMARK   14  A    between atoms: C12_17  and  C14_19
DOCKED: REMARK   15  A    between atoms: N3_21  and  C15_22
DOCKED: REMARK   16  A    between atoms: C15_22  and  C16_23
DOCKED: REMARK   17  A    between atoms: C15_22  and  C23_30
DOCKED: REMARK   18  A    between atoms: C16_23  and  C17_24
DOCKED: REMARK   19  A    between atoms: C23_30  and  O5_31
DOCKED: REMARK   20  A    between atoms: C23_30  and  C24_32
DOCKED: REMARK   21  A    between atoms: C24_32  and  C25_33
DOCKED: REMARK   22  A    between atoms: C25_33  and  C26_34
DOCKED: REMARK   23  A    between atoms: C25_33  and  C27_35
DOCKED: REMARK   24  A    between atoms: N4_37  and  C28_38
DOCKED: REMARK   25  A    between atoms: C28_38  and  C29_39
DOCKED: REMARK   26  A    between atoms: C28_38  and  C36_49
DOCKED: REMARK   27  A    between atoms: N5_41  and  C30_42
DOCKED: REMARK   28  A    between atoms: C30_42  and  C31_43
DOCKED: REMARK   29  A    between atoms: C36_49  and  C37_50
DOCKED: REMARK   30  A    between atoms: C36_49  and  C38_51
DOCKED: REMARK                            x       y       z     vdW  Elec       q    Type
DOCKED: REMARK                         _______ _______ _______ _____ _____    ______ ____
DOCKED: USER                              x       y       z     vdW  Elec       q    Type
DOCKED: USER                           _______ _______ _______ _____ _____    ______ ____
DOCKED: ROOT
DOCKED: ATOM      1  C15 UNL     1       8.163  -3.183  -0.540 +0.00 +0.00    +0.106 C  
DOCKED: ENDROOT
DOCKED: BRANCH   1   4
DOCKED: ATOM      2  C14 UNL     1       6.894  -4.158   1.366 +0.00 +0.00    +0.233 C  
DOCKED: ATOM      3  O4  UNL     1       5.806  -3.964   0.824 +0.00 -0.00    -0.274 OA 
DOCKED: ATOM      4  N3  UNL     1       8.092  -3.849   0.763 +0.00 -0.00    -0.308 N  
DOCKED: ATOM      5  H26 UNL     1       8.931  -3.836   1.338 +0.00 +0.00    +0.149 HD 
DOCKED: BRANCH   2   6
DOCKED: ATOM      6  C12 UNL     1       7.020  -4.768   2.777 +0.00 +0.00    +0.156 C  
DOCKED: ATOM      7  C13 UNL     1       5.741  -4.568   3.582 +0.00 +0.00    +0.038 C  
DOCKED: BRANCH   6  10
DOCKED: ATOM      8  C11 UNL     1       8.095  -2.893   4.014 +0.00 +0.00    +0.234 C  
DOCKED: ATOM      9  O3  UNL     1       7.066  -2.220   4.038 +0.00 -0.00    -0.274 OA 
DOCKED: ATOM     10  N2  UNL     1       8.162  -4.133   3.422 +0.00 -0.00    -0.303 N  
DOCKED: ATOM     11  H21 UNL     1       9.010  -4.687   3.473 +0.00 +0.00    +0.149 HD 
DOCKED: BRANCH   8  12
DOCKED: ATOM     12  C5  UNL     1       9.418  -2.454   4.689 +0.00 +0.00    +0.165 C  
DOCKED: BRANCH  12  13
DOCKED: ATOM     13  N1  UNL     1      10.497  -2.979   3.865 +0.00 -0.00    -0.270 N  
DOCKED: ATOM     14  C6  UNL     1      10.633  -2.631   2.554 +0.00 +0.00    +0.401 C  
DOCKED: ATOM     15  O1  UNL     1       9.830  -1.962   1.923 +0.00 -0.00    -0.226 OA 
DOCKED: ATOM     16  H11 UNL     1      11.367  -3.251   4.305 +0.00 +0.00    +0.153 HD 
DOCKED: BRANCH  14  17
DOCKED: ATOM     17  O2  UNL     1      11.808  -3.120   2.103 +0.00 -0.00    -0.445 OA 
DOCKED: BRANCH  17  18
DOCKED: ATOM     18  C7  UNL     1      12.868  -2.232   1.673 +0.00 +0.00    +0.107 C  
DOCKED: ATOM     19  C8  UNL     1      12.478  -1.447   0.417 +0.00 +0.00    +0.055 C  
DOCKED: ATOM     20  C9  UNL     1      13.301  -1.315   2.821 +0.00 +0.00    +0.055 C  
DOCKED: ATOM     21  C10 UNL     1      14.042  -3.158   1.319 +0.00 +0.00    +0.055 C  
DOCKED: ENDBRANCH  17  18
DOCKED: ENDBRANCH  14  17
DOCKED: ENDBRANCH  12  13
DOCKED: BRANCH  12  22
DOCKED: ATOM     22  C3  UNL     1       9.517  -0.908   4.819 +0.00 +0.00    +0.015 C  
DOCKED: ATOM     23  C4  UNL     1      10.963  -0.485   5.116 +0.00 +0.00    +0.010 C  
DOCKED: BRANCH  22  25
DOCKED: ATOM     24  C1  UNL     1       8.317  -1.301   7.073 +0.00 +0.00    +0.004 C  
DOCKED: ATOM     25  C2  UNL     1       8.548  -0.365   5.896 +0.00 +0.00    +0.002 C  
DOCKED: ENDBRANCH  22  25
DOCKED: ENDBRANCH  12  22
DOCKED: ENDBRANCH   8  12
DOCKED: ENDBRANCH   6  10
DOCKED: ENDBRANCH   2   6
DOCKED: ENDBRANCH   1   4
DOCKED: BRANCH   1  26
DOCKED: ATOM     26  C16 UNL     1       7.364  -1.856  -0.603 +0.00 +0.00    +0.060 C  
DOCKED: BRANCH  26  27
DOCKED: ATOM     27  C17 UNL     1       7.781  -0.757   0.346 +0.00 -0.00    -0.046 A  
DOCKED: ATOM     28  C18 UNL     1       8.888   0.052   0.051 +0.00 +0.00    +0.004 A  
DOCKED: ATOM     29  C19 UNL     1       9.300   1.047   0.937 +0.00 +0.00    +0.000 A  
DOCKED: ATOM     30  C20 UNL     1       8.601   1.255   2.126 +0.00 +0.00    +0.000 A  
DOCKED: ATOM     31  C21 UNL     1       7.484   0.476   2.422 +0.00 +0.00    +0.000 A  
DOCKED: ATOM     32  C22 UNL     1       7.068  -0.514   1.531 +0.00 +0.00    +0.004 A  
DOCKED: ENDBRANCH  26  27
DOCKED: ENDBRANCH   1  26
DOCKED: BRANCH   1  33
DOCKED: ATOM     33  C23 UNL     1       9.622  -3.141  -1.073 +0.00 +0.00    +0.136 C  
DOCKED: BRANCH  33  34
DOCKED: ATOM     34  O5  UNL     1      10.504  -3.761  -0.128 +0.00 -0.00    -0.390 OA 
DOCKED: ATOM     35  H36 UNL     1      10.130  -3.599   0.755 +0.00 +0.00    +0.210 HD 
DOCKED: ENDBRANCH  33  34
DOCKED: BRANCH  33  36
DOCKED: ATOM     36  C24 UNL     1       9.876  -3.794  -2.443 +0.00 +0.00    +0.045 C  
DOCKED: BRANCH  36  37
DOCKED: ATOM     37  C25 UNL     1       9.119  -5.125  -2.580 +0.00 +0.00    +0.074 C  
DOCKED: ATOM     38  C26 UNL     1       8.881  -5.477  -4.048 +0.00 +0.00    +0.017 C  
DOCKED: BRANCH  37  39
DOCKED: ATOM     39  C27 UNL     1       9.899  -6.211  -1.841 +0.00 +0.00    +0.217 C  
DOCKED: ATOM     40  O6  UNL     1      10.415  -7.154  -2.433 +0.00 -0.00    -0.276 OA 
DOCKED: ATOM     41  N4  UNL     1       9.887  -6.125  -0.475 +0.00 -0.00    -0.304 N  
DOCKED: ATOM     42  H43 UNL     1       9.317  -5.423  -0.010 +0.00 +0.00    +0.149 HD 
DOCKED: BRANCH  41  43
DOCKED: ATOM     43  C28 UNL     1      10.459  -7.138   0.411 +0.00 +0.00    +0.161 C  
DOCKED: BRANCH  43  44
DOCKED: ATOM     44  C29 UNL     1      10.148  -6.608   1.832 +0.00 +0.00    +0.234 C  
DOCKED: ATOM     45  O7  UNL     1       9.879  -5.422   2.035 +0.00 -0.00    -0.274 OA 
DOCKED: ATOM     46  N5  UNL     1      10.195  -7.546   2.837 +0.00 -0.00    -0.310 N  
DOCKED: ATOM     47  H45 UNL     1      10.505  -8.486   2.635 +0.00 +0.00    +0.149 HD 
DOCKED: BRANCH  46  48
DOCKED: ATOM     48  C30 UNL     1      10.046  -7.175   4.228 +0.00 +0.00    +0.139 C  
DOCKED: BRANCH  48  49
DOCKED: ATOM     49  C31 UNL     1      11.055  -6.136   4.632 +0.00 -0.00    -0.027 A  
DOCKED: ATOM     50  C32 UNL     1      12.215  -5.933   3.871 +0.00 +0.00    +0.025 A  
DOCKED: ATOM     51  C33 UNL     1      13.133  -4.985   4.290 +0.00 +0.00    +0.111 A  
DOCKED: ATOM     52  N6  UNL     1      12.974  -4.227   5.401 +0.00 -0.00    -0.263 NA 
DOCKED: ATOM     53  C34 UNL     1      11.859  -4.449   6.129 +0.00 +0.00    +0.111 A  
DOCKED: ATOM     54  C35 UNL     1      10.886  -5.379   5.794 +0.00 +0.00    +0.025 A  
DOCKED: ENDBRANCH  48  49
DOCKED: ENDBRANCH  46  48
DOCKED: ENDBRANCH  43  44
DOCKED: BRANCH  43  55
DOCKED: ATOM     55  C36 UNL     1      11.971  -7.326   0.160 +0.00 +0.00    +0.012 C  
DOCKED: ATOM     56  C37 UNL     1      12.764  -6.033   0.370 +0.00 +0.00    +0.009 C  
DOCKED: ATOM     57  C38 UNL     1      12.556  -8.413   1.072 +0.00 +0.00    +0.009 C  
DOCKED: ENDBRANCH  43  55
DOCKED: ENDBRANCH  41  43
DOCKED: ENDBRANCH  37  39
DOCKED: ENDBRANCH  36  37
DOCKED: ENDBRANCH  33  36
DOCKED: ENDBRANCH   1  33
DOCKED: TORSDOF 21
DOCKED: TER
DOCKED: ENDMDL
________________________________________________________________________________


    FINAL DOCKED STATE:
    ________________________


Run:   14 / 20
Time taken for this run:   1.471s

DOCKED: MODEL        14
DOCKED: USER    Run = 14
DOCKED: USER
DOCKED: USER    Estimated Free Energy of Binding    =  +6.26 kcal/mol  [=(1)+(2)+(3)-(4)]
DOCKED: USER
DOCKED: USER    (1) Final Intermolecular Energy     =  +0.00 kcal/mol
DOCKED: USER        vdW + Hbond + desolv Energy     =  +0.00 kcal/mol
DOCKED: USER        Electrostatic Energy            =  +0.00 kcal/mol
DOCKED: USER        Moving Ligand-Fixed Receptor    =  +0.00 kcal/mol
DOCKED: USER        Moving Ligand-Moving Receptor   =  +0.00 kcal/mol
DOCKED: USER    (2) Final Total Internal Energy     = -14.94 kcal/mol
DOCKED: USER    (3) Torsional Free Energy           =  +6.26 kcal/mol
DOCKED: USER    (4) Unbound System's Energy         = -14.94 kcal/mol
DOCKED: USER
DOCKED: USER
DOCKED: REMARK  Name = ligands/ligand_12.pdb
DOCKED: REMARK  30 active torsions:
DOCKED: REMARK  status: ('A' for Active; 'I' for Inactive)
DOCKED: REMARK    1  A    between atoms: C1_1  and  C2_2
DOCKED: REMARK    2  A    between atoms: C2_2  and  C3_3
DOCKED: REMARK    3  A    between atoms: C3_3  and  C4_4
DOCKED: REMARK    4  A    between atoms: C3_3  and  C5_5
DOCKED: REMARK    5  A    between atoms: C5_5  and  N1_6
DOCKED: REMARK    6  A    between atoms: C5_5  and  C11_14
DOCKED: REMARK    7  A    between atoms: C6_7  and  O2_9
DOCKED: REMARK    8  A    between atoms: O2_9  and  C7_10
DOCKED: REMARK    9  A    between atoms: C7_10  and  C8_11
DOCKED: REMARK   10  A    between atoms: C7_10  and  C9_12
DOCKED: REMARK   11  A    between atoms: C7_10  and  C10_13
DOCKED: REMARK   12  A    between atoms: N2_16  and  C12_17
DOCKED: REMARK   13  A    between atoms: C12_17  and  C13_18
DOCKED: REMARK   14  A    between atoms: C12_17  and  C14_19
DOCKED: REMARK   15  A    between atoms: N3_21  and  C15_22
DOCKED: REMARK   16  A    between atoms: C15_22  and  C16_23
DOCKED: REMARK   17  A    between atoms: C15_22  and  C23_30
DOCKED: REMARK   18  A    between atoms: C16_23  and  C17_24
DOCKED: REMARK   19  A    between atoms: C23_30  and  O5_31
DOCKED: REMARK   20  A    between atoms: C23_30  and  C24_32
DOCKED: REMARK   21  A    between atoms: C24_32  and  C25_33
DOCKED: REMARK   22  A    between atoms: C25_33  and  C26_34
DOCKED: REMARK   23  A    between atoms: C25_33  and  C27_35
DOCKED: REMARK   24  A    between atoms: N4_37  and  C28_38
DOCKED: REMARK   25  A    between atoms: C28_38  and  C29_39
DOCKED: REMARK   26  A    between atoms: C28_38  and  C36_49
DOCKED: REMARK   27  A    between atoms: N5_41  and  C30_42
DOCKED: REMARK   28  A    between atoms: C30_42  and  C31_43
DOCKED: REMARK   29  A    between atoms: C36_49  and  C37_50
DOCKED: REMARK   30  A    between atoms: C36_49  and  C38_51
DOCKED: REMARK                            x       y       z     vdW  Elec       q    Type
DOCKED: REMARK                         _______ _______ _______ _____ _____    ______ ____
DOCKED: USER                              x       y       z     vdW  Elec       q    Type
DOCKED: USER                           _______ _______ _______ _____ _____    ______ ____
DOCKED: ROOT
DOCKED: ATOM      1  C15 UNL     1       3.830  -5.741  -7.907 +0.00 +0.00    +0.106 C  
DOCKED: ENDROOT
DOCKED: BRANCH   1   4
DOCKED: ATOM      2  C14 UNL     1       3.766  -6.821  -5.666 +0.00 +0.00    +0.233 C  
DOCKED: ATOM      3  O4  UNL     1       2.576  -6.551  -5.499 +0.00 -0.00    -0.274 OA 
DOCKED: ATOM      4  N3  UNL     1       4.447  -6.503  -6.819 +0.00 -0.00    -0.308 N  
DOCKED: ATOM      5  H26 UNL     1       5.462  -6.560  -6.809 +0.00 +0.00    +0.149 HD 
DOCKED: BRANCH   2   6
DOCKED: ATOM      6  C12 UNL     1       4.610  -7.541  -4.595 +0.00 +0.00    +0.156 C  
DOCKED: ATOM      7  C13 UNL     1       3.919  -7.514  -3.237 +0.00 +0.00    +0.038 C  
DOCKED: BRANCH   6  10
DOCKED: ATOM      8  C11 UNL     1       6.101  -5.653  -3.952 +0.00 +0.00    +0.234 C  
DOCKED: ATOM      9  O3  UNL     1       5.193  -5.018  -3.420 +0.00 -0.00    -0.274 OA 
DOCKED: ATOM     10  N2  UNL     1       5.906  -6.878  -4.548 +0.00 -0.00    -0.303 N  
DOCKED: ATOM     11  H21 UNL     1       6.689  -7.402  -4.925 +0.00 +0.00    +0.149 HD 
DOCKED: BRANCH   8  12
DOCKED: ATOM     12  C5  UNL     1       7.576  -5.180  -3.972 +0.00 +0.00    +0.165 C  
DOCKED: BRANCH  12  13
DOCKED: ATOM     13  N1  UNL     1       7.765  -4.464  -5.225 +0.00 -0.00    -0.270 N  
DOCKED: ATOM     14  C6  UNL     1       7.667  -5.091  -6.432 +0.00 +0.00    +0.401 C  
DOCKED: ATOM     15  O1  UNL     1       7.532  -6.294  -6.584 +0.00 -0.00    -0.226 OA 
DOCKED: ATOM     16  H11 UNL     1       7.559  -3.473  -5.264 +0.00 +0.00    +0.153 HD 
DOCKED: BRANCH  14  17
DOCKED: ATOM     17  O2  UNL     1       7.708  -4.153  -7.404 +0.00 -0.00    -0.445 OA 
DOCKED: BRANCH  17  18
DOCKED: ATOM     18  C7  UNL     1       8.850  -4.045  -8.286 +0.00 +0.00    +0.107 C  
DOCKED: ATOM     19  C8  UNL     1      10.120  -3.647  -7.527 +0.00 +0.00    +0.055 C  
DOCKED: ATOM     20  C9  UNL     1       9.034  -5.336  -9.090 +0.00 +0.00    +0.055 C  
DOCKED: ATOM     21  C10 UNL     1       8.494  -2.910  -9.260 +0.00 +0.00    +0.055 C  
DOCKED: ENDBRANCH  17  18
DOCKED: ENDBRANCH  14  17
DOCKED: ENDBRANCH  12  13
DOCKED: BRANCH  12  22
DOCKED: ATOM     22  C3  UNL     1       7.909  -4.272  -2.755 +0.00 +0.00    +0.015 C  
DOCKED: ATOM     23  C4  UNL     1       8.729  -3.053  -3.202 +0.00 +0.00    +0.010 C  
DOCKED: BRANCH  22  25
DOCKED: ATOM     24  C1  UNL     1       8.212  -6.509  -1.499 +0.00 +0.00    +0.004 C  
DOCKED: ATOM     25  C2  UNL     1       8.644  -5.057  -1.644 +0.00 +0.00    +0.002 C  
DOCKED: ENDBRANCH  22  25
DOCKED: ENDBRANCH  12  22
DOCKED: ENDBRANCH   8  12
DOCKED: ENDBRANCH   6  10
DOCKED: ENDBRANCH   2   6
DOCKED: ENDBRANCH   1   4
DOCKED: BRANCH   1  26
DOCKED: ATOM     26  C16 UNL     1       3.256  -4.372  -7.458 +0.00 +0.00    +0.060 C  
DOCKED: BRANCH  26  27
DOCKED: ATOM     27  C17 UNL     1       4.233  -3.368  -6.895 +0.00 -0.00    -0.046 A  
DOCKED: ATOM     28  C18 UNL     1       5.047  -2.613  -7.752 +0.00 +0.00    +0.004 A  
DOCKED: ATOM     29  C19 UNL     1       5.976  -1.707  -7.239 +0.00 +0.00    +0.000 A  
DOCKED: ATOM     30  C20 UNL     1       6.094  -1.537  -5.860 +0.00 +0.00    +0.000 A  
DOCKED: ATOM     31  C21 UNL     1       5.276  -2.261  -4.995 +0.00 +0.00    +0.000 A  
DOCKED: ATOM     32  C22 UNL     1       4.342  -3.161  -5.510 +0.00 +0.00    +0.004 A  
DOCKED: ENDBRANCH  26  27
DOCKED: ENDBRANCH   1  26
DOCKED: BRANCH   1  33
DOCKED: ATOM     33  C23 UNL     1       4.732  -5.734  -9.173 +0.00 +0.00    +0.136 C  
DOCKED: BRANCH  33  34
DOCKED: ATOM     34  O5  UNL     1       6.054  -6.172  -8.831 +0.00 -0.00    -0.390 OA 
DOCKED: ATOM     35  H36 UNL     1       6.441  -5.484  -8.264 +0.00 +0.00    +0.210 HD 
DOCKED: ENDBRANCH  33  34
DOCKED: BRANCH  33  36
DOCKED: ATOM     36  C24 UNL     1       4.255  -6.582 -10.365 +0.00 +0.00    +0.045 C  
DOCKED: BRANCH  36  37
DOCKED: ATOM     37  C25 UNL     1       3.438  -7.799  -9.898 +0.00 +0.00    +0.074 C  
DOCKED: ATOM     38  C26 UNL     1       2.277  -8.083 -10.850 +0.00 +0.00    +0.017 C  
DOCKED: BRANCH  37  39
DOCKED: ATOM     39  C27 UNL     1       4.376  -8.994  -9.752 +0.00 +0.00    +0.217 C  
DOCKED: ATOM     40  O6  UNL     1       4.078 -10.107 -10.175 +0.00 -0.00    -0.276 OA 
DOCKED: ATOM     41  N4  UNL     1       5.513  -8.771  -9.025 +0.00 -0.00    -0.304 N  
DOCKED: ATOM     42  H43 UNL     1       5.655  -7.881  -8.553 +0.00 +0.00    +0.149 HD 
DOCKED: BRANCH  41  43
DOCKED: ATOM     43  C28 UNL     1       6.468  -9.818  -8.661 +0.00 +0.00    +0.161 C  
DOCKED: BRANCH  43  44
DOCKED: ATOM     44  C29 UNL     1       6.897  -9.446  -7.221 +0.00 +0.00    +0.234 C  
DOCKED: ATOM     45  O7  UNL     1       6.351  -8.532  -6.599 +0.00 -0.00    -0.274 OA 
DOCKED: ATOM     46  N5  UNL     1       7.920 -10.200  -6.695 +0.00 -0.00    -0.310 N  
DOCKED: ATOM     47  H45 UNL     1       8.395 -10.878  -7.272 +0.00 +0.00    +0.149 HD 
DOCKED: BRANCH  46  48
DOCKED: ATOM     48  C30 UNL     1       8.506  -9.889  -5.408 +0.00 +0.00    +0.139 C  
DOCKED: BRANCH  48  49
DOCKED: ATOM     49  C31 UNL     1       9.350  -8.646  -5.472 +0.00 -0.00    -0.027 A  
DOCKED: ATOM     50  C32 UNL     1       9.905  -8.221  -6.688 +0.00 +0.00    +0.025 A  
DOCKED: ATOM     51  C33 UNL     1      10.696  -7.086  -6.702 +0.00 +0.00    +0.111 A  
DOCKED: ATOM     52  N6  UNL     1      10.966  -6.346  -5.601 +0.00 -0.00    -0.263 NA 
DOCKED: ATOM     53  C34 UNL     1      10.436  -6.780  -4.437 +0.00 +0.00    +0.111 A  
DOCKED: ATOM     54  C35 UNL     1       9.636  -7.908  -4.322 +0.00 +0.00    +0.025 A  
DOCKED: ENDBRANCH  48  49
DOCKED: ENDBRANCH  46  48
DOCKED: ENDBRANCH  43  44
DOCKED: BRANCH  43  55
DOCKED: ATOM     55  C36 UNL     1       7.657  -9.871  -9.644 +0.00 +0.00    +0.012 C  
DOCKED: ATOM     56  C37 UNL     1       7.271 -10.477 -10.997 +0.00 +0.00    +0.009 C  
DOCKED: ATOM     57  C38 UNL     1       8.246  -8.474  -9.884 +0.00 +0.00    +0.009 C  
DOCKED: ENDBRANCH  43  55
DOCKED: ENDBRANCH  41  43
DOCKED: ENDBRANCH  37  39
DOCKED: ENDBRANCH  36  37
DOCKED: ENDBRANCH  33  36
DOCKED: ENDBRANCH   1  33
DOCKED: TORSDOF 21
DOCKED: TER
DOCKED: ENDMDL
________________________________________________________________________________


    FINAL DOCKED STATE:
    ________________________


Run:   15 / 20
Time taken for this run:   1.471s

DOCKED: MODEL        15
DOCKED: USER    Run = 15
DOCKED: USER
DOCKED: USER    Estimated Free Energy of Binding    =  +6.26 kcal/mol  [=(1)+(2)+(3)-(4)]
DOCKED: USER
DOCKED: USER    (1) Final Intermolecular Energy     =  +0.00 kcal/mol
DOCKED: USER        vdW + Hbond + desolv Energy     =  +0.00 kcal/mol
DOCKED: USER        Electrostatic Energy            =  +0.00 kcal/mol
DOCKED: USER        Moving Ligand-Fixed Receptor    =  +0.00 kcal/mol
DOCKED: USER        Moving Ligand-Moving Receptor   =  +0.00 kcal/mol
DOCKED: USER    (2) Final Total Internal Energy     = -14.97 kcal/mol
DOCKED: USER    (3) Torsional Free Energy           =  +6.26 kcal/mol
DOCKED: USER    (4) Unbound System's Energy         = -14.97 kcal/mol
DOCKED: USER
DOCKED: USER
DOCKED: REMARK  Name = ligands/ligand_12.pdb
DOCKED: REMARK  30 active torsions:
DOCKED: REMARK  status: ('A' for Active; 'I' for Inactive)
DOCKED: REMARK    1  A    between atoms: C1_1  and  C2_2
DOCKED: REMARK    2  A    between atoms: C2_2  and  C3_3
DOCKED: REMARK    3  A    between atoms: C3_3  and  C4_4
DOCKED: REMARK    4  A    between atoms: C3_3  and  C5_5
DOCKED: REMARK    5  A    between atoms: C5_5  and  N1_6
DOCKED: REMARK    6  A    between atoms: C5_5  and  C11_14
DOCKED: REMARK    7  A    between atoms: C6_7  and  O2_9
DOCKED: REMARK    8  A    between atoms: O2_9  and  C7_10
DOCKED: REMARK    9  A    between atoms: C7_10  and  C8_11
DOCKED: REMARK   10  A    between atoms: C7_10  and  C9_12
DOCKED: REMARK   11  A    between atoms: C7_10  and  C10_13
DOCKED: REMARK   12  A    between atoms: N2_16  and  C12_17
DOCKED: REMARK   13  A    between atoms: C12_17  and  C13_18
DOCKED: REMARK   14  A    between atoms: C12_17  and  C14_19
DOCKED: REMARK   15  A    between atoms: N3_21  and  C15_22
DOCKED: REMARK   16  A    between atoms: C15_22  and  C16_23
DOCKED: REMARK   17  A    between atoms: C15_22  and  C23_30
DOCKED: REMARK   18  A    between atoms: C16_23  and  C17_24
DOCKED: REMARK   19  A    between atoms: C23_30  and  O5_31
DOCKED: REMARK   20  A    between atoms: C23_30  and  C24_32
DOCKED: REMARK   21  A    between atoms: C24_32  and  C25_33
DOCKED: REMARK   22  A    between atoms: C25_33  and  C26_34
DOCKED: REMARK   23  A    between atoms: C25_33  and  C27_35
DOCKED: REMARK   24  A    between atoms: N4_37  and  C28_38
DOCKED: REMARK   25  A    between atoms: C28_38  and  C29_39
DOCKED: REMARK   26  A    between atoms: C28_38  and  C36_49
DOCKED: REMARK   27  A    between atoms: N5_41  and  C30_42
DOCKED: REMARK   28  A    between atoms: C30_42  and  C31_43
DOCKED: REMARK   29  A    between atoms: C36_49  and  C37_50
DOCKED: REMARK   30  A    between atoms: C36_49  and  C38_51
DOCKED: REMARK                            x       y       z     vdW  Elec       q    Type
DOCKED: REMARK                         _______ _______ _______ _____ _____    ______ ____
DOCKED: USER                              x       y       z     vdW  Elec       q    Type
DOCKED: USER                           _______ _______ _______ _____ _____    ______ ____
DOCKED: ROOT
DOCKED: ATOM      1  C15 UNL     1       7.559  -3.205   4.241 +0.00 +0.00    +0.106 C  
DOCKED: ENDROOT
DOCKED: BRANCH   1   4
DOCKED: ATOM      2  C14 UNL     1       8.802  -1.998   2.454 +0.00 +0.00    +0.233 C  
DOCKED: ATOM      3  O4  UNL     1       9.897  -2.367   2.878 +0.00 -0.00    -0.274 OA 
DOCKED: ATOM      4  N3  UNL     1       7.612  -2.387   3.027 +0.00 -0.00    -0.308 N  
DOCKED: ATOM      5  H26 UNL     1       6.767  -1.886   2.767 +0.00 +0.00    +0.149 HD 
DOCKED: BRANCH   2   6
DOCKED: ATOM      6  C12 UNL     1       8.657  -1.060   1.239 +0.00 +0.00    +0.156 C  
DOCKED: ATOM      7  C13 UNL     1       9.968  -0.344   0.935 +0.00 +0.00    +0.038 C  
DOCKED: BRANCH   6  10
DOCKED: ATOM      8  C11 UNL     1       7.793   1.030   2.283 +0.00 +0.00    +0.234 C  
DOCKED: ATOM      9  O3  UNL     1       8.888   1.341   2.747 +0.00 -0.00    -0.274 OA 
DOCKED: ATOM     10  N2  UNL     1       7.592  -0.115   1.546 +0.00 -0.00    -0.303 N  
DOCKED: ATOM     11  H21 UNL     1       6.688  -0.311   1.128 +0.00 +0.00    +0.149 HD 
DOCKED: BRANCH   8  12
DOCKED: ATOM     12  C5  UNL     1       6.525   1.908   2.425 +0.00 +0.00    +0.165 C  
DOCKED: BRANCH  12  13
DOCKED: ATOM     13  N1  UNL     1       5.388   1.000   2.412 +0.00 -0.00    -0.270 N  
DOCKED: ATOM     14  C6  UNL     1       5.272  -0.018   3.311 +0.00 +0.00    +0.401 C  
DOCKED: ATOM     15  O1  UNL     1       6.130  -0.337   4.118 +0.00 -0.00    -0.226 OA 
DOCKED: ATOM     16  H11 UNL     1       4.500   1.325   2.049 +0.00 +0.00    +0.153 HD 
DOCKED: BRANCH  14  17
DOCKED: ATOM     17  O2  UNL     1       4.047  -0.571   3.174 +0.00 -0.00    -0.445 OA 
DOCKED: BRANCH  17  18
DOCKED: ATOM     18  C7  UNL     1       3.035  -0.398   4.194 +0.00 +0.00    +0.107 C  
DOCKED: ATOM     19  C8  UNL     1       3.571  -0.730   5.591 +0.00 +0.00    +0.055 C  
DOCKED: ATOM     20  C9  UNL     1       2.431   1.008   4.123 +0.00 +0.00    +0.055 C  
DOCKED: ATOM     21  C10 UNL     1       1.939  -1.418   3.843 +0.00 +0.00    +0.055 C  
DOCKED: ENDBRANCH  17  18
DOCKED: ENDBRANCH  14  17
DOCKED: ENDBRANCH  12  13
DOCKED: BRANCH  12  22
DOCKED: ATOM     22  C3  UNL     1       6.549   2.752   3.730 +0.00 +0.00    +0.015 C  
DOCKED: ATOM     23  C4  UNL     1       5.130   3.205   4.104 +0.00 +0.00    +0.010 C  
DOCKED: BRANCH  22  25
DOCKED: ATOM     24  C1  UNL     1       7.663   4.504   2.192 +0.00 +0.00    +0.004 C  
DOCKED: ATOM     25  C2  UNL     1       7.503   3.964   3.605 +0.00 +0.00    +0.002 C  
DOCKED: ENDBRANCH  22  25
DOCKED: ENDBRANCH  12  22
DOCKED: ENDBRANCH   8  12
DOCKED: ENDBRANCH   6  10
DOCKED: ENDBRANCH   2   6
DOCKED: ENDBRANCH   1   4
DOCKED: BRANCH   1  26
DOCKED: ATOM     26  C16 UNL     1       8.432  -2.656   5.398 +0.00 +0.00    +0.060 C  
DOCKED: BRANCH  26  27
DOCKED: ATOM     27  C17 UNL     1       8.127  -1.260   5.886 +0.00 -0.00    -0.046 A  
DOCKED: ATOM     28  C18 UNL     1       7.057  -1.033   6.764 +0.00 +0.00    +0.004 A  
DOCKED: ATOM     29  C19 UNL     1       6.747   0.257   7.193 +0.00 +0.00    +0.000 A  
DOCKED: ATOM     30  C20 UNL     1       7.514   1.338   6.760 +0.00 +0.00    +0.000 A  
DOCKED: ATOM     31  C21 UNL     1       8.596   1.128   5.908 +0.00 +0.00    +0.000 A  
DOCKED: ATOM     32  C22 UNL     1       8.909  -0.165   5.485 +0.00 +0.00    +0.004 A  
DOCKED: ENDBRANCH  26  27
DOCKED: ENDBRANCH   1  26
DOCKED: BRANCH   1  33
DOCKED: ATOM     33  C23 UNL     1       6.096  -3.591   4.597 +0.00 +0.00    +0.136 C  
DOCKED: BRANCH  33  34
DOCKED: ATOM     34  O5  UNL     1       5.183  -2.853   3.773 +0.00 -0.00    -0.390 OA 
DOCKED: ATOM     35  H36 UNL     1       5.670  -2.083   3.433 +0.00 +0.00    +0.210 HD 
DOCKED: ENDBRANCH  33  34
DOCKED: BRANCH  33  36
DOCKED: ATOM     36  C24 UNL     1       5.727  -5.080   4.481 +0.00 +0.00    +0.045 C  
DOCKED: BRANCH  36  37
DOCKED: ATOM     37  C25 UNL     1       6.667  -5.819   3.514 +0.00 +0.00    +0.074 C  
DOCKED: ATOM     38  C26 UNL     1       6.879  -7.268   3.949 +0.00 +0.00    +0.017 C  
DOCKED: BRANCH  37  39
DOCKED: ATOM     39  C27 UNL     1       6.099  -5.713   2.101 +0.00 +0.00    +0.217 C  
DOCKED: ATOM     40  O6  UNL     1       6.277  -6.592   1.264 +0.00 -0.00    -0.276 OA 
DOCKED: ATOM     41  N4  UNL     1       5.479  -4.532   1.797 +0.00 -0.00    -0.304 N  
DOCKED: ATOM     42  H43 UNL     1       5.487  -3.762   2.461 +0.00 +0.00    +0.149 HD 
DOCKED: BRANCH  41  43
DOCKED: ATOM     43  C28 UNL     1       4.991  -4.186   0.462 +0.00 +0.00    +0.161 C  
DOCKED: BRANCH  43  44
DOCKED: ATOM     44  C29 UNL     1       5.440  -2.718   0.270 +0.00 +0.00    +0.234 C  
DOCKED: ATOM     45  O7  UNL     1       5.797  -2.020   1.222 +0.00 -0.00    -0.274 OA 
DOCKED: ATOM     46  N5  UNL     1       5.411  -2.254  -1.025 +0.00 -0.00    -0.310 N  
DOCKED: ATOM     47  H45 UNL     1       5.029  -2.832  -1.759 +0.00 +0.00    +0.149 HD 
DOCKED: BRANCH  46  48
DOCKED: ATOM     48  C30 UNL     1       5.687  -0.869  -1.341 +0.00 +0.00    +0.139 C  
DOCKED: BRANCH  48  49
DOCKED: ATOM     49  C31 UNL     1       4.727   0.057  -0.647 +0.00 -0.00    -0.027 A  
DOCKED: ATOM     50  C32 UNL     1       3.553  -0.439  -0.062 +0.00 +0.00    +0.025 A  
DOCKED: ATOM     51  C33 UNL     1       2.681   0.449   0.545 +0.00 +0.00    +0.111 A  
DOCKED: ATOM     52  N6  UNL     1       2.898   1.783   0.616 +0.00 -0.00    -0.263 NA 
DOCKED: ATOM     53  C34 UNL     1       4.026   2.244   0.032 +0.00 +0.00    +0.111 A  
DOCKED: ATOM     54  C35 UNL     1       4.956   1.435  -0.604 +0.00 +0.00    +0.025 A  
DOCKED: ENDBRANCH  48  49
DOCKED: ENDBRANCH  46  48
DOCKED: ENDBRANCH  43  44
DOCKED: BRANCH  43  55
DOCKED: ATOM     55  C36 UNL     1       3.460  -4.363   0.352 +0.00 +0.00    +0.012 C  
DOCKED: ATOM     56  C37 UNL     1       3.030  -5.826   0.486 +0.00 +0.00    +0.009 C  
DOCKED: ATOM     57  C38 UNL     1       2.726  -3.536   1.417 +0.00 +0.00    +0.009 C  
DOCKED: ENDBRANCH  43  55
DOCKED: ENDBRANCH  41  43
DOCKED: ENDBRANCH  37  39
DOCKED: ENDBRANCH  36  37
DOCKED: ENDBRANCH  33  36
DOCKED: ENDBRANCH   1  33
DOCKED: TORSDOF 21
DOCKED: TER
DOCKED: ENDMDL
________________________________________________________________________________


    FINAL DOCKED STATE:
    ________________________


Run:   16 / 20
Time taken for this run:   1.471s

DOCKED: MODEL        16
DOCKED: USER    Run = 16
DOCKED: USER
DOCKED: USER    Estimated Free Energy of Binding    =  +6.26 kcal/mol  [=(1)+(2)+(3)-(4)]
DOCKED: USER
DOCKED: USER    (1) Final Intermolecular Energy     =  +0.00 kcal/mol
DOCKED: USER        vdW + Hbond + desolv Energy     =  +0.00 kcal/mol
DOCKED: USER        Electrostatic Energy            =  +0.00 kcal/mol
DOCKED: USER        Moving Ligand-Fixed Receptor    =  +0.00 kcal/mol
DOCKED: USER        Moving Ligand-Moving Receptor   =  +0.00 kcal/mol
DOCKED: USER    (2) Final Total Internal Energy     = -14.96 kcal/mol
DOCKED: USER    (3) Torsional Free Energy           =  +6.26 kcal/mol
DOCKED: USER    (4) Unbound System's Energy         = -14.96 kcal/mol
DOCKED: USER
DOCKED: USER
DOCKED: REMARK  Name = ligands/ligand_12.pdb
DOCKED: REMARK  30 active torsions:
DOCKED: REMARK  status: ('A' for Active; 'I' for Inactive)
DOCKED: REMARK    1  A    between atoms: C1_1  and  C2_2
DOCKED: REMARK    2  A    between atoms: C2_2  and  C3_3
DOCKED: REMARK    3  A    between atoms: C3_3  and  C4_4
DOCKED: REMARK    4  A    between atoms: C3_3  and  C5_5
DOCKED: REMARK    5  A    between atoms: C5_5  and  N1_6
DOCKED: REMARK    6  A    between atoms: C5_5  and  C11_14
DOCKED: REMARK    7  A    between atoms: C6_7  and  O2_9
DOCKED: REMARK    8  A    between atoms: O2_9  and  C7_10
DOCKED: REMARK    9  A    between atoms: C7_10  and  C8_11
DOCKED: REMARK   10  A    between atoms: C7_10  and  C9_12
DOCKED: REMARK   11  A    between atoms: C7_10  and  C10_13
DOCKED: REMARK   12  A    between atoms: N2_16  and  C12_17
DOCKED: REMARK   13  A    between atoms: C12_17  and  C13_18
DOCKED: REMARK   14  A    between atoms: C12_17  and  C14_19
DOCKED: REMARK   15  A    between atoms: N3_21  and  C15_22
DOCKED: REMARK   16  A    between atoms: C15_22  and  C16_23
DOCKED: REMARK   17  A    between atoms: C15_22  and  C23_30
DOCKED: REMARK   18  A    between atoms: C16_23  and  C17_24
DOCKED: REMARK   19  A    between atoms: C23_30  and  O5_31
DOCKED: REMARK   20  A    between atoms: C23_30  and  C24_32
DOCKED: REMARK   21  A    between atoms: C24_32  and  C25_33
DOCKED: REMARK   22  A    between atoms: C25_33  and  C26_34
DOCKED: REMARK   23  A    between atoms: C25_33  and  C27_35
DOCKED: REMARK   24  A    between atoms: N4_37  and  C28_38
DOCKED: REMARK   25  A    between atoms: C28_38  and  C29_39
DOCKED: REMARK   26  A    between atoms: C28_38  and  C36_49
DOCKED: REMARK   27  A    between atoms: N5_41  and  C30_42
DOCKED: REMARK   28  A    between atoms: C30_42  and  C31_43
DOCKED: REMARK   29  A    between atoms: C36_49  and  C37_50
DOCKED: REMARK   30  A    between atoms: C36_49  and  C38_51
DOCKED: REMARK                            x       y       z     vdW  Elec       q    Type
DOCKED: REMARK                         _______ _______ _______ _____ _____    ______ ____
DOCKED: USER                              x       y       z     vdW  Elec       q    Type
DOCKED: USER                           _______ _______ _______ _____ _____    ______ ____
DOCKED: ROOT
DOCKED: ATOM      1  C15 UNL     1      13.830  -4.539  -1.585 +0.00 +0.00    +0.106 C  
DOCKED: ENDROOT
DOCKED: BRANCH   1   4
DOCKED: ATOM      2  C14 UNL     1      11.666  -5.341  -2.515 +0.00 +0.00    +0.233 C  
DOCKED: ATOM      3  O4  UNL     1      12.037  -5.189  -3.679 +0.00 -0.00    -0.274 OA 
DOCKED: ATOM      4  N3  UNL     1      12.482  -5.090  -1.435 +0.00 -0.00    -0.308 N  
DOCKED: ATOM      5  H26 UNL     1      12.055  -5.030  -0.514 +0.00 +0.00    +0.149 HD 
DOCKED: BRANCH   2   6
DOCKED: ATOM      6  C12 UNL     1      10.248  -5.827  -2.154 +0.00 +0.00    +0.156 C  
DOCKED: ATOM      7  C13 UNL     1       9.265  -5.556  -3.287 +0.00 +0.00    +0.038 C  
DOCKED: BRANCH   6  10
DOCKED: ATOM      8  C11 UNL     1       9.348  -3.862  -0.917 +0.00 +0.00    +0.234 C  
DOCKED: ATOM      9  O3  UNL     1       9.195  -3.194  -1.938 +0.00 -0.00    -0.274 OA 
DOCKED: ATOM     10  N2  UNL     1       9.854  -5.142  -0.931 +0.00 -0.00    -0.303 N  
DOCKED: ATOM     11  H21 UNL     1       9.910  -5.686  -0.076 +0.00 +0.00    +0.149 HD 
DOCKED: BRANCH   8  12
DOCKED: ATOM     12  C5  UNL     1       8.942  -3.369   0.495 +0.00 +0.00    +0.165 C  
DOCKED: BRANCH  12  13
DOCKED: ATOM     13  N1  UNL     1       9.874  -3.980   1.431 +0.00 -0.00    -0.270 N  
DOCKED: ATOM     14  C6  UNL     1      11.216  -3.751   1.360 +0.00 +0.00    +0.401 C  
DOCKED: ATOM     15  O1  UNL     1      11.771  -3.127   0.469 +0.00 -0.00    -0.226 OA 
DOCKED: ATOM     16  H11 UNL     1       9.552  -4.226   2.358 +0.00 +0.00    +0.153 HD 
DOCKED: BRANCH  14  17
DOCKED: ATOM     17  O2  UNL     1      11.799  -4.295   2.450 +0.00 -0.00    -0.445 OA 
DOCKED: BRANCH  17  18
DOCKED: ATOM     18  C7  UNL     1      12.436  -3.461   3.447 +0.00 +0.00    +0.107 C  
DOCKED: ATOM     19  C8  UNL     1      13.639  -2.706   2.873 +0.00 +0.00    +0.055 C  
DOCKED: ATOM     20  C9  UNL     1      11.416  -2.522   4.096 +0.00 +0.00    +0.055 C  
DOCKED: ATOM     21  C10 UNL     1      12.947  -4.441   4.516 +0.00 +0.00    +0.055 C  
DOCKED: ENDBRANCH  17  18
DOCKED: ENDBRANCH  14  17
DOCKED: ENDBRANCH  12  13
DOCKED: BRANCH  12  22
DOCKED: ATOM     22  C3  UNL     1       8.982  -1.819   0.599 +0.00 +0.00    +0.015 C  
DOCKED: ATOM     23  C4  UNL     1       8.972  -1.379   2.071 +0.00 +0.00    +0.010 C  
DOCKED: BRANCH  22  25
DOCKED: ATOM     24  C1  UNL     1       6.558  -2.016  -0.272 +0.00 +0.00    +0.004 C  
DOCKED: ATOM     25  C2  UNL     1       7.817  -1.166  -0.181 +0.00 +0.00    +0.002 C  
DOCKED: ENDBRANCH  22  25
DOCKED: ENDBRANCH  12  22
DOCKED: ENDBRANCH   8  12
DOCKED: ENDBRANCH   6  10
DOCKED: ENDBRANCH   2   6
DOCKED: ENDBRANCH   1   4
DOCKED: BRANCH   1  26
DOCKED: ATOM     26  C16 UNL     1      13.872  -3.207  -2.379 +0.00 +0.00    +0.060 C  
DOCKED: BRANCH  26  27
DOCKED: ATOM     27  C17 UNL     1      13.097  -2.043  -1.809 +0.00 -0.00    -0.046 A  
DOCKED: ATOM     28  C18 UNL     1      13.634  -1.276  -0.765 +0.00 +0.00    +0.004 A  
DOCKED: ATOM     29  C19 UNL     1      12.912  -0.220  -0.210 +0.00 +0.00    +0.000 A  
DOCKED: ATOM     30  C20 UNL     1      11.645   0.091  -0.702 +0.00 +0.00    +0.000 A  
DOCKED: ATOM     31  C21 UNL     1      11.106  -0.645  -1.756 +0.00 +0.00    +0.000 A  
DOCKED: ATOM     32  C22 UNL     1      11.834  -1.696  -2.315 +0.00 +0.00    +0.004 A  
DOCKED: ENDBRANCH  26  27
DOCKED: ENDBRANCH   1  26
DOCKED: BRANCH   1  33
DOCKED: ATOM     33  C23 UNL     1      14.604  -4.568  -0.238 +0.00 +0.00    +0.136 C  
DOCKED: BRANCH  33  34
DOCKED: ATOM     34  O5  UNL     1      13.729  -4.985   0.819 +0.00 -0.00    -0.390 OA 
DOCKED: ATOM     35  H36 UNL     1      12.822  -4.784   0.529 +0.00 +0.00    +0.210 HD 
DOCKED: ENDBRANCH  33  34
DOCKED: BRANCH  33  36
DOCKED: ATOM     36  C24 UNL     1      15.858  -5.460  -0.181 +0.00 +0.00    +0.045 C  
DOCKED: BRANCH  36  37
DOCKED: ATOM     37  C25 UNL     1      15.752  -6.641  -1.160 +0.00 +0.00    +0.074 C  
DOCKED: ATOM     38  C26 UNL     1      17.129  -7.055  -1.677 +0.00 +0.00    +0.017 C  
DOCKED: BRANCH  37  39
DOCKED: ATOM     39  C27 UNL     1      15.021  -7.789  -0.468 +0.00 +0.00    +0.217 C  
DOCKED: ATOM     40  O6  UNL     1      15.365  -8.958  -0.615 +0.00 -0.00    -0.276 OA 
DOCKED: ATOM     41  N4  UNL     1      13.897  -7.442   0.230 +0.00 -0.00    -0.304 N  
DOCKED: ATOM     42  H43 UNL     1      13.548  -6.487   0.201 +0.00 +0.00    +0.149 HD 
DOCKED: BRANCH  41  43
DOCKED: ATOM     43  C28 UNL     1      12.989  -8.408   0.848 +0.00 +0.00    +0.161 C  
DOCKED: BRANCH  43  44
DOCKED: ATOM     44  C29 UNL     1      11.597  -7.744   0.723 +0.00 +0.00    +0.234 C  
DOCKED: ATOM     45  O7  UNL     1      11.473  -6.534   0.517 +0.00 -0.00    -0.274 OA 
DOCKED: ATOM     46  N5  UNL     1      10.522  -8.591   0.858 +0.00 -0.00    -0.310 N  
DOCKED: ATOM     47  H45 UNL     1      10.670  -9.557   1.112 +0.00 +0.00    +0.149 HD 
DOCKED: BRANCH  46  48
DOCKED: ATOM     48  C30 UNL     1       9.163  -8.094   0.884 +0.00 +0.00    +0.139 C  
DOCKED: BRANCH  48  49
DOCKED: ATOM     49  C31 UNL     1       8.960  -7.104   1.998 +0.00 -0.00    -0.027 A  
DOCKED: ATOM     50  C32 UNL     1       7.843  -6.255   2.004 +0.00 +0.00    +0.025 A  
DOCKED: ATOM     51  C33 UNL     1       7.705  -5.340   3.033 +0.00 +0.00    +0.111 A  
DOCKED: ATOM     52  N6  UNL     1       8.589  -5.216   4.051 +0.00 -0.00    -0.263 NA 
DOCKED: ATOM     53  C34 UNL     1       9.666  -6.031   4.018 +0.00 +0.00    +0.111 A  
DOCKED: ATOM     54  C35 UNL     1       9.894  -6.975   3.028 +0.00 +0.00    +0.025 A  
DOCKED: ENDBRANCH  48  49
DOCKED: ENDBRANCH  46  48
DOCKED: ENDBRANCH  43  44
DOCKED: BRANCH  43  55
DOCKED: ATOM     55  C36 UNL     1      13.382  -8.704   2.312 +0.00 +0.00    +0.012 C  
DOCKED: ATOM     56  C37 UNL     1      13.332  -7.453   3.194 +0.00 +0.00    +0.009 C  
DOCKED: ATOM     57  C38 UNL     1      12.470  -9.774   2.928 +0.00 +0.00    +0.009 C  
DOCKED: ENDBRANCH  43  55
DOCKED: ENDBRANCH  41  43
DOCKED: ENDBRANCH  37  39
DOCKED: ENDBRANCH  36  37
DOCKED: ENDBRANCH  33  36
DOCKED: ENDBRANCH   1  33
DOCKED: TORSDOF 21
DOCKED: TER
DOCKED: ENDMDL
________________________________________________________________________________


    FINAL DOCKED STATE:
    ________________________


Run:   17 / 20
Time taken for this run:   1.471s

DOCKED: MODEL        17
DOCKED: USER    Run = 17
DOCKED: USER
DOCKED: USER    Estimated Free Energy of Binding    =  +6.26 kcal/mol  [=(1)+(2)+(3)-(4)]
DOCKED: USER
DOCKED: USER    (1) Final Intermolecular Energy     =  +0.00 kcal/mol
DOCKED: USER        vdW + Hbond + desolv Energy     =  +0.00 kcal/mol
DOCKED: USER        Electrostatic Energy            =  +0.00 kcal/mol
DOCKED: USER        Moving Ligand-Fixed Receptor    =  +0.00 kcal/mol
DOCKED: USER        Moving Ligand-Moving Receptor   =  +0.00 kcal/mol
DOCKED: USER    (2) Final Total Internal Energy     = -14.69 kcal/mol
DOCKED: USER    (3) Torsional Free Energy           =  +6.26 kcal/mol
DOCKED: USER    (4) Unbound System's Energy         = -14.69 kcal/mol
DOCKED: USER
DOCKED: USER
DOCKED: REMARK  Name = ligands/ligand_12.pdb
DOCKED: REMARK  30 active torsions:
DOCKED: REMARK  status: ('A' for Active; 'I' for Inactive)
DOCKED: REMARK    1  A    between atoms: C1_1  and  C2_2
DOCKED: REMARK    2  A    between atoms: C2_2  and  C3_3
DOCKED: REMARK    3  A    between atoms: C3_3  and  C4_4
DOCKED: REMARK    4  A    between atoms: C3_3  and  C5_5
DOCKED: REMARK    5  A    between atoms: C5_5  and  N1_6
DOCKED: REMARK    6  A    between atoms: C5_5  and  C11_14
DOCKED: REMARK    7  A    between atoms: C6_7  and  O2_9
DOCKED: REMARK    8  A    between atoms: O2_9  and  C7_10
DOCKED: REMARK    9  A    between atoms: C7_10  and  C8_11
DOCKED: REMARK   10  A    between atoms: C7_10  and  C9_12
DOCKED: REMARK   11  A    between atoms: C7_10  and  C10_13
DOCKED: REMARK   12  A    between atoms: N2_16  and  C12_17
DOCKED: REMARK   13  A    between atoms: C12_17  and  C13_18
DOCKED: REMARK   14  A    between atoms: C12_17  and  C14_19
DOCKED: REMARK   15  A    between atoms: N3_21  and  C15_22
DOCKED: REMARK   16  A    between atoms: C15_22  and  C16_23
DOCKED: REMARK   17  A    between atoms: C15_22  and  C23_30
DOCKED: REMARK   18  A    between atoms: C16_23  and  C17_24
DOCKED: REMARK   19  A    between atoms: C23_30  and  O5_31
DOCKED: REMARK   20  A    between atoms: C23_30  and  C24_32
DOCKED: REMARK   21  A    between atoms: C24_32  and  C25_33
DOCKED: REMARK   22  A    between atoms: C25_33  and  C26_34
DOCKED: REMARK   23  A    between atoms: C25_33  and  C27_35
DOCKED: REMARK   24  A    between atoms: N4_37  and  C28_38
DOCKED: REMARK   25  A    between atoms: C28_38  and  C29_39
DOCKED: REMARK   26  A    between atoms: C28_38  and  C36_49
DOCKED: REMARK   27  A    between atoms: N5_41  and  C30_42
DOCKED: REMARK   28  A    between atoms: C30_42  and  C31_43
DOCKED: REMARK   29  A    between atoms: C36_49  and  C37_50
DOCKED: REMARK   30  A    between atoms: C36_49  and  C38_51
DOCKED: REMARK                            x       y       z     vdW  Elec       q    Type
DOCKED: REMARK                         _______ _______ _______ _____ _____    ______ ____
DOCKED: USER                              x       y       z     vdW  Elec       q    Type
DOCKED: USER                           _______ _______ _______ _____ _____    ______ ____
DOCKED: ROOT
DOCKED: ATOM      1  C15 UNL     1      11.837  -0.096  -2.161 +0.00 +0.00    +0.106 C  
DOCKED: ENDROOT
DOCKED: BRANCH   1   4
DOCKED: ATOM      2  C14 UNL     1      12.715  -2.284  -1.363 +0.00 +0.00    +0.233 C  
DOCKED: ATOM      3  O4  UNL     1      13.576  -1.754  -0.660 +0.00 -0.00    -0.274 OA 
DOCKED: ATOM      4  N3  UNL     1      11.801  -1.559  -2.094 +0.00 -0.00    -0.308 N  
DOCKED: ATOM      5  H26 UNL     1      11.263  -2.044  -2.808 +0.00 +0.00    +0.149 HD 
DOCKED: BRANCH   2   6
DOCKED: ATOM      6  C12 UNL     1      12.577  -3.814  -1.493 +0.00 +0.00    +0.156 C  
DOCKED: ATOM      7  C13 UNL     1      13.877  -4.447  -1.975 +0.00 +0.00    +0.038 C  
DOCKED: BRANCH   6  10
DOCKED: ATOM      8  C11 UNL     1      10.706  -5.208  -2.365 +0.00 +0.00    +0.234 C  
DOCKED: ATOM      9  O3  UNL     1      10.883  -6.099  -1.536 +0.00 -0.00    -0.274 OA 
DOCKED: ATOM     10  N2  UNL     1      11.482  -4.073  -2.418 +0.00 -0.00    -0.303 N  
DOCKED: ATOM     11  H21 UNL     1      11.270  -3.330  -3.076 +0.00 +0.00    +0.149 HD 
DOCKED: BRANCH   8  12
DOCKED: ATOM     12  C5  UNL     1       9.563  -5.230  -3.410 +0.00 +0.00    +0.165 C  
DOCKED: BRANCH  12  13
DOCKED: ATOM     13  N1  UNL     1      10.196  -5.124  -4.717 +0.00 -0.00    -0.270 N  
DOCKED: ATOM     14  C6  UNL     1      10.649  -3.932  -5.200 +0.00 +0.00    +0.401 C  
DOCKED: ATOM     15  O1  UNL     1      10.477  -2.850  -4.662 +0.00 -0.00    -0.226 OA 
DOCKED: ATOM     16  H11 UNL     1      10.678  -5.928  -5.099 +0.00 +0.00    +0.153 HD 
DOCKED: BRANCH  14  17
DOCKED: ATOM     17  O2  UNL     1      11.340  -4.169  -6.337 +0.00 -0.00    -0.445 OA 
DOCKED: BRANCH  17  18
DOCKED: ATOM     18  C7  UNL     1      12.736  -4.550  -6.293 +0.00 +0.00    +0.107 C  
DOCKED: ATOM     19  C8  UNL     1      12.909  -6.045  -6.006 +0.00 +0.00    +0.055 C  
DOCKED: ATOM     20  C9  UNL     1      13.453  -4.117  -7.574 +0.00 +0.00    +0.055 C  
DOCKED: ATOM     21  C10 UNL     1      13.326  -3.760  -5.113 +0.00 +0.00    +0.055 C  
DOCKED: ENDBRANCH  17  18
DOCKED: ENDBRANCH  14  17
DOCKED: ENDBRANCH  12  13
DOCKED: BRANCH  12  22
DOCKED: ATOM     22  C3  UNL     1       8.710  -6.525  -3.307 +0.00 +0.00    +0.015 C  
DOCKED: ATOM     23  C4  UNL     1       9.366  -7.665  -4.099 +0.00 +0.00    +0.010 C  
DOCKED: BRANCH  22  25
DOCKED: ATOM     24  C1  UNL     1       7.128  -5.439  -5.036 +0.00 +0.00    +0.004 C  
DOCKED: ATOM     25  C2  UNL     1       7.257  -6.287  -3.780 +0.00 +0.00    +0.002 C  
DOCKED: ENDBRANCH  22  25
DOCKED: ENDBRANCH  12  22
DOCKED: ENDBRANCH   8  12
DOCKED: ENDBRANCH   6  10
DOCKED: ENDBRANCH   2   6
DOCKED: ENDBRANCH   1   4
DOCKED: BRANCH   1  26
DOCKED: ATOM     26  C16 UNL     1      13.145   0.465  -2.776 +0.00 +0.00    +0.060 C  
DOCKED: BRANCH  26  27
DOCKED: ATOM     27  C17 UNL     1      13.538  -0.048  -4.141 +0.00 -0.00    -0.046 A  
DOCKED: ATOM     28  C18 UNL     1      14.831  -0.543  -4.367 +0.00 +0.00    +0.004 A  
DOCKED: ATOM     29  C19 UNL     1      15.213  -0.988  -5.633 +0.00 +0.00    +0.000 A  
DOCKED: ATOM     30  C20 UNL     1      14.301  -0.955  -6.687 +0.00 +0.00    +0.000 A  
DOCKED: ATOM     31  C21 UNL     1      13.005  -0.490  -6.473 +0.00 +0.00    +0.000 A  
DOCKED: ATOM     32  C22 UNL     1      12.622  -0.052  -5.205 +0.00 +0.00    +0.004 A  
DOCKED: ENDBRANCH  26  27
DOCKED: ENDBRANCH   1  26
DOCKED: BRANCH   1  33
DOCKED: ATOM     33  C23 UNL     1      10.505   0.475  -2.723 +0.00 +0.00    +0.136 C  
DOCKED: BRANCH  33  34
DOCKED: ATOM     34  O5  UNL     1      10.037  -0.349  -3.799 +0.00 -0.00    -0.390 OA 
DOCKED: ATOM     35  H36 UNL     1      10.181  -1.272  -3.530 +0.00 +0.00    +0.210 HD 
DOCKED: ENDBRANCH  33  34
DOCKED: BRANCH  33  36
DOCKED: ATOM     36  C24 UNL     1       9.346   0.636  -1.723 +0.00 +0.00    +0.045 C  
DOCKED: BRANCH  36  37
DOCKED: ATOM     37  C25 UNL     1       9.171  -0.624  -0.859 +0.00 +0.00    +0.074 C  
DOCKED: ATOM     38  C26 UNL     1       8.269  -0.348   0.343 +0.00 +0.00    +0.017 C  
DOCKED: BRANCH  37  39
DOCKED: ATOM     39  C27 UNL     1       8.640  -1.752  -1.738 +0.00 +0.00    +0.217 C  
DOCKED: ATOM     40  O6  UNL     1       9.391  -2.515  -2.339 +0.00 -0.00    -0.276 OA 
DOCKED: ATOM     41  N4  UNL     1       7.281  -1.788  -1.902 +0.00 -0.00    -0.304 N  
DOCKED: ATOM     42  H43 UNL     1       6.698  -1.048  -1.520 +0.00 +0.00    +0.149 HD 
DOCKED: BRANCH  41  43
DOCKED: ATOM     43  C28 UNL     1       6.593  -2.706  -2.809 +0.00 +0.00    +0.161 C  
DOCKED: BRANCH  43  44
DOCKED: ATOM     44  C29 UNL     1       6.529  -1.930  -4.146 +0.00 +0.00    +0.234 C  
DOCKED: ATOM     45  O7  UNL     1       5.454  -1.663  -4.689 +0.00 -0.00    -0.274 OA 
DOCKED: ATOM     46  N5  UNL     1       7.744  -1.565  -4.678 +0.00 -0.00    -0.310 N  
DOCKED: ATOM     47  H45 UNL     1       8.599  -1.881  -4.244 +0.00 +0.00    +0.149 HD 
DOCKED: BRANCH  46  48
DOCKED: ATOM     48  C30 UNL     1       7.845  -0.942  -5.981 +0.00 +0.00    +0.139 C  
DOCKED: BRANCH  48  49
DOCKED: ATOM     49  C31 UNL     1       8.602  -1.809  -6.949 +0.00 -0.00    -0.027 A  
DOCKED: ATOM     50  C32 UNL     1       9.795  -1.357  -7.531 +0.00 +0.00    +0.025 A  
DOCKED: ATOM     51  C33 UNL     1      10.449  -2.174  -8.437 +0.00 +0.00    +0.111 A  
DOCKED: ATOM     52  N6  UNL     1      10.005  -3.402  -8.796 +0.00 -0.00    -0.263 NA 
DOCKED: ATOM     53  C34 UNL     1       8.847  -3.813  -8.237 +0.00 +0.00    +0.111 A  
DOCKED: ATOM     54  C35 UNL     1       8.117  -3.065  -7.325 +0.00 +0.00    +0.025 A  
DOCKED: ENDBRANCH  48  49
DOCKED: ENDBRANCH  46  48
DOCKED: ENDBRANCH  43  44
DOCKED: BRANCH  43  55
DOCKED: ATOM     55  C36 UNL     1       5.196  -3.094  -2.275 +0.00 +0.00    +0.012 C  
DOCKED: ATOM     56  C37 UNL     1       4.510  -4.149  -3.147 +0.00 +0.00    +0.009 C  
DOCKED: ATOM     57  C38 UNL     1       5.277  -3.624  -0.837 +0.00 +0.00    +0.009 C  
DOCKED: ENDBRANCH  43  55
DOCKED: ENDBRANCH  41  43
DOCKED: ENDBRANCH  37  39
DOCKED: ENDBRANCH  36  37
DOCKED: ENDBRANCH  33  36
DOCKED: ENDBRANCH   1  33
DOCKED: TORSDOF 21
DOCKED: TER
DOCKED: ENDMDL
________________________________________________________________________________


    FINAL DOCKED STATE:
    ________________________


Run:   18 / 20
Time taken for this run:   1.471s

DOCKED: MODEL        18
DOCKED: USER    Run = 18
DOCKED: USER
DOCKED: USER    Estimated Free Energy of Binding    =  +6.26 kcal/mol  [=(1)+(2)+(3)-(4)]
DOCKED: USER
DOCKED: USER    (1) Final Intermolecular Energy     =  +0.00 kcal/mol
DOCKED: USER        vdW + Hbond + desolv Energy     =  +0.00 kcal/mol
DOCKED: USER        Electrostatic Energy            =  +0.00 kcal/mol
DOCKED: USER        Moving Ligand-Fixed Receptor    =  +0.00 kcal/mol
DOCKED: USER        Moving Ligand-Moving Receptor   =  +0.00 kcal/mol
DOCKED: USER    (2) Final Total Internal Energy     = -14.96 kcal/mol
DOCKED: USER    (3) Torsional Free Energy           =  +6.26 kcal/mol
DOCKED: USER    (4) Unbound System's Energy         = -14.96 kcal/mol
DOCKED: USER
DOCKED: USER
DOCKED: REMARK  Name = ligands/ligand_12.pdb
DOCKED: REMARK  30 active torsions:
DOCKED: REMARK  status: ('A' for Active; 'I' for Inactive)
DOCKED: REMARK    1  A    between atoms: C1_1  and  C2_2
DOCKED: REMARK    2  A    between atoms: C2_2  and  C3_3
DOCKED: REMARK    3  A    between atoms: C3_3  and  C4_4
DOCKED: REMARK    4  A    between atoms: C3_3  and  C5_5
DOCKED: REMARK    5  A    between atoms: C5_5  and  N1_6
DOCKED: REMARK    6  A    between atoms: C5_5  and  C11_14
DOCKED: REMARK    7  A    between atoms: C6_7  and  O2_9
DOCKED: REMARK    8  A    between atoms: O2_9  and  C7_10
DOCKED: REMARK    9  A    between atoms: C7_10  and  C8_11
DOCKED: REMARK   10  A    between atoms: C7_10  and  C9_12
DOCKED: REMARK   11  A    between atoms: C7_10  and  C10_13
DOCKED: REMARK   12  A    between atoms: N2_16  and  C12_17
DOCKED: REMARK   13  A    between atoms: C12_17  and  C13_18
DOCKED: REMARK   14  A    between atoms: C12_17  and  C14_19
DOCKED: REMARK   15  A    between atoms: N3_21  and  C15_22
DOCKED: REMARK   16  A    between atoms: C15_22  and  C16_23
DOCKED: REMARK   17  A    between atoms: C15_22  and  C23_30
DOCKED: REMARK   18  A    between atoms: C16_23  and  C17_24
DOCKED: REMARK   19  A    between atoms: C23_30  and  O5_31
DOCKED: REMARK   20  A    between atoms: C23_30  and  C24_32
DOCKED: REMARK   21  A    between atoms: C24_32  and  C25_33
DOCKED: REMARK   22  A    between atoms: C25_33  and  C26_34
DOCKED: REMARK   23  A    between atoms: C25_33  and  C27_35
DOCKED: REMARK   24  A    between atoms: N4_37  and  C28_38
DOCKED: REMARK   25  A    between atoms: C28_38  and  C29_39
DOCKED: REMARK   26  A    between atoms: C28_38  and  C36_49
DOCKED: REMARK   27  A    between atoms: N5_41  and  C30_42
DOCKED: REMARK   28  A    between atoms: C30_42  and  C31_43
DOCKED: REMARK   29  A    between atoms: C36_49  and  C37_50
DOCKED: REMARK   30  A    between atoms: C36_49  and  C38_51
DOCKED: REMARK                            x       y       z     vdW  Elec       q    Type
DOCKED: REMARK                         _______ _______ _______ _____ _____    ______ ____
DOCKED: USER                              x       y       z     vdW  Elec       q    Type
DOCKED: USER                           _______ _______ _______ _____ _____    ______ ____
DOCKED: ROOT
DOCKED: ATOM      1  C15 UNL     1       7.421  -5.642  -6.038 +0.00 +0.00    +0.106 C  
DOCKED: ENDROOT
DOCKED: BRANCH   1   4
DOCKED: ATOM      2  C14 UNL     1       7.575  -7.068  -4.003 +0.00 +0.00    +0.233 C  
DOCKED: ATOM      3  O4  UNL     1       6.542  -7.680  -4.276 +0.00 -0.00    -0.274 OA 
DOCKED: ATOM      4  N3  UNL     1       8.099  -6.091  -4.819 +0.00 -0.00    -0.308 N  
DOCKED: ATOM      5  H26 UNL     1       8.822  -5.485  -4.441 +0.00 +0.00    +0.149 HD 
DOCKED: BRANCH   2   6
DOCKED: ATOM      6  C12 UNL     1       8.382  -7.336  -2.717 +0.00 +0.00    +0.156 C  
DOCKED: ATOM      7  C13 UNL     1       7.589  -8.192  -1.737 +0.00 +0.00    +0.038 C  
DOCKED: BRANCH   6  10
DOCKED: ATOM      8  C11 UNL     1       7.805  -5.244  -1.494 +0.00 +0.00    +0.234 C  
DOCKED: ATOM      9  O3  UNL     1       6.625  -5.560  -1.358 +0.00 -0.00    -0.274 OA 
DOCKED: ATOM     10  N2  UNL     1       8.721  -6.041  -2.142 +0.00 -0.00    -0.303 N  
DOCKED: ATOM     11  H21 UNL     1       9.700  -5.777  -2.183 +0.00 +0.00    +0.149 HD 
DOCKED: BRANCH   8  12
DOCKED: ATOM     12  C5  UNL     1       8.414  -3.944  -0.912 +0.00 +0.00    +0.165 C  
DOCKED: BRANCH  12  13
DOCKED: ATOM     13  N1  UNL     1       8.312  -2.935  -1.957 +0.00 -0.00    -0.270 N  
DOCKED: ATOM     14  C6  UNL     1       8.918  -3.093  -3.168 +0.00 +0.00    +0.401 C  
DOCKED: ATOM     15  O1  UNL     1       9.675  -4.006  -3.455 +0.00 -0.00    -0.226 OA 
DOCKED: ATOM     16  H11 UNL     1       7.499  -2.333  -1.984 +0.00 +0.00    +0.153 HD 
DOCKED: BRANCH  14  17
DOCKED: ATOM     17  O2  UNL     1       8.504  -2.099  -3.983 +0.00 -0.00    -0.445 OA 
DOCKED: BRANCH  17  18
DOCKED: ATOM     18  C7  UNL     1       9.151  -0.804  -3.964 +0.00 +0.00    +0.107 C  
DOCKED: ATOM     19  C8  UNL     1       8.419   0.184  -3.050 +0.00 +0.00    +0.055 C  
DOCKED: ATOM     20  C9  UNL     1      10.631  -0.945  -3.601 +0.00 +0.00    +0.055 C  
DOCKED: ATOM     21  C10 UNL     1       9.050  -0.289  -5.410 +0.00 +0.00    +0.055 C  
DOCKED: ENDBRANCH  17  18
DOCKED: ENDBRANCH  14  17
DOCKED: ENDBRANCH  12  13
DOCKED: BRANCH  12  22
DOCKED: ATOM     22  C3  UNL     1       7.676  -3.488   0.378 +0.00 +0.00    +0.015 C  
DOCKED: ATOM     23  C4  UNL     1       7.467  -4.677   1.326 +0.00 +0.00    +0.010 C  
DOCKED: BRANCH  22  25
DOCKED: ATOM     24  C1  UNL     1       6.396  -1.278  -0.011 +0.00 +0.00    +0.004 C  
DOCKED: ATOM     25  C2  UNL     1       6.332  -2.797   0.050 +0.00 +0.00    +0.002 C  
DOCKED: ENDBRANCH  22  25
DOCKED: ENDBRANCH  12  22
DOCKED: ENDBRANCH   8  12
DOCKED: ENDBRANCH   6  10
DOCKED: ENDBRANCH   2   6
DOCKED: ENDBRANCH   1   4
DOCKED: BRANCH   1  26
DOCKED: ATOM     26  C16 UNL     1       5.951  -5.207  -5.806 +0.00 +0.00    +0.060 C  
DOCKED: BRANCH  26  27
DOCKED: ATOM     27  C17 UNL     1       5.725  -3.948  -5.003 +0.00 -0.00    -0.046 A  
DOCKED: ATOM     28  C18 UNL     1       5.318  -4.025  -3.663 +0.00 +0.00    +0.004 A  
DOCKED: ATOM     29  C19 UNL     1       5.075  -2.868  -2.923 +0.00 +0.00    +0.000 A  
DOCKED: ATOM     30  C20 UNL     1       5.250  -1.616  -3.512 +0.00 +0.00    +0.000 A  
DOCKED: ATOM     31  C21 UNL     1       5.679  -1.522  -4.835 +0.00 +0.00    +0.000 A  
DOCKED: ATOM     32  C22 UNL     1       5.928  -2.680  -5.571 +0.00 +0.00    +0.004 A  
DOCKED: ENDBRANCH  26  27
DOCKED: ENDBRANCH   1  26
DOCKED: BRANCH   1  33
DOCKED: ATOM     33  C23 UNL     1       8.313  -4.666  -6.853 +0.00 +0.00    +0.136 C  
DOCKED: BRANCH  33  34
DOCKED: ATOM     34  O5  UNL     1       9.121  -3.884  -5.962 +0.00 -0.00    -0.390 OA 
DOCKED: ATOM     35  H36 UNL     1       8.539  -3.588  -5.241 +0.00 +0.00    +0.210 HD 
DOCKED: ENDBRANCH  33  34
DOCKED: BRANCH  33  36
DOCKED: ATOM     36  C24 UNL     1       9.251  -5.296  -7.898 +0.00 +0.00    +0.045 C  
DOCKED: BRANCH  36  37
DOCKED: ATOM     37  C25 UNL     1      10.012  -6.499  -7.317 +0.00 +0.00    +0.074 C  
DOCKED: ATOM     38  C26 UNL     1      10.194  -7.596  -8.365 +0.00 +0.00    +0.017 C  
DOCKED: BRANCH  37  39
DOCKED: ATOM     39  C27 UNL     1      11.342  -6.012  -6.748 +0.00 +0.00    +0.217 C  
DOCKED: ATOM     40  O6  UNL     1      12.410  -6.251  -7.302 +0.00 -0.00    -0.276 OA 
DOCKED: ATOM     41  N4  UNL     1      11.275  -5.393  -5.529 +0.00 -0.00    -0.304 N  
DOCKED: ATOM     42  H43 UNL     1      10.395  -5.351  -5.022 +0.00 +0.00    +0.149 HD 
DOCKED: BRANCH  41  43
DOCKED: ATOM     43  C28 UNL     1      12.447  -4.977  -4.760 +0.00 +0.00    +0.161 C  
DOCKED: BRANCH  43  44
DOCKED: ATOM     44  C29 UNL     1      12.131  -5.441  -3.318 +0.00 +0.00    +0.234 C  
DOCKED: ATOM     45  O7  UNL     1      11.152  -6.148  -3.066 +0.00 -0.00    -0.274 OA 
DOCKED: ATOM     46  N5  UNL     1      13.009  -5.010  -2.351 +0.00 -0.00    -0.310 N  
DOCKED: ATOM     47  H45 UNL     1      13.745  -4.362  -2.591 +0.00 +0.00    +0.149 HD 
DOCKED: BRANCH  46  48
DOCKED: ATOM     48  C30 UNL     1      12.774  -5.264  -0.945 +0.00 +0.00    +0.139 C  
DOCKED: BRANCH  48  49
DOCKED: ATOM     49  C31 UNL     1      11.988  -4.152  -0.308 +0.00 -0.00    -0.027 A  
DOCKED: ATOM     50  C32 UNL     1      11.789  -2.939  -0.985 +0.00 +0.00    +0.025 A  
DOCKED: ATOM     51  C33 UNL     1      11.082  -1.930  -0.354 +0.00 +0.00    +0.111 A  
DOCKED: ATOM     52  N6  UNL     1      10.558  -2.044   0.889 +0.00 -0.00    -0.263 NA 
DOCKED: ATOM     53  C34 UNL     1      10.775  -3.213   1.530 +0.00 +0.00    +0.111 A  
DOCKED: ATOM     54  C35 UNL     1      11.474  -4.279   0.985 +0.00 +0.00    +0.025 A  
DOCKED: ENDBRANCH  48  49
DOCKED: ENDBRANCH  46  48
DOCKED: ENDBRANCH  43  44
DOCKED: BRANCH  43  55
DOCKED: ATOM     55  C36 UNL     1      12.683  -3.454  -4.860 +0.00 +0.00    +0.012 C  
DOCKED: ATOM     56  C37 UNL     1      14.171  -3.092  -4.863 +0.00 +0.00    +0.009 C  
DOCKED: ATOM     57  C38 UNL     1      12.035  -2.871  -6.124 +0.00 +0.00    +0.009 C  
DOCKED: ENDBRANCH  43  55
DOCKED: ENDBRANCH  41  43
DOCKED: ENDBRANCH  37  39
DOCKED: ENDBRANCH  36  37
DOCKED: ENDBRANCH  33  36
DOCKED: ENDBRANCH   1  33
DOCKED: TORSDOF 21
DOCKED: TER
DOCKED: ENDMDL
________________________________________________________________________________


    FINAL DOCKED STATE:
    ________________________


Run:   19 / 20
Time taken for this run:   1.471s

DOCKED: MODEL        19
DOCKED: USER    Run = 19
DOCKED: USER
DOCKED: USER    Estimated Free Energy of Binding    =  +6.26 kcal/mol  [=(1)+(2)+(3)-(4)]
DOCKED: USER
DOCKED: USER    (1) Final Intermolecular Energy     =  +0.00 kcal/mol
DOCKED: USER        vdW + Hbond + desolv Energy     =  +0.00 kcal/mol
DOCKED: USER        Electrostatic Energy            =  +0.00 kcal/mol
DOCKED: USER        Moving Ligand-Fixed Receptor    =  +0.00 kcal/mol
DOCKED: USER        Moving Ligand-Moving Receptor   =  +0.00 kcal/mol
DOCKED: USER    (2) Final Total Internal Energy     = -14.93 kcal/mol
DOCKED: USER    (3) Torsional Free Energy           =  +6.26 kcal/mol
DOCKED: USER    (4) Unbound System's Energy         = -14.93 kcal/mol
DOCKED: USER
DOCKED: USER
DOCKED: REMARK  Name = ligands/ligand_12.pdb
DOCKED: REMARK  30 active torsions:
DOCKED: REMARK  status: ('A' for Active; 'I' for Inactive)
DOCKED: REMARK    1  A    between atoms: C1_1  and  C2_2
DOCKED: REMARK    2  A    between atoms: C2_2  and  C3_3
DOCKED: REMARK    3  A    between atoms: C3_3  and  C4_4
DOCKED: REMARK    4  A    between atoms: C3_3  and  C5_5
DOCKED: REMARK    5  A    between atoms: C5_5  and  N1_6
DOCKED: REMARK    6  A    between atoms: C5_5  and  C11_14
DOCKED: REMARK    7  A    between atoms: C6_7  and  O2_9
DOCKED: REMARK    8  A    between atoms: O2_9  and  C7_10
DOCKED: REMARK    9  A    between atoms: C7_10  and  C8_11
DOCKED: REMARK   10  A    between atoms: C7_10  and  C9_12
DOCKED: REMARK   11  A    between atoms: C7_10  and  C10_13
DOCKED: REMARK   12  A    between atoms: N2_16  and  C12_17
DOCKED: REMARK   13  A    between atoms: C12_17  and  C13_18
DOCKED: REMARK   14  A    between atoms: C12_17  and  C14_19
DOCKED: REMARK   15  A    between atoms: N3_21  and  C15_22
DOCKED: REMARK   16  A    between atoms: C15_22  and  C16_23
DOCKED: REMARK   17  A    between atoms: C15_22  and  C23_30
DOCKED: REMARK   18  A    between atoms: C16_23  and  C17_24
DOCKED: REMARK   19  A    between atoms: C23_30  and  O5_31
DOCKED: REMARK   20  A    between atoms: C23_30  and  C24_32
DOCKED: REMARK   21  A    between atoms: C24_32  and  C25_33
DOCKED: REMARK   22  A    between atoms: C25_33  and  C26_34
DOCKED: REMARK   23  A    between atoms: C25_33  and  C27_35
DOCKED: REMARK   24  A    between atoms: N4_37  and  C28_38
DOCKED: REMARK   25  A    between atoms: C28_38  and  C29_39
DOCKED: REMARK   26  A    between atoms: C28_38  and  C36_49
DOCKED: REMARK   27  A    between atoms: N5_41  and  C30_42
DOCKED: REMARK   28  A    between atoms: C30_42  and  C31_43
DOCKED: REMARK   29  A    between atoms: C36_49  and  C37_50
DOCKED: REMARK   30  A    between atoms: C36_49  and  C38_51
DOCKED: REMARK                            x       y       z     vdW  Elec       q    Type
DOCKED: REMARK                         _______ _______ _______ _____ _____    ______ ____
DOCKED: USER                              x       y       z     vdW  Elec       q    Type
DOCKED: USER                           _______ _______ _______ _____ _____    ______ ____
DOCKED: ROOT
DOCKED: ATOM      1  C15 UNL     1       7.775  -3.018  -4.981 +0.00 +0.00    +0.106 C  
DOCKED: ENDROOT
DOCKED: BRANCH   1   4
DOCKED: ATOM      2  C14 UNL     1       7.105  -1.738  -2.955 +0.00 +0.00    +0.233 C  
DOCKED: ATOM      3  O4  UNL     1       6.920  -0.701  -3.593 +0.00 -0.00    -0.274 OA 
DOCKED: ATOM      4  N3  UNL     1       7.482  -2.921  -3.549 +0.00 -0.00    -0.308 N  
DOCKED: ATOM      5  H26 UNL     1       7.821  -3.672  -2.953 +0.00 +0.00    +0.149 HD 
DOCKED: BRANCH   2   6
DOCKED: ATOM      6  C12 UNL     1       6.934  -1.810  -1.424 +0.00 +0.00    +0.156 C  
DOCKED: ATOM      7  C13 UNL     1       6.884  -0.418  -0.807 +0.00 +0.00    +0.038 C  
DOCKED: BRANCH   6  10
DOCKED: ATOM      8  C11 UNL     1       9.328  -2.086  -0.795 +0.00 +0.00    +0.234 C  
DOCKED: ATOM      9  O3  UNL     1       9.629  -0.946  -1.142 +0.00 -0.00    -0.274 OA 
DOCKED: ATOM     10  N2  UNL     1       8.051  -2.586  -0.901 +0.00 -0.00    -0.303 N  
DOCKED: ATOM     11  H21 UNL     1       7.825  -3.511  -0.548 +0.00 +0.00    +0.149 HD 
DOCKED: BRANCH   8  12
DOCKED: ATOM     12  C5  UNL     1      10.332  -3.075  -0.151 +0.00 +0.00    +0.165 C  
DOCKED: BRANCH  12  13
DOCKED: ATOM     13  N1  UNL     1      10.862  -3.891  -1.234 +0.00 -0.00    -0.270 N  
DOCKED: ATOM     14  C6  UNL     1      10.071  -4.750  -1.938 +0.00 +0.00    +0.401 C  
DOCKED: ATOM     15  O1  UNL     1       8.907  -5.003  -1.673 +0.00 -0.00    -0.226 OA 
DOCKED: ATOM     16  H11 UNL     1      11.667  -3.562  -1.752 +0.00 +0.00    +0.153 HD 
DOCKED: BRANCH  14  17
DOCKED: ATOM     17  O2  UNL     1      10.785  -5.227  -2.981 +0.00 -0.00    -0.445 OA 
DOCKED: BRANCH  17  18
DOCKED: ATOM     18  C7  UNL     1      11.223  -6.606  -3.014 +0.00 +0.00    +0.107 C  
DOCKED: ATOM     19  C8  UNL     1      12.172  -6.929  -1.854 +0.00 +0.00    +0.055 C  
DOCKED: ATOM     20  C9  UNL     1      10.021  -7.553  -3.063 +0.00 +0.00    +0.055 C  
DOCKED: ATOM     21  C10 UNL     1      12.006  -6.742  -4.330 +0.00 +0.00    +0.055 C  
DOCKED: ENDBRANCH  17  18
DOCKED: ENDBRANCH  14  17
DOCKED: ENDBRANCH  12  13
DOCKED: BRANCH  12  22
DOCKED: ATOM     22  C3  UNL     1      11.474  -2.334   0.599 +0.00 +0.00    +0.015 C  
DOCKED: ATOM     23  C4  UNL     1      12.834  -2.960   0.260 +0.00 +0.00    +0.010 C  
DOCKED: BRANCH  22  25
DOCKED: ATOM     24  C1  UNL     1       9.784  -2.135   2.543 +0.00 +0.00    +0.004 C  
DOCKED: ATOM     25  C2  UNL     1      11.235  -2.321   2.127 +0.00 +0.00    +0.002 C  
DOCKED: ENDBRANCH  22  25
DOCKED: ENDBRANCH  12  22
DOCKED: ENDBRANCH   8  12
DOCKED: ENDBRANCH   6  10
DOCKED: ENDBRANCH   2   6
DOCKED: ENDBRANCH   1   4
DOCKED: BRANCH   1  26
DOCKED: ATOM     26  C16 UNL     1       8.870  -2.030  -5.459 +0.00 +0.00    +0.060 C  
DOCKED: BRANCH  26  27
DOCKED: ATOM     27  C17 UNL     1      10.244  -2.179  -4.848 +0.00 -0.00    -0.046 A  
DOCKED: ATOM     28  C18 UNL     1      10.676  -1.294  -3.850 +0.00 +0.00    +0.004 A  
DOCKED: ATOM     29  C19 UNL     1      11.956  -1.404  -3.304 +0.00 +0.00    +0.000 A  
DOCKED: ATOM     30  C20 UNL     1      12.815  -2.411  -3.742 +0.00 +0.00    +0.000 A  
DOCKED: ATOM     31  C21 UNL     1      12.392  -3.314  -4.715 +0.00 +0.00    +0.000 A  
DOCKED: ATOM     32  C22 UNL     1      11.109  -3.208  -5.255 +0.00 +0.00    +0.004 A  
DOCKED: ENDBRANCH  26  27
DOCKED: ENDBRANCH   1  26
DOCKED: BRANCH   1  33
DOCKED: ATOM     33  C23 UNL     1       7.935  -4.499  -5.424 +0.00 +0.00    +0.136 C  
DOCKED: BRANCH  33  34
DOCKED: ATOM     34  O5  UNL     1       8.101  -5.337  -4.273 +0.00 -0.00    -0.390 OA 
DOCKED: ATOM     35  H36 UNL     1       8.920  -5.052  -3.832 +0.00 +0.00    +0.210 HD 
DOCKED: ENDBRANCH  33  34
DOCKED: BRANCH  33  36
DOCKED: ATOM     36  C24 UNL     1       6.796  -5.093  -6.272 +0.00 +0.00    +0.045 C  
DOCKED: BRANCH  36  37
DOCKED: ATOM     37  C25 UNL     1       5.446  -4.437  -5.937 +0.00 +0.00    +0.074 C  
DOCKED: ATOM     38  C26 UNL     1       4.593  -4.256  -7.191 +0.00 +0.00    +0.017 C  
DOCKED: BRANCH  37  39
DOCKED: ATOM     39  C27 UNL     1       4.743  -5.276  -4.872 +0.00 +0.00    +0.217 C  
DOCKED: ATOM     40  O6  UNL     1       3.550  -5.554  -4.949 +0.00 -0.00    -0.276 OA 
DOCKED: ATOM     41  N4  UNL     1       5.498  -5.600  -3.777 +0.00 -0.00    -0.304 N  
DOCKED: ATOM     42  H43 UNL     1       6.435  -5.220  -3.669 +0.00 +0.00    +0.149 HD 
DOCKED: BRANCH  41  43
DOCKED: ATOM     43  C28 UNL     1       4.971  -6.280  -2.595 +0.00 +0.00    +0.161 C  
DOCKED: BRANCH  43  44
DOCKED: ATOM     44  C29 UNL     1       5.685  -5.580  -1.413 +0.00 +0.00    +0.234 C  
DOCKED: ATOM     45  O7  UNL     1       6.412  -4.599  -1.586 +0.00 -0.00    -0.274 OA 
DOCKED: ATOM     46  N5  UNL     1       5.453  -6.127  -0.173 +0.00 -0.00    -0.310 N  
DOCKED: ATOM     47  H45 UNL     1       4.921  -6.981  -0.090 +0.00 +0.00    +0.149 HD 
DOCKED: BRANCH  46  48
DOCKED: ATOM     48  C30 UNL     1       6.146  -5.654   1.006 +0.00 +0.00    +0.139 C  
DOCKED: BRANCH  48  49
DOCKED: ATOM     49  C31 UNL     1       7.597  -6.051   0.989 +0.00 -0.00    -0.027 A  
DOCKED: ATOM     50  C32 UNL     1       8.020  -7.177   0.268 +0.00 +0.00    +0.025 A  
DOCKED: ATOM     51  C33 UNL     1       9.360  -7.525   0.297 +0.00 +0.00    +0.111 A  
DOCKED: ATOM     52  N6  UNL     1      10.300  -6.832   0.982 +0.00 -0.00    -0.263 NA 
DOCKED: ATOM     53  C34 UNL     1       9.870  -5.761   1.682 +0.00 +0.00    +0.111 A  
DOCKED: ATOM     54  C35 UNL     1       8.550  -5.338   1.719 +0.00 +0.00    +0.025 A  
DOCKED: ENDBRANCH  48  49
DOCKED: ENDBRANCH  46  48
DOCKED: ENDBRANCH  43  44
DOCKED: BRANCH  43  55
DOCKED: ATOM     55  C36 UNL     1       5.242  -7.799  -2.643 +0.00 +0.00    +0.012 C  
DOCKED: ATOM     56  C37 UNL     1       4.374  -8.516  -3.681 +0.00 +0.00    +0.009 C  
DOCKED: ATOM     57  C38 UNL     1       6.717  -8.092  -2.951 +0.00 +0.00    +0.009 C  
DOCKED: ENDBRANCH  43  55
DOCKED: ENDBRANCH  41  43
DOCKED: ENDBRANCH  37  39
DOCKED: ENDBRANCH  36  37
DOCKED: ENDBRANCH  33  36
DOCKED: ENDBRANCH   1  33
DOCKED: TORSDOF 21
DOCKED: TER
DOCKED: ENDMDL
________________________________________________________________________________


    FINAL DOCKED STATE:
    ________________________


Run:   20 / 20
Time taken for this run:   1.471s

DOCKED: MODEL        20
DOCKED: USER    Run = 20
DOCKED: USER
DOCKED: USER    Estimated Free Energy of Binding    =  +6.26 kcal/mol  [=(1)+(2)+(3)-(4)]
DOCKED: USER
DOCKED: USER    (1) Final Intermolecular Energy     =  +0.00 kcal/mol
DOCKED: USER        vdW + Hbond + desolv Energy     =  +0.00 kcal/mol
DOCKED: USER        Electrostatic Energy            =  +0.00 kcal/mol
DOCKED: USER        Moving Ligand-Fixed Receptor    =  +0.00 kcal/mol
DOCKED: USER        Moving Ligand-Moving Receptor   =  +0.00 kcal/mol
DOCKED: USER    (2) Final Total Internal Energy     = -14.93 kcal/mol
DOCKED: USER    (3) Torsional Free Energy           =  +6.26 kcal/mol
DOCKED: USER    (4) Unbound System's Energy         = -14.93 kcal/mol
DOCKED: USER
DOCKED: USER
DOCKED: REMARK  Name = ligands/ligand_12.pdb
DOCKED: REMARK  30 active torsions:
DOCKED: REMARK  status: ('A' for Active; 'I' for Inactive)
DOCKED: REMARK    1  A    between atoms: C1_1  and  C2_2
DOCKED: REMARK    2  A    between atoms: C2_2  and  C3_3
DOCKED: REMARK    3  A    between atoms: C3_3  and  C4_4
DOCKED: REMARK    4  A    between atoms: C3_3  and  C5_5
DOCKED: REMARK    5  A    between atoms: C5_5  and  N1_6
DOCKED: REMARK    6  A    between atoms: C5_5  and  C11_14
DOCKED: REMARK    7  A    between atoms: C6_7  and  O2_9
DOCKED: REMARK    8  A    between atoms: O2_9  and  C7_10
DOCKED: REMARK    9  A    between atoms: C7_10  and  C8_11
DOCKED: REMARK   10  A    between atoms: C7_10  and  C9_12
DOCKED: REMARK   11  A    between atoms: C7_10  and  C10_13
DOCKED: REMARK   12  A    between atoms: N2_16  and  C12_17
DOCKED: REMARK   13  A    between atoms: C12_17  and  C13_18
DOCKED: REMARK   14  A    between atoms: C12_17  and  C14_19
DOCKED: REMARK   15  A    between atoms: N3_21  and  C15_22
DOCKED: REMARK   16  A    between atoms: C15_22  and  C16_23
DOCKED: REMARK   17  A    between atoms: C15_22  and  C23_30
DOCKED: REMARK   18  A    between atoms: C16_23  and  C17_24
DOCKED: REMARK   19  A    between atoms: C23_30  and  O5_31
DOCKED: REMARK   20  A    between atoms: C23_30  and  C24_32
DOCKED: REMARK   21  A    between atoms: C24_32  and  C25_33
DOCKED: REMARK   22  A    between atoms: C25_33  and  C26_34
DOCKED: REMARK   23  A    between atoms: C25_33  and  C27_35
DOCKED: REMARK   24  A    between atoms: N4_37  and  C28_38
DOCKED: REMARK   25  A    between atoms: C28_38  and  C29_39
DOCKED: REMARK   26  A    between atoms: C28_38  and  C36_49
DOCKED: REMARK   27  A    between atoms: N5_41  and  C30_42
DOCKED: REMARK   28  A    between atoms: C30_42  and  C31_43
DOCKED: REMARK   29  A    between atoms: C36_49  and  C37_50
DOCKED: REMARK   30  A    between atoms: C36_49  and  C38_51
DOCKED: REMARK                            x       y       z     vdW  Elec       q    Type
DOCKED: REMARK                         _______ _______ _______ _____ _____    ______ ____
DOCKED: USER                              x       y       z     vdW  Elec       q    Type
DOCKED: USER                           _______ _______ _______ _____ _____    ______ ____
DOCKED: ROOT
DOCKED: ATOM      1  C15 UNL     1      12.687   2.750  -4.703 +0.00 +0.00    +0.106 C  
DOCKED: ENDROOT
DOCKED: BRANCH   1   4
DOCKED: ATOM      2  C14 UNL     1      13.838   1.444  -2.925 +0.00 +0.00    +0.233 C  
DOCKED: ATOM      3  O4  UNL     1      14.496   2.414  -2.549 +0.00 -0.00    -0.274 OA 
DOCKED: ATOM      4  N3  UNL     1      12.906   1.522  -3.936 +0.00 -0.00    -0.308 N  
DOCKED: ATOM      5  H26 UNL     1      12.557   0.655  -4.336 +0.00 +0.00    +0.149 HD 
DOCKED: BRANCH   2   6
DOCKED: ATOM      6  C12 UNL     1      13.994   0.043  -2.298 +0.00 +0.00    +0.156 C  
DOCKED: ATOM      7  C13 UNL     1      15.274  -0.054  -1.477 +0.00 +0.00    +0.038 C  
DOCKED: BRANCH   6  10
DOCKED: ATOM      8  C11 UNL     1      15.051  -1.105  -4.239 +0.00 +0.00    +0.234 C  
DOCKED: ATOM      9  O3  UNL     1      16.094  -0.460  -4.148 +0.00 -0.00    -0.274 OA 
DOCKED: ATOM     10  N2  UNL     1      13.984  -0.922  -3.389 +0.00 -0.00    -0.303 N  
DOCKED: ATOM     11  H21 UNL     1      13.162  -1.513  -3.455 +0.00 +0.00    +0.149 HD 
DOCKED: BRANCH   8  12
DOCKED: ATOM     12  C5  UNL     1      14.831  -2.230  -5.280 +0.00 +0.00    +0.165 C  
DOCKED: BRANCH  12  13
DOCKED: ATOM     13  N1  UNL     1      14.177  -1.613  -6.425 +0.00 -0.00    -0.270 N  
DOCKED: ATOM     14  C6  UNL     1      12.925  -1.081  -6.337 +0.00 +0.00    +0.401 C  
DOCKED: ATOM     15  O1  UNL     1      12.200  -1.165  -5.359 +0.00 -0.00    -0.226 OA 
DOCKED: ATOM     16  H11 UNL     1      14.745  -1.196  -7.153 +0.00 +0.00    +0.153 HD 
DOCKED: BRANCH  14  17
DOCKED: ATOM     17  O2  UNL     1      12.657  -0.428  -7.488 +0.00 -0.00    -0.445 OA 
DOCKED: BRANCH  17  18
DOCKED: ATOM     18  C7  UNL     1      11.670  -0.933  -8.418 +0.00 +0.00    +0.107 C  
DOCKED: ATOM     19  C8  UNL     1      12.066  -2.301  -8.982 +0.00 +0.00    +0.055 C  
DOCKED: ATOM     20  C9  UNL     1      10.281  -0.950  -7.773 +0.00 +0.00    +0.055 C  
DOCKED: ATOM     21  C10 UNL     1      11.658   0.081  -9.573 +0.00 +0.00    +0.055 C  
DOCKED: ENDBRANCH  17  18
DOCKED: ENDBRANCH  14  17
DOCKED: ENDBRANCH  12  13
DOCKED: BRANCH  12  22
DOCKED: ATOM     22  C3  UNL     1      16.169  -2.902  -5.697 +0.00 +0.00    +0.015 C  
DOCKED: ATOM     23  C4  UNL     1      16.203  -3.135  -7.215 +0.00 +0.00    +0.010 C  
DOCKED: BRANCH  22  25
DOCKED: ATOM     24  C1  UNL     1      15.754  -4.284  -3.555 +0.00 +0.00    +0.004 C  
DOCKED: ATOM     25  C2  UNL     1      16.405  -4.223  -4.929 +0.00 +0.00    +0.002 C  
DOCKED: ENDBRANCH  22  25
DOCKED: ENDBRANCH  12  22
DOCKED: ENDBRANCH   8  12
DOCKED: ENDBRANCH   6  10
DOCKED: ENDBRANCH   2   6
DOCKED: ENDBRANCH   1   4
DOCKED: BRANCH   1  26
DOCKED: ATOM     26  C16 UNL     1      13.971   3.298  -5.379 +0.00 +0.00    +0.060 C  
DOCKED: BRANCH  26  27
DOCKED: ATOM     27  C17 UNL     1      14.636   2.414  -6.408 +0.00 -0.00    -0.046 A  
DOCKED: ATOM     28  C18 UNL     1      14.110   2.316  -7.704 +0.00 +0.00    +0.004 A  
DOCKED: ATOM     29  C19 UNL     1      14.698   1.477  -8.651 +0.00 +0.00    +0.000 A  
DOCKED: ATOM     30  C20 UNL     1      15.830   0.735  -8.316 +0.00 +0.00    +0.000 A  
DOCKED: ATOM     31  C21 UNL     1      16.380   0.840  -7.040 +0.00 +0.00    +0.000 A  
DOCKED: ATOM     32  C22 UNL     1      15.795   1.685  -6.096 +0.00 +0.00    +0.004 A  
DOCKED: ENDBRANCH  26  27
DOCKED: ENDBRANCH   1  26
DOCKED: BRANCH   1  33
DOCKED: ATOM     33  C23 UNL     1      11.424   2.635  -5.602 +0.00 +0.00    +0.136 C  
DOCKED: BRANCH  33  34
DOCKED: ATOM     34  O5  UNL     1      11.018   1.263  -5.698 +0.00 -0.00    -0.390 OA 
DOCKED: ATOM     35  H36 UNL     1      11.734   0.789  -6.154 +0.00 +0.00    +0.210 HD 
DOCKED: ENDBRANCH  33  34
DOCKED: BRANCH  33  36
DOCKED: ATOM     36  C24 UNL     1      10.194   3.455  -5.174 +0.00 +0.00    +0.045 C  
DOCKED: BRANCH  36  37
DOCKED: ATOM     37  C25 UNL     1      10.162   3.665  -3.651 +0.00 +0.00    +0.074 C  
DOCKED: ATOM     38  C26 UNL     1       9.653   5.061  -3.296 +0.00 +0.00    +0.017 C  
DOCKED: BRANCH  37  39
DOCKED: ATOM     39  C27 UNL     1       9.317   2.561  -3.020 +0.00 +0.00    +0.217 C  
DOCKED: ATOM     40  O6  UNL     1       8.494   2.797  -2.141 +0.00 -0.00    -0.276 OA 
DOCKED: ATOM     41  N4  UNL     1       9.615   1.285  -3.417 +0.00 -0.00    -0.304 N  
DOCKED: ATOM     42  H43 UNL     1      10.409   1.110  -4.028 +0.00 +0.00    +0.149 HD 
DOCKED: BRANCH  41  43
DOCKED: ATOM     43  C28 UNL     1       9.013   0.088  -2.832 +0.00 +0.00    +0.161 C  
DOCKED: BRANCH  43  44
DOCKED: ATOM     44  C29 UNL     1      10.182  -0.924  -2.769 +0.00 +0.00    +0.234 C  
DOCKED: ATOM     45  O7  UNL     1      11.338  -0.595  -3.045 +0.00 -0.00    -0.274 OA 
DOCKED: ATOM     46  N5  UNL     1       9.841  -2.201  -2.389 +0.00 -0.00    -0.310 N  
DOCKED: ATOM     47  H45 UNL     1       8.870  -2.446  -2.258 +0.00 +0.00    +0.149 HD 
DOCKED: BRANCH  46  48
DOCKED: ATOM     48  C30 UNL     1      10.806  -3.280  -2.402 +0.00 +0.00    +0.139 C  
DOCKED: BRANCH  48  49
DOCKED: ATOM     49  C31 UNL     1      11.153  -3.692  -3.806 +0.00 -0.00    -0.027 A  
DOCKED: ATOM     50  C32 UNL     1      10.245  -3.490  -4.855 +0.00 +0.00    +0.025 A  
DOCKED: ATOM     51  C33 UNL     1      10.591  -3.906  -6.129 +0.00 +0.00    +0.111 A  
DOCKED: ATOM     52  N6  UNL     1      11.771  -4.497  -6.430 +0.00 -0.00    -0.263 NA 
DOCKED: ATOM     53  C34 UNL     1      12.626  -4.698  -5.404 +0.00 +0.00    +0.111 A  
DOCKED: ATOM     54  C35 UNL     1      12.367  -4.321  -4.095 +0.00 +0.00    +0.025 A  
DOCKED: ENDBRANCH  48  49
DOCKED: ENDBRANCH  46  48
DOCKED: ENDBRANCH  43  44
DOCKED: BRANCH  43  55
DOCKED: ATOM     55  C36 UNL     1       7.825  -0.423  -3.677 +0.00 +0.00    +0.012 C  
DOCKED: ATOM     56  C37 UNL     1       6.585   0.464  -3.538 +0.00 +0.00    +0.009 C  
DOCKED: ATOM     57  C38 UNL     1       8.197  -0.516  -5.163 +0.00 +0.00    +0.009 C  
DOCKED: ENDBRANCH  43  55
DOCKED: ENDBRANCH  41  43
DOCKED: ENDBRANCH  37  39
DOCKED: ENDBRANCH  36  37
DOCKED: ENDBRANCH  33  36
DOCKED: ENDBRANCH   1  33
DOCKED: TORSDOF 21
DOCKED: TER
DOCKED: ENDMDL
________________________________________________________________________________


    CLUSTERING HISTOGRAM
    ____________________


________________________________________________________________________________
     |           |     |           |     |
Clus | Lowest    | Run | Mean      | Num | Histogram
-ter | Binding   |     | Binding   | in  |
Rank | Energy    |     | Energy    | Clus|    5    10   15   20   25   30   35
_____|___________|_____|___________|_____|____:____|____:____|____:____|____:___
   1 |     +6.26 |   1 |     +6.26 |   1 |#
   2 |     +6.26 |   2 |     +6.26 |   1 |#
   3 |     +6.26 |   3 |     +6.26 |   1 |#
   4 |     +6.26 |   4 |     +6.26 |   1 |#
   5 |     +6.26 |   5 |     +6.26 |   1 |#
   6 |     +6.26 |   6 |     +6.26 |   1 |#
   7 |     +6.26 |   7 |     +6.26 |   1 |#
   8 |     +6.26 |   8 |     +6.26 |   1 |#
   9 |     +6.26 |   9 |     +6.26 |   1 |#
  10 |     +6.26 |  10 |     +6.26 |   1 |#
  11 |     +6.26 |  11 |     +6.26 |   1 |#
  12 |     +6.26 |  12 |     +6.26 |   1 |#
  13 |     +6.26 |  13 |     +6.26 |   1 |#
  14 |     +6.26 |  14 |     +6.26 |   1 |#
  15 |     +6.26 |  15 |     +6.26 |   1 |#
  16 |     +6.26 |  16 |     +6.26 |   1 |#
  17 |     +6.26 |  17 |     +6.26 |   1 |#
  18 |     +6.26 |  18 |     +6.26 |   1 |#
  19 |     +6.26 |  19 |     +6.26 |   1 |#
  20 |     +6.26 |  20 |     +6.26 |   1 |#
_____|___________|_____|___________|_____|______________________________________


    RMSD TABLE
    __________


_______________________________________________________________________
     |      |      |           |         |                 |
Rank | Sub- | Run  | Binding   | Cluster | Reference       | Grep
     | Rank |      | Energy    | RMSD    | RMSD            | Pattern
_____|______|______|___________|_________|_________________|___________
   1      1      1       +6.26      0.00      5.02           RANKING
   2      1      2       +6.26      0.00      9.14           RANKING
   3      1      3       +6.26      0.00     13.70           RANKING
   4      1      4       +6.26      0.00      8.48           RANKING
   5      1      5       +6.26      0.00     10.34           RANKING
   6      1      6       +6.26      0.00      9.28           RANKING
   7      1      7       +6.26      0.00      7.88           RANKING
   8      1      8       +6.26      0.00     12.44           RANKING
   9      1      9       +6.26      0.00     11.82           RANKING
  10      1     10       +6.26      0.00      8.27           RANKING
  11      1     11       +6.26      0.00     10.91           RANKING
  12      1     12       +6.26      0.00      9.54           RANKING
  13      1     13       +6.26      0.00      8.68           RANKING
  14      1     14       +6.26      0.00      9.20           RANKING
  15      1     15       +6.26      0.00      5.49           RANKING
  16      1     16       +6.26      0.00     10.08           RANKING
  17      1     17       +6.26      0.00      9.83           RANKING
  18      1     18       +6.26      0.00      8.96           RANKING
  19      1     19       +6.26      0.00      8.21           RANKING
  20      1     20       +6.26      0.00     11.86           RANKING

Run time 29.687 sec
Idle time 0.296 sec
