AutoDock-GPU version: v1.6

**********************************************************
**    AutoDock-GPU AUTODOCKTOOLS-COMPATIBLE DLG FILE    **
**********************************************************


    DOCKING PARAMETERS
    ________________________


Ligand file:                               ligands/ligand_30.pdbqt
Grid fld file:                             protein.maps.fld

Random seed:                               1770973238, 30567
Number of runs:                            20
Number of energy evaluations:              11021374
Number of generations:                     42000
Size of population:                        150
Rate of crossover:                         80.000000%
Tournament selection probability limit:    60.000000%
Rate of mutation:                          2.000000%
Maximal allowed delta movement:            +/- 6.000000A
Maximal allowed delta angle:               +/- 90.000000

Rate of local search:                      100.000000%
Maximal number of local search iterations: 300
Rho lower bound:                           0.010000
Spread of local search delta movement:     2.000000A
Spread of local search delta angle:        74.999999
Limit of consecutive successes/failures:   4

Handle symmetry during clustering:         YES
RMSD tolerance:                            2.000000A

Program call in command line was:          ./autodock-gpu --ffile protein.maps.fld --lfile ligands/ligand_30.pdbqt --nrun 20 


    GRID PARAMETERS
    ________________________


Receptor name:                             #MACROMOLECULE
Number of grid points (x, y, z):           61, 61, 61
Grid center (x, y, z):                     10.261000, -3.492000, -0.127000A
Grid size (x, y, z):                       22.500000, 22.500000, 22.500000A
Grid spacing:                              0.375000A


    LIGAND PARAMETERS
    ________________________


Ligand name:                               ligands/ligand_30
Number of atoms:                           63
Number of rotatable bonds:                 25
Number of atom types:                      6


    DUMMY DATA (only for ADT-compatibility)
    ________________________


DPF> outlev 1
DPF> ga_run 20
DPF> fld protein.maps.fld
DPF> move ligands/ligand_30.pdbqt


    COUNTER STATES
    ________________________


Number of energy evaluations performed:    9353297
Number of generations used:                395


    INPUT LIGAND PDBQT FILE:
    ________________________


INPUT-LIGAND-PDBQT: REMARK  Name = ligands/ligand_30.pdb
INPUT-LIGAND-PDBQT: REMARK  30 active torsions:
INPUT-LIGAND-PDBQT: REMARK  status: ('A' for Active; 'I' for Inactive)
INPUT-LIGAND-PDBQT: REMARK    1  A    between atoms: C1_1  and  C2_2
INPUT-LIGAND-PDBQT: REMARK    2  A    between atoms: C2_2  and  C3_3
INPUT-LIGAND-PDBQT: REMARK    3  A    between atoms: C2_2  and  C4_4
INPUT-LIGAND-PDBQT: REMARK    4  A    between atoms: C4_4  and  C5_5
INPUT-LIGAND-PDBQT: REMARK    5  A    between atoms: C5_5  and  N1_6
INPUT-LIGAND-PDBQT: REMARK    6  A    between atoms: C5_5  and  C14_18
INPUT-LIGAND-PDBQT: REMARK    7  A    between atoms: C6_7  and  C7_9
INPUT-LIGAND-PDBQT: REMARK    8  A    between atoms: C7_9  and  C8_10
INPUT-LIGAND-PDBQT: REMARK    9  A    between atoms: C14_18  and  O2_19
INPUT-LIGAND-PDBQT: REMARK   10  A    between atoms: C14_18  and  C15_20
INPUT-LIGAND-PDBQT: REMARK   11  A    between atoms: C15_20  and  C16_21
INPUT-LIGAND-PDBQT: REMARK   12  A    between atoms: N2_23  and  C17_24
INPUT-LIGAND-PDBQT: REMARK   13  A    between atoms: C17_24  and  C18_25
INPUT-LIGAND-PDBQT: REMARK   14  A    between atoms: C17_24  and  C36_53
INPUT-LIGAND-PDBQT: REMARK   15  A    between atoms: N3_27  and  C19_28
INPUT-LIGAND-PDBQT: REMARK   16  A    between atoms: C19_28  and  C20_29
INPUT-LIGAND-PDBQT: REMARK   17  A    between atoms: C19_28  and  C21_30
INPUT-LIGAND-PDBQT: REMARK   18  A    between atoms: N4_32  and  C22_33
INPUT-LIGAND-PDBQT: REMARK   19  A    between atoms: C22_33  and  C23_34
INPUT-LIGAND-PDBQT: REMARK   20  A    between atoms: C22_33  and  C26_39
INPUT-LIGAND-PDBQT: REMARK   21  A    between atoms: C23_34  and  C24_35
INPUT-LIGAND-PDBQT: REMARK   22  A    between atoms: C24_35  and  C25_36
INPUT-LIGAND-PDBQT: REMARK   23  A    between atoms: C25_36  and  O7_38
INPUT-LIGAND-PDBQT: REMARK   24  A    between atoms: N5_41  and  C27_42
INPUT-LIGAND-PDBQT: REMARK   25  A    between atoms: C27_42  and  C28_43
INPUT-LIGAND-PDBQT: REMARK   26  A    between atoms: C27_42  and  C35_50
INPUT-LIGAND-PDBQT: REMARK   27  A    between atoms: C28_43  and  C29_44
INPUT-LIGAND-PDBQT: REMARK   28  A    between atoms: C35_50  and  O10_52
INPUT-LIGAND-PDBQT: REMARK   29  A    between atoms: C36_53  and  C37_54
INPUT-LIGAND-PDBQT: REMARK   30  A    between atoms: C36_53  and  C38_55
INPUT-LIGAND-PDBQT: REMARK                            x       y       z     vdW  Elec       q    Type
INPUT-LIGAND-PDBQT: REMARK                         _______ _______ _______ _____ _____    ______ ____
INPUT-LIGAND-PDBQT: ROOT
INPUT-LIGAND-PDBQT: ATOM      1  C18 UNL     1       3.416   2.319  -0.122  0.00  0.00    +0.234 C 
INPUT-LIGAND-PDBQT: ATOM      2  O4  UNL     1       4.061   1.275  -0.022  0.00  0.00    -0.274 OA
INPUT-LIGAND-PDBQT: ATOM      3  N3  UNL     1       3.200   3.192   0.921  0.00  0.00    -0.303 N 
INPUT-LIGAND-PDBQT: ATOM      4  H23 UNL     1       2.416   3.825   0.786  0.00  0.00    +0.149 HD
INPUT-LIGAND-PDBQT: ENDROOT
INPUT-LIGAND-PDBQT: BRANCH   3   5
INPUT-LIGAND-PDBQT: ATOM      5  C19 UNL     1       3.395   2.856   2.339  0.00  0.00    +0.156 C 
INPUT-LIGAND-PDBQT: ATOM      6  C20 UNL     1       4.541   1.905   2.643  0.00  0.00    +0.038 C 
INPUT-LIGAND-PDBQT: BRANCH   5   7
INPUT-LIGAND-PDBQT: ATOM      7  C21 UNL     1       2.004   2.455   2.881  0.00  0.00    +0.234 C 
INPUT-LIGAND-PDBQT: ATOM      8  O5  UNL     1       0.977   2.923   2.376  0.00  0.00    -0.274 OA
INPUT-LIGAND-PDBQT: ATOM      9  N4  UNL     1       1.965   1.683   4.020  0.00  0.00    -0.302 N 
INPUT-LIGAND-PDBQT: ATOM     10  H28 UNL     1       2.739   1.028   4.141  0.00  0.00    +0.150 HD
INPUT-LIGAND-PDBQT: BRANCH   9  11
INPUT-LIGAND-PDBQT: ATOM     11  C22 UNL     1       0.674   1.239   4.534  0.00  0.00    +0.159 C 
INPUT-LIGAND-PDBQT: BRANCH  11  12
INPUT-LIGAND-PDBQT: ATOM     12  C26 UNL     1       0.164   0.017   3.742  0.00  0.00    +0.234 C 
INPUT-LIGAND-PDBQT: ATOM     13  O8  UNL     1       0.919  -0.770   3.176  0.00  0.00    -0.274 OA
INPUT-LIGAND-PDBQT: ATOM     14  N5  UNL     1      -1.205  -0.146   3.780  0.00  0.00    -0.301 N 
INPUT-LIGAND-PDBQT: ATOM     15  H35 UNL     1      -1.716   0.353   4.497  0.00  0.00    +0.150 HD
INPUT-LIGAND-PDBQT: BRANCH  14  16
INPUT-LIGAND-PDBQT: ATOM     16  C27 UNL     1      -1.841  -1.368   3.269  0.00  0.00    +0.186 C 
INPUT-LIGAND-PDBQT: BRANCH  16  17
INPUT-LIGAND-PDBQT: ATOM     17  C35 UNL     1      -1.918  -2.334   4.454  0.00  0.00    +0.326 C 
INPUT-LIGAND-PDBQT: ATOM     18  O9  UNL     1      -1.926  -2.011   5.638  0.00  0.00    -0.249 OA
INPUT-LIGAND-PDBQT: BRANCH  17  19
INPUT-LIGAND-PDBQT: ATOM     19  O10 UNL     1      -2.012  -3.628   4.100  0.00  0.00    -0.479 OA
INPUT-LIGAND-PDBQT: ATOM     20  H44 UNL     1      -2.007  -4.123   4.947  0.00  0.00    +0.295 HD
INPUT-LIGAND-PDBQT: ENDBRANCH  17  19
INPUT-LIGAND-PDBQT: ENDBRANCH  16  17
INPUT-LIGAND-PDBQT: BRANCH  16  21
INPUT-LIGAND-PDBQT: ATOM     21  C28 UNL     1      -3.247  -1.043   2.752  0.00  0.00    +0.069 C 
INPUT-LIGAND-PDBQT: BRANCH  21  22
INPUT-LIGAND-PDBQT: ATOM     22  C29 UNL     1      -3.808  -2.086   1.816  0.00  0.00    -0.045 A 
INPUT-LIGAND-PDBQT: ATOM     23  C30 UNL     1      -3.312  -2.198   0.510  0.00  0.00    +0.004 A 
INPUT-LIGAND-PDBQT: ATOM     24  C31 UNL     1      -3.842  -3.140  -0.373  0.00  0.00    +0.000 A 
INPUT-LIGAND-PDBQT: ATOM     25  C32 UNL     1      -4.864  -3.989   0.042  0.00  0.00    +0.000 A 
INPUT-LIGAND-PDBQT: ATOM     26  C33 UNL     1      -5.363  -3.890   1.342  0.00  0.00    +0.000 A 
INPUT-LIGAND-PDBQT: ATOM     27  C34 UNL     1      -4.840  -2.942   2.224  0.00  0.00    +0.004 A 
INPUT-LIGAND-PDBQT: ENDBRANCH  21  22
INPUT-LIGAND-PDBQT: ENDBRANCH  16  21
INPUT-LIGAND-PDBQT: ENDBRANCH  14  16
INPUT-LIGAND-PDBQT: ENDBRANCH  11  12
INPUT-LIGAND-PDBQT: BRANCH  11  28
INPUT-LIGAND-PDBQT: ATOM     28  C23 UNL     1       0.709   0.948   6.044  0.00  0.00    +0.043 C 
INPUT-LIGAND-PDBQT: BRANCH  28  29
INPUT-LIGAND-PDBQT: ATOM     29  C24 UNL     1       1.528  -0.268   6.480  0.00  0.00    +0.123 C 
INPUT-LIGAND-PDBQT: BRANCH  29  30
INPUT-LIGAND-PDBQT: ATOM     30  C25 UNL     1       3.004   0.013   6.478  0.00  0.00    +0.305 C 
INPUT-LIGAND-PDBQT: ATOM     31  O6  UNL     1       3.715   0.100   5.489  0.00  0.00    -0.251 OA
INPUT-LIGAND-PDBQT: BRANCH  30  32
INPUT-LIGAND-PDBQT: ATOM     32  O7  UNL     1       3.504   0.216   7.710  0.00  0.00    -0.481 OA
INPUT-LIGAND-PDBQT: ATOM     33  H34 UNL     1       4.459   0.376   7.564  0.00  0.00    +0.295 HD
INPUT-LIGAND-PDBQT: ENDBRANCH  30  32
INPUT-LIGAND-PDBQT: ENDBRANCH  29  30
INPUT-LIGAND-PDBQT: ENDBRANCH  28  29
INPUT-LIGAND-PDBQT: ENDBRANCH  11  28
INPUT-LIGAND-PDBQT: ENDBRANCH   9  11
INPUT-LIGAND-PDBQT: ENDBRANCH   5   7
INPUT-LIGAND-PDBQT: ENDBRANCH   3   5
INPUT-LIGAND-PDBQT: BRANCH   1  34
INPUT-LIGAND-PDBQT: ATOM     34  C17 UNL     1       2.811   2.752  -1.482  0.00  0.00    +0.161 C 
INPUT-LIGAND-PDBQT: BRANCH  34  37
INPUT-LIGAND-PDBQT: ATOM     35  C16 UNL     1       2.114   1.384  -3.441  0.00  0.00    +0.216 C 
INPUT-LIGAND-PDBQT: ATOM     36  O3  UNL     1       1.194   2.139  -3.747  0.00  0.00    -0.276 OA
INPUT-LIGAND-PDBQT: ATOM     37  N2  UNL     1       2.954   1.604  -2.381  0.00  0.00    -0.304 N 
INPUT-LIGAND-PDBQT: ATOM     38  H21 UNL     1       3.575   0.864  -2.059  0.00  0.00    +0.149 HD
INPUT-LIGAND-PDBQT: BRANCH  35  39
INPUT-LIGAND-PDBQT: ATOM     39  C15 UNL     1       2.481   0.169  -4.267  0.00  0.00    +0.129 C 
INPUT-LIGAND-PDBQT: BRANCH  39  40
INPUT-LIGAND-PDBQT: ATOM     40  C14 UNL     1       1.370  -0.256  -5.240  0.00  0.00    +0.143 C 
INPUT-LIGAND-PDBQT: BRANCH  40  41
INPUT-LIGAND-PDBQT: ATOM     41  O2  UNL     1       1.058   0.819  -6.117  0.00  0.00    -0.389 OA
INPUT-LIGAND-PDBQT: ATOM     42  H18 UNL     1       0.785   1.576  -5.552  0.00  0.00    +0.210 HD
INPUT-LIGAND-PDBQT: ENDBRANCH  40  41
INPUT-LIGAND-PDBQT: BRANCH  40  43
INPUT-LIGAND-PDBQT: ATOM     43  C5  UNL     1       0.124  -0.844  -4.520  0.00  0.00    +0.102 C 
INPUT-LIGAND-PDBQT: BRANCH  43  44
INPUT-LIGAND-PDBQT: ATOM     44  N1  UNL     1       0.520  -2.086  -3.829  0.00  0.00    -0.310 N 
INPUT-LIGAND-PDBQT: ATOM     45  C6  UNL     1      -0.135  -2.537  -2.700  0.00  0.00    +0.218 C 
INPUT-LIGAND-PDBQT: ATOM     46  O1  UNL     1      -1.023  -1.900  -2.142  0.00  0.00    -0.275 OA
INPUT-LIGAND-PDBQT: ATOM     47  H11 UNL     1       1.061  -2.756  -4.358  0.00  0.00    +0.149 HD
INPUT-LIGAND-PDBQT: BRANCH  45  48
INPUT-LIGAND-PDBQT: ATOM     48  C7  UNL     1       0.321  -3.911  -2.233  0.00  0.00    +0.133 C 
INPUT-LIGAND-PDBQT: BRANCH  48  49
INPUT-LIGAND-PDBQT: ATOM     49  C8  UNL     1       0.465  -4.012  -0.738  0.00  0.00    -0.003 A 
INPUT-LIGAND-PDBQT: ATOM     50  C9  UNL     1      -0.453  -4.738   0.033  0.00  0.00    +0.010 A 
INPUT-LIGAND-PDBQT: ATOM     51  C10 UNL     1      -0.295  -4.819   1.418  0.00  0.00    +0.039 A 
INPUT-LIGAND-PDBQT: ATOM     52  C11 UNL     1       0.777  -4.173   2.028  0.00  0.00    +0.126 A 
INPUT-LIGAND-PDBQT: ATOM     53  F1  UNL     1       0.924  -4.264   3.357  0.00  0.00    -0.205 F 
INPUT-LIGAND-PDBQT: ATOM     54  C12 UNL     1       1.692  -3.443   1.284  0.00  0.00    +0.077 A 
INPUT-LIGAND-PDBQT: ATOM     55  C13 UNL     1       1.528  -3.369  -0.094  0.00  0.00    +0.130 A 
INPUT-LIGAND-PDBQT: ATOM     56  F2  UNL     1       2.420  -2.680  -0.822  0.00  0.00    -0.205 F 
INPUT-LIGAND-PDBQT: ENDBRANCH  48  49
INPUT-LIGAND-PDBQT: ENDBRANCH  45  48
INPUT-LIGAND-PDBQT: ENDBRANCH  43  44
INPUT-LIGAND-PDBQT: BRANCH  43  57
INPUT-LIGAND-PDBQT: ATOM     57  C4  UNL     1      -1.056  -1.185  -5.469  0.00  0.00    +0.028 C 
INPUT-LIGAND-PDBQT: BRANCH  57  59
INPUT-LIGAND-PDBQT: ATOM     58  C1  UNL     1      -2.356   0.923  -4.716  0.00  0.00    +0.007 C 
INPUT-LIGAND-PDBQT: ATOM     59  C2  UNL     1      -2.103  -0.100  -5.819  0.00  0.00    -0.015 C 
INPUT-LIGAND-PDBQT: ATOM     60  C3  UNL     1      -1.847   0.596  -7.156  0.00  0.00    +0.007 C 
INPUT-LIGAND-PDBQT: ENDBRANCH  57  59
INPUT-LIGAND-PDBQT: ENDBRANCH  43  57
INPUT-LIGAND-PDBQT: ENDBRANCH  40  43
INPUT-LIGAND-PDBQT: ENDBRANCH  39  40
INPUT-LIGAND-PDBQT: ENDBRANCH  35  39
INPUT-LIGAND-PDBQT: ENDBRANCH  34  37
INPUT-LIGAND-PDBQT: BRANCH  34  61
INPUT-LIGAND-PDBQT: ATOM     61  C36 UNL     1       3.461   4.006  -2.116  0.00  0.00    +0.012 C 
INPUT-LIGAND-PDBQT: ATOM     62  C37 UNL     1       4.993   3.946  -2.129  0.00  0.00    +0.009 C 
INPUT-LIGAND-PDBQT: ATOM     63  C38 UNL     1       2.987   5.310  -1.471  0.00  0.00    +0.009 C 
INPUT-LIGAND-PDBQT: ENDBRANCH  34  61
INPUT-LIGAND-PDBQT: ENDBRANCH   1  34
INPUT-LIGAND-PDBQT: TORSDOF 25


    FINAL DOCKED STATE:
    ________________________


Run:   1 / 20
Time taken for this run:   3.410s

DOCKED: MODEL        1
DOCKED: USER    Run = 1
DOCKED: USER
DOCKED: USER    Estimated Free Energy of Binding    =  +7.46 kcal/mol  [=(1)+(2)+(3)-(4)]
DOCKED: USER
DOCKED: USER    (1) Final Intermolecular Energy     =  +0.00 kcal/mol
DOCKED: USER        vdW + Hbond + desolv Energy     =  +0.00 kcal/mol
DOCKED: USER        Electrostatic Energy            =  +0.00 kcal/mol
DOCKED: USER        Moving Ligand-Fixed Receptor    =  +0.00 kcal/mol
DOCKED: USER        Moving Ligand-Moving Receptor   =  +0.00 kcal/mol
DOCKED: USER    (2) Final Total Internal Energy     = -19.64 kcal/mol
DOCKED: USER    (3) Torsional Free Energy           =  +7.46 kcal/mol
DOCKED: USER    (4) Unbound System's Energy         = -19.64 kcal/mol
DOCKED: USER
DOCKED: USER
DOCKED: REMARK  Name = ligands/ligand_30.pdb
DOCKED: REMARK  30 active torsions:
DOCKED: REMARK  status: ('A' for Active; 'I' for Inactive)
DOCKED: REMARK    1  A    between atoms: C1_1  and  C2_2
DOCKED: REMARK    2  A    between atoms: C2_2  and  C3_3
DOCKED: REMARK    3  A    between atoms: C2_2  and  C4_4
DOCKED: REMARK    4  A    between atoms: C4_4  and  C5_5
DOCKED: REMARK    5  A    between atoms: C5_5  and  N1_6
DOCKED: REMARK    6  A    between atoms: C5_5  and  C14_18
DOCKED: REMARK    7  A    between atoms: C6_7  and  C7_9
DOCKED: REMARK    8  A    between atoms: C7_9  and  C8_10
DOCKED: REMARK    9  A    between atoms: C14_18  and  O2_19
DOCKED: REMARK   10  A    between atoms: C14_18  and  C15_20
DOCKED: REMARK   11  A    between atoms: C15_20  and  C16_21
DOCKED: REMARK   12  A    between atoms: N2_23  and  C17_24
DOCKED: REMARK   13  A    between atoms: C17_24  and  C18_25
DOCKED: REMARK   14  A    between atoms: C17_24  and  C36_53
DOCKED: REMARK   15  A    between atoms: N3_27  and  C19_28
DOCKED: REMARK   16  A    between atoms: C19_28  and  C20_29
DOCKED: REMARK   17  A    between atoms: C19_28  and  C21_30
DOCKED: REMARK   18  A    between atoms: N4_32  and  C22_33
DOCKED: REMARK   19  A    between atoms: C22_33  and  C23_34
DOCKED: REMARK   20  A    between atoms: C22_33  and  C26_39
DOCKED: REMARK   21  A    between atoms: C23_34  and  C24_35
DOCKED: REMARK   22  A    between atoms: C24_35  and  C25_36
DOCKED: REMARK   23  A    between atoms: C25_36  and  O7_38
DOCKED: REMARK   24  A    between atoms: N5_41  and  C27_42
DOCKED: REMARK   25  A    between atoms: C27_42  and  C28_43
DOCKED: REMARK   26  A    between atoms: C27_42  and  C35_50
DOCKED: REMARK   27  A    between atoms: C28_43  and  C29_44
DOCKED: REMARK   28  A    between atoms: C35_50  and  O10_52
DOCKED: REMARK   29  A    between atoms: C36_53  and  C37_54
DOCKED: REMARK   30  A    between atoms: C36_53  and  C38_55
DOCKED: REMARK                            x       y       z     vdW  Elec       q    Type
DOCKED: REMARK                         _______ _______ _______ _____ _____    ______ ____
DOCKED: USER                              x       y       z     vdW  Elec       q    Type
DOCKED: USER                           _______ _______ _______ _____ _____    ______ ____
DOCKED: ROOT
DOCKED: ATOM      1  C18 UNL     1       7.066   0.280   0.724 +0.00 +0.00    +0.234 C  
DOCKED: ATOM      2  O4  UNL     1       6.650  -0.380   1.676 +0.00 -0.00    -0.274 OA 
DOCKED: ATOM      3  N3  UNL     1       6.469   0.301  -0.516 +0.00 -0.00    -0.303 N  
DOCKED: ATOM      4  H23 UNL     1       7.072   0.623  -1.270 +0.00 +0.00    +0.149 HD 
DOCKED: ENDROOT
DOCKED: BRANCH   3   5
DOCKED: ATOM      5  C19 UNL     1       5.490  -0.691  -0.983 +0.00 +0.00    +0.156 C  
DOCKED: ATOM      6  C20 UNL     1       4.048  -0.444  -0.572 +0.00 +0.00    +0.038 C  
DOCKED: BRANCH   5   7
DOCKED: ATOM      7  C21 UNL     1       6.080  -2.076  -0.631 +0.00 +0.00    +0.234 C  
DOCKED: ATOM      8  O5  UNL     1       6.842  -2.650  -1.418 +0.00 -0.00    -0.274 OA 
DOCKED: ATOM      9  N4  UNL     1       5.616  -2.693   0.508 +0.00 -0.00    -0.302 N  
DOCKED: ATOM     10  H28 UNL     1       5.348  -2.072   1.273 +0.00 +0.00    +0.150 HD 
DOCKED: BRANCH   9  11
DOCKED: ATOM     11  C22 UNL     1       6.185  -3.976   0.904 +0.00 +0.00    +0.159 C  
DOCKED: BRANCH  11  12
DOCKED: ATOM     12  C26 UNL     1       7.638  -3.799   1.394 +0.00 +0.00    +0.234 C  
DOCKED: ATOM     13  O8  UNL     1       8.598  -4.313   0.824 +0.00 -0.00    -0.274 OA 
DOCKED: ATOM     14  N5  UNL     1       7.766  -2.965   2.485 +0.00 -0.00    -0.301 N  
DOCKED: ATOM     15  H35 UNL     1       6.987  -2.357   2.703 +0.00 +0.00    +0.150 HD 
DOCKED: BRANCH  14  16
DOCKED: ATOM     16  C27 UNL     1       9.085  -2.512   2.946 +0.00 +0.00    +0.186 C  
DOCKED: BRANCH  16  17
DOCKED: ATOM     17  C35 UNL     1       8.867  -1.127   3.561 +0.00 +0.00    +0.326 C  
DOCKED: ATOM     18  O9  UNL     1       9.663  -0.194   3.517 +0.00 -0.00    -0.249 OA 
DOCKED: BRANCH  17  19
DOCKED: ATOM     19  O10 UNL     1       7.672  -0.976   4.159 +0.00 -0.00    -0.479 OA 
DOCKED: ATOM     20  H44 UNL     1       7.025  -1.368   3.535 +0.00 +0.00    +0.295 HD 
DOCKED: ENDBRANCH  17  19
DOCKED: ENDBRANCH  16  17
DOCKED: BRANCH  16  21
DOCKED: ATOM     21  C28 UNL     1       9.628  -3.485   3.999 +0.00 +0.00    +0.069 C  
DOCKED: BRANCH  21  22
DOCKED: ATOM     22  C29 UNL     1       9.191  -4.914   3.791 +0.00 -0.00    -0.045 A  
DOCKED: ATOM     23  C30 UNL     1       7.967  -5.359   4.311 +0.00 +0.00    +0.004 A  
DOCKED: ATOM     24  C31 UNL     1       7.566  -6.685   4.148 +0.00 +0.00    +0.000 A  
DOCKED: ATOM     25  C32 UNL     1       8.375  -7.580   3.453 +0.00 +0.00    +0.000 A  
DOCKED: ATOM     26  C33 UNL     1       9.593  -7.148   2.926 +0.00 +0.00    +0.000 A  
DOCKED: ATOM     27  C34 UNL     1      10.001  -5.823   3.096 +0.00 +0.00    +0.004 A  
DOCKED: ENDBRANCH  21  22
DOCKED: ENDBRANCH  16  21
DOCKED: ENDBRANCH  14  16
DOCKED: ENDBRANCH  11  12
DOCKED: BRANCH  11  28
DOCKED: ATOM     28  C23 UNL     1       5.328  -4.702   1.956 +0.00 +0.00    +0.043 C  
DOCKED: BRANCH  28  29
DOCKED: ATOM     29  C24 UNL     1       4.388  -3.825   2.784 +0.00 +0.00    +0.123 C  
DOCKED: BRANCH  29  30
DOCKED: ATOM     30  C25 UNL     1       5.127  -2.755   3.537 +0.00 +0.00    +0.305 C  
DOCKED: ATOM     31  O6  UNL     1       5.864  -2.932   4.494 +0.00 -0.00    -0.251 OA 
DOCKED: BRANCH  30  32
DOCKED: ATOM     32  O7  UNL     1       4.940  -1.525   3.025 +0.00 -0.00    -0.481 OA 
DOCKED: ATOM     33  H34 UNL     1       5.609  -0.969   3.474 +0.00 +0.00    +0.295 HD 
DOCKED: ENDBRANCH  30  32
DOCKED: ENDBRANCH  29  30
DOCKED: ENDBRANCH  28  29
DOCKED: ENDBRANCH  11  28
DOCKED: ENDBRANCH   9  11
DOCKED: ENDBRANCH   5   7
DOCKED: ENDBRANCH   3   5
DOCKED: BRANCH   1  34
DOCKED: ATOM     34  C17 UNL     1       8.314   1.189   0.872 +0.00 +0.00    +0.161 C  
DOCKED: BRANCH  34  37
DOCKED: ATOM     35  C16 UNL     1       9.636  -0.542  -0.331 +0.00 +0.00    +0.216 C  
DOCKED: ATOM     36  O3  UNL     1       8.834  -0.630  -1.258 +0.00 -0.00    -0.276 OA 
DOCKED: ATOM     37  N2  UNL     1       9.480   0.315   0.726 +0.00 -0.00    -0.304 N  
DOCKED: ATOM     38  H21 UNL     1      10.068   0.219   1.552 +0.00 +0.00    +0.149 HD 
DOCKED: BRANCH  35  39
DOCKED: ATOM     39  C15 UNL     1      10.942  -1.309  -0.307 +0.00 +0.00    +0.129 C  
DOCKED: BRANCH  39  40
DOCKED: ATOM     40  C14 UNL     1      10.861  -2.660  -1.035 +0.00 +0.00    +0.143 C  
DOCKED: BRANCH  40  41
DOCKED: ATOM     41  O2  UNL     1       9.511  -2.944  -1.377 +0.00 -0.00    -0.389 OA 
DOCKED: ATOM     42  H18 UNL     1       8.963  -2.698  -0.599 +0.00 +0.00    +0.210 HD 
DOCKED: ENDBRANCH  40  41
DOCKED: BRANCH  40  43
DOCKED: ATOM     43  C5  UNL     1      11.554  -3.812  -0.255 +0.00 +0.00    +0.102 C  
DOCKED: BRANCH  43  44
DOCKED: ATOM     44  N1  UNL     1      10.847  -5.073  -0.549 +0.00 -0.00    -0.310 N  
DOCKED: ATOM     45  C6  UNL     1      11.367  -6.304  -0.198 +0.00 +0.00    +0.218 C  
DOCKED: ATOM     46  O1  UNL     1      12.482  -6.443   0.294 +0.00 -0.00    -0.275 OA 
DOCKED: ATOM     47  H11 UNL     1       9.853  -5.015  -0.724 +0.00 +0.00    +0.149 HD 
DOCKED: BRANCH  45  48
DOCKED: ATOM     48  C7  UNL     1      10.417  -7.465  -0.446 +0.00 +0.00    +0.133 C  
DOCKED: BRANCH  48  49
DOCKED: ATOM     49  C8  UNL     1       9.050  -7.027  -0.901 +0.00 -0.00    -0.003 A  
DOCKED: ATOM     50  C9  UNL     1       7.931  -7.159  -0.068 +0.00 +0.00    +0.010 A  
DOCKED: ATOM     51  C10 UNL     1       6.674  -6.742  -0.512 +0.00 +0.00    +0.039 A  
DOCKED: ATOM     52  C11 UNL     1       6.540  -6.198  -1.787 +0.00 +0.00    +0.126 A  
DOCKED: ATOM     53  F1  UNL     1       5.331  -5.793  -2.201 +0.00 -0.00    -0.205 F  
DOCKED: ATOM     54  C12 UNL     1       7.634  -6.066  -2.629 +0.00 +0.00    +0.077 A  
DOCKED: ATOM     55  C13 UNL     1       8.881  -6.482  -2.178 +0.00 +0.00    +0.130 A  
DOCKED: ATOM     56  F2  UNL     1       9.947  -6.340  -2.981 +0.00 -0.00    -0.205 F  
DOCKED: ENDBRANCH  48  49
DOCKED: ENDBRANCH  45  48
DOCKED: ENDBRANCH  43  44
DOCKED: BRANCH  43  57
DOCKED: ATOM     57  C4  UNL     1      11.563  -3.621   1.285 +0.00 +0.00    +0.028 C  
DOCKED: BRANCH  57  59
DOCKED: ATOM     58  C1  UNL     1      12.633  -1.703   2.654 +0.00 +0.00    +0.007 C  
DOCKED: ATOM     59  C2  UNL     1      12.824  -3.061   1.986 +0.00 -0.00    -0.015 C  
DOCKED: ATOM     60  C3  UNL     1      13.488  -4.049   2.946 +0.00 +0.00    +0.007 C  
DOCKED: ENDBRANCH  57  59
DOCKED: ENDBRANCH  43  57
DOCKED: ENDBRANCH  40  43
DOCKED: ENDBRANCH  39  40
DOCKED: ENDBRANCH  35  39
DOCKED: ENDBRANCH  34  37
DOCKED: BRANCH  34  61
DOCKED: ATOM     61  C36 UNL     1       8.399   1.968   2.207 +0.00 +0.00    +0.012 C  
DOCKED: ATOM     62  C37 UNL     1       7.067   2.609   2.614 +0.00 +0.00    +0.009 C  
DOCKED: ATOM     63  C38 UNL     1       9.514   3.015   2.213 +0.00 +0.00    +0.009 C  
DOCKED: ENDBRANCH  34  61
DOCKED: ENDBRANCH   1  34
DOCKED: TORSDOF 25
DOCKED: TER
DOCKED: ENDMDL
________________________________________________________________________________


    FINAL DOCKED STATE:
    ________________________


Run:   2 / 20
Time taken for this run:   3.410s

DOCKED: MODEL        2
DOCKED: USER    Run = 2
DOCKED: USER
DOCKED: USER    Estimated Free Energy of Binding    =  +7.46 kcal/mol  [=(1)+(2)+(3)-(4)]
DOCKED: USER
DOCKED: USER    (1) Final Intermolecular Energy     =  +0.00 kcal/mol
DOCKED: USER        vdW + Hbond + desolv Energy     =  +0.00 kcal/mol
DOCKED: USER        Electrostatic Energy            =  +0.00 kcal/mol
DOCKED: USER        Moving Ligand-Fixed Receptor    =  +0.00 kcal/mol
DOCKED: USER        Moving Ligand-Moving Receptor   =  +0.00 kcal/mol
DOCKED: USER    (2) Final Total Internal Energy     = -19.27 kcal/mol
DOCKED: USER    (3) Torsional Free Energy           =  +7.46 kcal/mol
DOCKED: USER    (4) Unbound System's Energy         = -19.27 kcal/mol
DOCKED: USER
DOCKED: USER
DOCKED: REMARK  Name = ligands/ligand_30.pdb
DOCKED: REMARK  30 active torsions:
DOCKED: REMARK  status: ('A' for Active; 'I' for Inactive)
DOCKED: REMARK    1  A    between atoms: C1_1  and  C2_2
DOCKED: REMARK    2  A    between atoms: C2_2  and  C3_3
DOCKED: REMARK    3  A    between atoms: C2_2  and  C4_4
DOCKED: REMARK    4  A    between atoms: C4_4  and  C5_5
DOCKED: REMARK    5  A    between atoms: C5_5  and  N1_6
DOCKED: REMARK    6  A    between atoms: C5_5  and  C14_18
DOCKED: REMARK    7  A    between atoms: C6_7  and  C7_9
DOCKED: REMARK    8  A    between atoms: C7_9  and  C8_10
DOCKED: REMARK    9  A    between atoms: C14_18  and  O2_19
DOCKED: REMARK   10  A    between atoms: C14_18  and  C15_20
DOCKED: REMARK   11  A    between atoms: C15_20  and  C16_21
DOCKED: REMARK   12  A    between atoms: N2_23  and  C17_24
DOCKED: REMARK   13  A    between atoms: C17_24  and  C18_25
DOCKED: REMARK   14  A    between atoms: C17_24  and  C36_53
DOCKED: REMARK   15  A    between atoms: N3_27  and  C19_28
DOCKED: REMARK   16  A    between atoms: C19_28  and  C20_29
DOCKED: REMARK   17  A    between atoms: C19_28  and  C21_30
DOCKED: REMARK   18  A    between atoms: N4_32  and  C22_33
DOCKED: REMARK   19  A    between atoms: C22_33  and  C23_34
DOCKED: REMARK   20  A    between atoms: C22_33  and  C26_39
DOCKED: REMARK   21  A    between atoms: C23_34  and  C24_35
DOCKED: REMARK   22  A    between atoms: C24_35  and  C25_36
DOCKED: REMARK   23  A    between atoms: C25_36  and  O7_38
DOCKED: REMARK   24  A    between atoms: N5_41  and  C27_42
DOCKED: REMARK   25  A    between atoms: C27_42  and  C28_43
DOCKED: REMARK   26  A    between atoms: C27_42  and  C35_50
DOCKED: REMARK   27  A    between atoms: C28_43  and  C29_44
DOCKED: REMARK   28  A    between atoms: C35_50  and  O10_52
DOCKED: REMARK   29  A    between atoms: C36_53  and  C37_54
DOCKED: REMARK   30  A    between atoms: C36_53  and  C38_55
DOCKED: REMARK                            x       y       z     vdW  Elec       q    Type
DOCKED: REMARK                         _______ _______ _______ _____ _____    ______ ____
DOCKED: USER                              x       y       z     vdW  Elec       q    Type
DOCKED: USER                           _______ _______ _______ _____ _____    ______ ____
DOCKED: ROOT
DOCKED: ATOM      1  C18 UNL     1      11.597  -3.737   4.577 +0.00 +0.00    +0.234 C  
DOCKED: ATOM      2  O4  UNL     1      10.939  -4.497   5.288 +0.00 -0.00    -0.274 OA 
DOCKED: ATOM      3  N3  UNL     1      11.093  -2.589   4.007 +0.00 -0.00    -0.303 N  
DOCKED: ATOM      4  H23 UNL     1      11.629  -2.239   3.217 +0.00 +0.00    +0.149 HD 
DOCKED: ENDROOT
DOCKED: BRANCH   3   5
DOCKED: ATOM      5  C19 UNL     1       9.660  -2.289   3.872 +0.00 +0.00    +0.156 C  
DOCKED: ATOM      6  C20 UNL     1       8.971  -1.767   5.123 +0.00 +0.00    +0.038 C  
DOCKED: BRANCH   5   7
DOCKED: ATOM      7  C21 UNL     1       9.023  -3.527   3.200 +0.00 +0.00    +0.234 C  
DOCKED: ATOM      8  O5  UNL     1       8.722  -3.502   2.001 +0.00 -0.00    -0.274 OA 
DOCKED: ATOM      9  N4  UNL     1       8.680  -4.584   4.012 +0.00 -0.00    -0.302 N  
DOCKED: ATOM     10  H28 UNL     1       9.274  -4.729   4.830 +0.00 +0.00    +0.150 HD 
DOCKED: BRANCH   9  11
DOCKED: ATOM     11  C22 UNL     1       8.125  -5.791   3.411 +0.00 +0.00    +0.159 C  
DOCKED: BRANCH  11  12
DOCKED: ATOM     12  C26 UNL     1       9.204  -6.542   2.603 +0.00 +0.00    +0.234 C  
DOCKED: ATOM     13  O8  UNL     1       8.969  -7.086   1.527 +0.00 -0.00    -0.274 OA 
DOCKED: ATOM     14  N5  UNL     1      10.462  -6.494   3.165 +0.00 -0.00    -0.301 N  
DOCKED: ATOM     15  H35 UNL     1      10.632  -5.791   3.874 +0.00 +0.00    +0.150 HD 
DOCKED: BRANCH  14  16
DOCKED: ATOM     16  C27 UNL     1      11.644  -6.964   2.429 +0.00 +0.00    +0.186 C  
DOCKED: BRANCH  16  17
DOCKED: ATOM     17  C35 UNL     1      11.521  -8.488   2.357 +0.00 +0.00    +0.326 C  
DOCKED: ATOM     18  O9  UNL     1      11.786  -9.179   1.378 +0.00 -0.00    -0.249 OA 
DOCKED: BRANCH  17  19
DOCKED: ATOM     19  O10 UNL     1      11.112  -9.059   3.504 +0.00 -0.00    -0.479 OA 
DOCKED: ATOM     20  H44 UNL     1      10.946  -8.309   4.115 +0.00 +0.00    +0.295 HD 
DOCKED: ENDBRANCH  17  19
DOCKED: ENDBRANCH  16  17
DOCKED: BRANCH  16  21
DOCKED: ATOM     21  C28 UNL     1      11.650  -6.360   1.020 +0.00 +0.00    +0.069 C  
DOCKED: BRANCH  21  22
DOCKED: ATOM     22  C29 UNL     1      12.274  -4.988   0.948 +0.00 -0.00    -0.045 A  
DOCKED: ATOM     23  C30 UNL     1      13.664  -4.842   1.051 +0.00 +0.00    +0.004 A  
DOCKED: ATOM     24  C31 UNL     1      14.250  -3.576   1.014 +0.00 +0.00    +0.000 A  
DOCKED: ATOM     25  C32 UNL     1      13.457  -2.443   0.859 +0.00 +0.00    +0.000 A  
DOCKED: ATOM     26  C33 UNL     1      12.071  -2.576   0.750 +0.00 +0.00    +0.000 A  
DOCKED: ATOM     27  C34 UNL     1      11.482  -3.841   0.797 +0.00 +0.00    +0.004 A  
DOCKED: ENDBRANCH  21  22
DOCKED: ENDBRANCH  16  21
DOCKED: ENDBRANCH  14  16
DOCKED: ENDBRANCH  11  12
DOCKED: BRANCH  11  28
DOCKED: ATOM     28  C23 UNL     1       7.462  -6.715   4.447 +0.00 +0.00    +0.043 C  
DOCKED: BRANCH  28  29
DOCKED: ATOM     29  C24 UNL     1       8.131  -8.073   4.669 +0.00 +0.00    +0.123 C  
DOCKED: BRANCH  29  30
DOCKED: ATOM     30  C25 UNL     1       9.371  -7.962   5.510 +0.00 +0.00    +0.305 C  
DOCKED: ATOM     31  O6  UNL     1       9.989  -8.893   6.002 +0.00 -0.00    -0.251 OA 
DOCKED: BRANCH  30  32
DOCKED: ATOM     32  O7  UNL     1       9.800  -6.695   5.654 +0.00 -0.00    -0.481 OA 
DOCKED: ATOM     33  H34 UNL     1      10.703  -6.697   5.277 +0.00 +0.00    +0.295 HD 
DOCKED: ENDBRANCH  30  32
DOCKED: ENDBRANCH  29  30
DOCKED: ENDBRANCH  28  29
DOCKED: ENDBRANCH  11  28
DOCKED: ENDBRANCH   9  11
DOCKED: ENDBRANCH   5   7
DOCKED: ENDBRANCH   3   5
DOCKED: BRANCH   1  34
DOCKED: ATOM     34  C17 UNL     1      13.095  -4.013   4.292 +0.00 +0.00    +0.161 C  
DOCKED: BRANCH  34  37
DOCKED: ATOM     35  C16 UNL     1      14.467  -6.088   4.368 +0.00 +0.00    +0.216 C  
DOCKED: ATOM     36  O3  UNL     1      15.350  -5.631   3.645 +0.00 -0.00    -0.276 OA 
DOCKED: ATOM     37  N2  UNL     1      13.356  -5.381   4.747 +0.00 -0.00    -0.304 N  
DOCKED: ATOM     38  H21 UNL     1      12.572  -5.858   5.187 +0.00 +0.00    +0.149 HD 
DOCKED: BRANCH  35  39
DOCKED: ATOM     39  C15 UNL     1      14.560  -7.461   5.001 +0.00 +0.00    +0.129 C  
DOCKED: BRANCH  39  40
DOCKED: ATOM     40  C14 UNL     1      13.343  -7.806   5.872 +0.00 +0.00    +0.143 C  
DOCKED: BRANCH  40  41
DOCKED: ATOM     41  O2  UNL     1      12.144  -7.546   5.153 +0.00 -0.00    -0.389 OA 
DOCKED: ATOM     42  H18 UNL     1      11.473  -8.186   5.480 +0.00 +0.00    +0.210 HD 
DOCKED: ENDBRANCH  40  41
DOCKED: BRANCH  40  43
DOCKED: ATOM     43  C5  UNL     1      13.382  -7.125   7.269 +0.00 +0.00    +0.102 C  
DOCKED: BRANCH  43  44
DOCKED: ATOM     44  N1  UNL     1      12.177  -6.287   7.420 +0.00 -0.00    -0.310 N  
DOCKED: ATOM     45  C6  UNL     1      11.979  -5.481   8.524 +0.00 +0.00    +0.218 C  
DOCKED: ATOM     46  O1  UNL     1      12.735  -5.472   9.490 +0.00 -0.00    -0.275 OA 
DOCKED: ATOM     47  H11 UNL     1      11.657  -6.071   6.581 +0.00 +0.00    +0.149 HD 
DOCKED: BRANCH  45  48
DOCKED: ATOM     48  C7  UNL     1      10.757  -4.581   8.416 +0.00 +0.00    +0.133 C  
DOCKED: BRANCH  48  49
DOCKED: ATOM     49  C8  UNL     1       9.466  -5.346   8.291 +0.00 -0.00    -0.003 A  
DOCKED: ATOM     50  C9  UNL     1       9.350  -6.658   8.769 +0.00 +0.00    +0.010 A  
DOCKED: ATOM     51  C10 UNL     1       8.140  -7.344   8.644 +0.00 +0.00    +0.039 A  
DOCKED: ATOM     52  C11 UNL     1       7.053  -6.719   8.040 +0.00 +0.00    +0.126 A  
DOCKED: ATOM     53  F1  UNL     1       5.894  -7.384   7.933 +0.00 -0.00    -0.205 F  
DOCKED: ATOM     54  C12 UNL     1       7.149  -5.424   7.554 +0.00 +0.00    +0.077 A  
DOCKED: ATOM     55  C13 UNL     1       8.356  -4.748   7.684 +0.00 +0.00    +0.130 A  
DOCKED: ATOM     56  F2  UNL     1       8.451  -3.488   7.232 +0.00 -0.00    -0.205 F  
DOCKED: ENDBRANCH  48  49
DOCKED: ENDBRANCH  45  48
DOCKED: ENDBRANCH  43  44
DOCKED: BRANCH  43  57
DOCKED: ATOM     57  C4  UNL     1      14.621  -6.219   7.499 +0.00 +0.00    +0.028 C  
DOCKED: BRANCH  57  59
DOCKED: ATOM     58  C1  UNL     1      16.133  -5.354   9.415 +0.00 +0.00    +0.007 C  
DOCKED: ATOM     59  C2  UNL     1      15.627  -6.558   8.626 +0.00 -0.00    -0.015 C  
DOCKED: ATOM     60  C3  UNL     1      15.147  -7.662   9.569 +0.00 +0.00    +0.007 C  
DOCKED: ENDBRANCH  57  59
DOCKED: ENDBRANCH  43  57
DOCKED: ENDBRANCH  40  43
DOCKED: ENDBRANCH  39  40
DOCKED: ENDBRANCH  35  39
DOCKED: ENDBRANCH  34  37
DOCKED: BRANCH  34  61
DOCKED: ATOM     61  C36 UNL     1      14.081  -3.031   4.972 +0.00 +0.00    +0.012 C  
DOCKED: ATOM     62  C37 UNL     1      13.821  -2.866   6.474 +0.00 +0.00    +0.009 C  
DOCKED: ATOM     63  C38 UNL     1      14.122  -1.663   4.288 +0.00 +0.00    +0.009 C  
DOCKED: ENDBRANCH  34  61
DOCKED: ENDBRANCH   1  34
DOCKED: TORSDOF 25
DOCKED: TER
DOCKED: ENDMDL
________________________________________________________________________________


    FINAL DOCKED STATE:
    ________________________


Run:   3 / 20
Time taken for this run:   3.410s

DOCKED: MODEL        3
DOCKED: USER    Run = 3
DOCKED: USER
DOCKED: USER    Estimated Free Energy of Binding    =  +7.46 kcal/mol  [=(1)+(2)+(3)-(4)]
DOCKED: USER
DOCKED: USER    (1) Final Intermolecular Energy     =  +0.00 kcal/mol
DOCKED: USER        vdW + Hbond + desolv Energy     =  +0.00 kcal/mol
DOCKED: USER        Electrostatic Energy            =  +0.00 kcal/mol
DOCKED: USER        Moving Ligand-Fixed Receptor    =  +0.00 kcal/mol
DOCKED: USER        Moving Ligand-Moving Receptor   =  +0.00 kcal/mol
DOCKED: USER    (2) Final Total Internal Energy     = -19.63 kcal/mol
DOCKED: USER    (3) Torsional Free Energy           =  +7.46 kcal/mol
DOCKED: USER    (4) Unbound System's Energy         = -19.63 kcal/mol
DOCKED: USER
DOCKED: USER
DOCKED: REMARK  Name = ligands/ligand_30.pdb
DOCKED: REMARK  30 active torsions:
DOCKED: REMARK  status: ('A' for Active; 'I' for Inactive)
DOCKED: REMARK    1  A    between atoms: C1_1  and  C2_2
DOCKED: REMARK    2  A    between atoms: C2_2  and  C3_3
DOCKED: REMARK    3  A    between atoms: C2_2  and  C4_4
DOCKED: REMARK    4  A    between atoms: C4_4  and  C5_5
DOCKED: REMARK    5  A    between atoms: C5_5  and  N1_6
DOCKED: REMARK    6  A    between atoms: C5_5  and  C14_18
DOCKED: REMARK    7  A    between atoms: C6_7  and  C7_9
DOCKED: REMARK    8  A    between atoms: C7_9  and  C8_10
DOCKED: REMARK    9  A    between atoms: C14_18  and  O2_19
DOCKED: REMARK   10  A    between atoms: C14_18  and  C15_20
DOCKED: REMARK   11  A    between atoms: C15_20  and  C16_21
DOCKED: REMARK   12  A    between atoms: N2_23  and  C17_24
DOCKED: REMARK   13  A    between atoms: C17_24  and  C18_25
DOCKED: REMARK   14  A    between atoms: C17_24  and  C36_53
DOCKED: REMARK   15  A    between atoms: N3_27  and  C19_28
DOCKED: REMARK   16  A    between atoms: C19_28  and  C20_29
DOCKED: REMARK   17  A    between atoms: C19_28  and  C21_30
DOCKED: REMARK   18  A    between atoms: N4_32  and  C22_33
DOCKED: REMARK   19  A    between atoms: C22_33  and  C23_34
DOCKED: REMARK   20  A    between atoms: C22_33  and  C26_39
DOCKED: REMARK   21  A    between atoms: C23_34  and  C24_35
DOCKED: REMARK   22  A    between atoms: C24_35  and  C25_36
DOCKED: REMARK   23  A    between atoms: C25_36  and  O7_38
DOCKED: REMARK   24  A    between atoms: N5_41  and  C27_42
DOCKED: REMARK   25  A    between atoms: C27_42  and  C28_43
DOCKED: REMARK   26  A    between atoms: C27_42  and  C35_50
DOCKED: REMARK   27  A    between atoms: C28_43  and  C29_44
DOCKED: REMARK   28  A    between atoms: C35_50  and  O10_52
DOCKED: REMARK   29  A    between atoms: C36_53  and  C37_54
DOCKED: REMARK   30  A    between atoms: C36_53  and  C38_55
DOCKED: REMARK                            x       y       z     vdW  Elec       q    Type
DOCKED: REMARK                         _______ _______ _______ _____ _____    ______ ____
DOCKED: USER                              x       y       z     vdW  Elec       q    Type
DOCKED: USER                           _______ _______ _______ _____ _____    ______ ____
DOCKED: ROOT
DOCKED: ATOM      1  C18 UNL     1      14.780  -4.466  -6.273 +0.00 +0.00    +0.234 C  
DOCKED: ATOM      2  O4  UNL     1      14.458  -5.601  -6.627 +0.00 -0.00    -0.274 OA 
DOCKED: ATOM      3  N3  UNL     1      15.380  -4.178  -5.068 +0.00 -0.00    -0.303 N  
DOCKED: ATOM      4  H23 UNL     1      15.304  -3.206  -4.779 +0.00 +0.00    +0.149 HD 
DOCKED: ENDROOT
DOCKED: BRANCH   3   5
DOCKED: ATOM      5  C19 UNL     1      15.409  -5.091  -3.915 +0.00 +0.00    +0.156 C  
DOCKED: ATOM      6  C20 UNL     1      16.521  -6.127  -3.919 +0.00 +0.00    +0.038 C  
DOCKED: BRANCH   5   7
DOCKED: ATOM      7  C21 UNL     1      13.968  -5.627  -3.755 +0.00 +0.00    +0.234 C  
DOCKED: ATOM      8  O5  UNL     1      13.142  -5.006  -3.076 +0.00 -0.00    -0.274 OA 
DOCKED: ATOM      9  N4  UNL     1      13.693  -6.872  -4.272 +0.00 -0.00    -0.302 N  
DOCKED: ATOM     10  H28 UNL     1      14.216  -7.133  -5.109 +0.00 +0.00    +0.150 HD 
DOCKED: BRANCH   9  11
DOCKED: ATOM     11  C22 UNL     1      12.332  -7.392  -4.188 +0.00 +0.00    +0.159 C  
DOCKED: BRANCH  11  12
DOCKED: ATOM     12  C26 UNL     1      11.392  -6.608  -5.127 +0.00 +0.00    +0.234 C  
DOCKED: ATOM     13  O8  UNL     1      10.450  -5.936  -4.714 +0.00 -0.00    -0.274 OA 
DOCKED: ATOM     14  N5  UNL     1      11.740  -6.680  -6.459 +0.00 -0.00    -0.301 N  
DOCKED: ATOM     15  H35 UNL     1      12.676  -6.994  -6.682 +0.00 +0.00    +0.150 HD 
DOCKED: BRANCH  14  16
DOCKED: ATOM     16  C27 UNL     1      11.092  -5.825  -7.463 +0.00 +0.00    +0.186 C  
DOCKED: BRANCH  16  17
DOCKED: ATOM     17  C35 UNL     1      12.147  -5.562  -8.541 +0.00 +0.00    +0.326 C  
DOCKED: ATOM     18  O9  UNL     1      12.274  -4.518  -9.174 +0.00 -0.00    -0.249 OA 
DOCKED: BRANCH  17  19
DOCKED: ATOM     19  O10 UNL     1      12.992  -6.588  -8.742 +0.00 -0.00    -0.479 OA 
DOCKED: ATOM     20  H44 UNL     1      13.241  -6.891  -7.843 +0.00 +0.00    +0.295 HD 
DOCKED: ENDBRANCH  17  19
DOCKED: ENDBRANCH  16  17
DOCKED: BRANCH  16  21
DOCKED: ATOM     21  C28 UNL     1       9.885  -6.555  -8.064 +0.00 +0.00    +0.069 C  
DOCKED: BRANCH  21  22
DOCKED: ATOM     22  C29 UNL     1       9.213  -7.510  -7.108 +0.00 -0.00    -0.045 A  
DOCKED: ATOM     23  C30 UNL     1       8.122  -7.083  -6.338 +0.00 +0.00    +0.004 A  
DOCKED: ATOM     24  C31 UNL     1       7.511  -7.949  -5.431 +0.00 +0.00    +0.000 A  
DOCKED: ATOM     25  C32 UNL     1       7.973  -9.255  -5.290 +0.00 +0.00    +0.000 A  
DOCKED: ATOM     26  C33 UNL     1       9.056  -9.693  -6.054 +0.00 +0.00    +0.000 A  
DOCKED: ATOM     27  C34 UNL     1       9.675  -8.825  -6.957 +0.00 +0.00    +0.004 A  
DOCKED: ENDBRANCH  21  22
DOCKED: ENDBRANCH  16  21
DOCKED: ENDBRANCH  14  16
DOCKED: ENDBRANCH  11  12
DOCKED: BRANCH  11  28
DOCKED: ATOM     28  C23 UNL     1      12.260  -8.904  -4.463 +0.00 +0.00    +0.043 C  
DOCKED: BRANCH  28  29
DOCKED: ATOM     29  C24 UNL     1      13.421  -9.503  -5.258 +0.00 +0.00    +0.123 C  
DOCKED: BRANCH  29  30
DOCKED: ATOM     30  C25 UNL     1      13.571  -8.864  -6.610 +0.00 +0.00    +0.305 C  
DOCKED: ATOM     31  O6  UNL     1      12.809  -8.999  -7.554 +0.00 -0.00    -0.251 OA 
DOCKED: BRANCH  30  32
DOCKED: ATOM     32  O7  UNL     1      14.641  -8.053  -6.695 +0.00 -0.00    -0.481 OA 
DOCKED: ATOM     33  H34 UNL     1      14.511  -7.562  -7.532 +0.00 +0.00    +0.295 HD 
DOCKED: ENDBRANCH  30  32
DOCKED: ENDBRANCH  29  30
DOCKED: ENDBRANCH  28  29
DOCKED: ENDBRANCH  11  28
DOCKED: ENDBRANCH   9  11
DOCKED: ENDBRANCH   5   7
DOCKED: ENDBRANCH   3   5
DOCKED: BRANCH   1  34
DOCKED: ATOM     34  C17 UNL     1      14.552  -3.248  -7.205 +0.00 +0.00    +0.161 C  
DOCKED: BRANCH  34  37
DOCKED: ATOM     35  C16 UNL     1      12.579  -2.636  -5.816 +0.00 +0.00    +0.216 C  
DOCKED: ATOM     36  O3  UNL     1      13.197  -2.709  -4.757 +0.00 -0.00    -0.276 OA 
DOCKED: ATOM     37  N2  UNL     1      13.148  -2.861  -7.042 +0.00 -0.00    -0.304 N  
DOCKED: ATOM     38  H21 UNL     1      12.560  -2.972  -7.866 +0.00 +0.00    +0.149 HD 
DOCKED: BRANCH  35  39
DOCKED: ATOM     39  C15 UNL     1      11.133  -2.194  -5.888 +0.00 +0.00    +0.129 C  
DOCKED: BRANCH  39  40
DOCKED: ATOM     40  C14 UNL     1      10.325  -2.571  -4.637 +0.00 +0.00    +0.143 C  
DOCKED: BRANCH  40  41
DOCKED: ATOM     41  O2  UNL     1      11.101  -3.413  -3.795 +0.00 -0.00    -0.389 OA 
DOCKED: ATOM     42  H18 UNL     1      11.540  -4.071  -4.379 +0.00 +0.00    +0.210 HD 
DOCKED: ENDBRANCH  40  41
DOCKED: BRANCH  40  43
DOCKED: ATOM     43  C5  UNL     1       8.925  -3.158  -4.972 +0.00 +0.00    +0.102 C  
DOCKED: BRANCH  43  44
DOCKED: ATOM     44  N1  UNL     1       8.557  -4.129  -3.924 +0.00 -0.00    -0.310 N  
DOCKED: ATOM     45  C6  UNL     1       7.283  -4.654  -3.825 +0.00 +0.00    +0.218 C  
DOCKED: ATOM     46  O1  UNL     1       6.352  -4.287  -4.535 +0.00 -0.00    -0.275 OA 
DOCKED: ATOM     47  H11 UNL     1       9.310  -4.637  -3.480 +0.00 +0.00    +0.149 HD 
DOCKED: BRANCH  45  48
DOCKED: ATOM     48  C7  UNL     1       7.150  -5.752  -2.781 +0.00 +0.00    +0.133 C  
DOCKED: BRANCH  48  49
DOCKED: ATOM     49  C8  UNL     1       8.465  -6.146  -2.163 +0.00 -0.00    -0.003 A  
DOCKED: ATOM     50  C9  UNL     1       9.044  -7.395  -2.423 +0.00 +0.00    +0.010 A  
DOCKED: ATOM     51  C10 UNL     1      10.266  -7.735  -1.840 +0.00 +0.00    +0.039 A  
DOCKED: ATOM     52  C11 UNL     1      10.904  -6.828  -0.998 +0.00 +0.00    +0.126 A  
DOCKED: ATOM     53  F1  UNL     1      12.081  -7.161  -0.450 +0.00 -0.00    -0.205 F  
DOCKED: ATOM     54  C12 UNL     1      10.343  -5.590  -0.722 +0.00 +0.00    +0.077 A  
DOCKED: ATOM     55  C13 UNL     1       9.127  -5.259  -1.308 +0.00 +0.00    +0.130 A  
DOCKED: ATOM     56  F2  UNL     1       8.588  -4.055  -1.060 +0.00 -0.00    -0.205 F  
DOCKED: ENDBRANCH  48  49
DOCKED: ENDBRANCH  45  48
DOCKED: ENDBRANCH  43  44
DOCKED: BRANCH  43  57
DOCKED: ATOM     57  C4  UNL     1       8.853  -3.887  -6.340 +0.00 +0.00    +0.028 C  
DOCKED: BRANCH  57  59
DOCKED: ATOM     58  C1  UNL     1       9.307  -2.931  -8.702 +0.00 +0.00    +0.007 C  
DOCKED: ATOM     59  C2  UNL     1       8.296  -3.147  -7.580 +0.00 -0.00    -0.015 C  
DOCKED: ATOM     60  C3  UNL     1       7.000  -3.746  -8.126 +0.00 +0.00    +0.007 C  
DOCKED: ENDBRANCH  57  59
DOCKED: ENDBRANCH  43  57
DOCKED: ENDBRANCH  40  43
DOCKED: ENDBRANCH  39  40
DOCKED: ENDBRANCH  35  39
DOCKED: ENDBRANCH  34  37
DOCKED: BRANCH  34  61
DOCKED: ATOM     61  C36 UNL     1      14.861  -3.504  -8.700 +0.00 +0.00    +0.012 C  
DOCKED: ATOM     62  C37 UNL     1      16.158  -4.292  -8.918 +0.00 +0.00    +0.009 C  
DOCKED: ATOM     63  C38 UNL     1      14.876  -2.219  -9.531 +0.00 +0.00    +0.009 C  
DOCKED: ENDBRANCH  34  61
DOCKED: ENDBRANCH   1  34
DOCKED: TORSDOF 25
DOCKED: TER
DOCKED: ENDMDL
________________________________________________________________________________


    FINAL DOCKED STATE:
    ________________________


Run:   4 / 20
Time taken for this run:   3.410s

DOCKED: MODEL        4
DOCKED: USER    Run = 4
DOCKED: USER
DOCKED: USER    Estimated Free Energy of Binding    =  +7.46 kcal/mol  [=(1)+(2)+(3)-(4)]
DOCKED: USER
DOCKED: USER    (1) Final Intermolecular Energy     =  +0.00 kcal/mol
DOCKED: USER        vdW + Hbond + desolv Energy     =  +0.00 kcal/mol
DOCKED: USER        Electrostatic Energy            =  +0.00 kcal/mol
DOCKED: USER        Moving Ligand-Fixed Receptor    =  +0.00 kcal/mol
DOCKED: USER        Moving Ligand-Moving Receptor   =  +0.00 kcal/mol
DOCKED: USER    (2) Final Total Internal Energy     = -19.64 kcal/mol
DOCKED: USER    (3) Torsional Free Energy           =  +7.46 kcal/mol
DOCKED: USER    (4) Unbound System's Energy         = -19.64 kcal/mol
DOCKED: USER
DOCKED: USER
DOCKED: REMARK  Name = ligands/ligand_30.pdb
DOCKED: REMARK  30 active torsions:
DOCKED: REMARK  status: ('A' for Active; 'I' for Inactive)
DOCKED: REMARK    1  A    between atoms: C1_1  and  C2_2
DOCKED: REMARK    2  A    between atoms: C2_2  and  C3_3
DOCKED: REMARK    3  A    between atoms: C2_2  and  C4_4
DOCKED: REMARK    4  A    between atoms: C4_4  and  C5_5
DOCKED: REMARK    5  A    between atoms: C5_5  and  N1_6
DOCKED: REMARK    6  A    between atoms: C5_5  and  C14_18
DOCKED: REMARK    7  A    between atoms: C6_7  and  C7_9
DOCKED: REMARK    8  A    between atoms: C7_9  and  C8_10
DOCKED: REMARK    9  A    between atoms: C14_18  and  O2_19
DOCKED: REMARK   10  A    between atoms: C14_18  and  C15_20
DOCKED: REMARK   11  A    between atoms: C15_20  and  C16_21
DOCKED: REMARK   12  A    between atoms: N2_23  and  C17_24
DOCKED: REMARK   13  A    between atoms: C17_24  and  C18_25
DOCKED: REMARK   14  A    between atoms: C17_24  and  C36_53
DOCKED: REMARK   15  A    between atoms: N3_27  and  C19_28
DOCKED: REMARK   16  A    between atoms: C19_28  and  C20_29
DOCKED: REMARK   17  A    between atoms: C19_28  and  C21_30
DOCKED: REMARK   18  A    between atoms: N4_32  and  C22_33
DOCKED: REMARK   19  A    between atoms: C22_33  and  C23_34
DOCKED: REMARK   20  A    between atoms: C22_33  and  C26_39
DOCKED: REMARK   21  A    between atoms: C23_34  and  C24_35
DOCKED: REMARK   22  A    between atoms: C24_35  and  C25_36
DOCKED: REMARK   23  A    between atoms: C25_36  and  O7_38
DOCKED: REMARK   24  A    between atoms: N5_41  and  C27_42
DOCKED: REMARK   25  A    between atoms: C27_42  and  C28_43
DOCKED: REMARK   26  A    between atoms: C27_42  and  C35_50
DOCKED: REMARK   27  A    between atoms: C28_43  and  C29_44
DOCKED: REMARK   28  A    between atoms: C35_50  and  O10_52
DOCKED: REMARK   29  A    between atoms: C36_53  and  C37_54
DOCKED: REMARK   30  A    between atoms: C36_53  and  C38_55
DOCKED: REMARK                            x       y       z     vdW  Elec       q    Type
DOCKED: REMARK                         _______ _______ _______ _____ _____    ______ ____
DOCKED: USER                              x       y       z     vdW  Elec       q    Type
DOCKED: USER                           _______ _______ _______ _____ _____    ______ ____
DOCKED: ROOT
DOCKED: ATOM      1  C18 UNL     1      10.602  -7.135   0.835 +0.00 +0.00    +0.234 C  
DOCKED: ATOM      2  O4  UNL     1       9.661  -6.407   0.519 +0.00 -0.00    -0.274 OA 
DOCKED: ATOM      3  N3  UNL     1      11.925  -6.757   0.763 +0.00 -0.00    -0.303 N  
DOCKED: ATOM      4  H23 UNL     1      12.585  -7.531   0.750 +0.00 +0.00    +0.149 HD 
DOCKED: ENDROOT
DOCKED: BRANCH   3   5
DOCKED: ATOM      5  C19 UNL     1      12.418  -5.603  -0.003 +0.00 +0.00    +0.156 C  
DOCKED: ATOM      6  C20 UNL     1      12.342  -4.259   0.702 +0.00 +0.00    +0.038 C  
DOCKED: BRANCH   5   7
DOCKED: ATOM      7  C21 UNL     1      11.748  -5.692  -1.393 +0.00 +0.00    +0.234 C  
DOCKED: ATOM      8  O5  UNL     1      12.273  -6.349  -2.300 +0.00 -0.00    -0.274 OA 
DOCKED: ATOM      9  N4  UNL     1      10.641  -4.905  -1.616 +0.00 -0.00    -0.302 N  
DOCKED: ATOM     10  H28 UNL     1      10.048  -4.730  -0.803 +0.00 +0.00    +0.150 HD 
DOCKED: BRANCH   9  11
DOCKED: ATOM     11  C22 UNL     1       9.948  -4.998  -2.896 +0.00 +0.00    +0.159 C  
DOCKED: BRANCH  11  12
DOCKED: ATOM     12  C26 UNL     1       9.228  -6.356  -3.028 +0.00 +0.00    +0.234 C  
DOCKED: ATOM     13  O8  UNL     1       9.526  -7.185  -3.884 +0.00 -0.00    -0.274 OA 
DOCKED: ATOM     14  N5  UNL     1       8.268  -6.579  -2.063 +0.00 -0.00    -0.301 N  
DOCKED: ATOM     15  H35 UNL     1       8.291  -5.996  -1.236 +0.00 +0.00    +0.150 HD 
DOCKED: BRANCH  14  16
DOCKED: ATOM     16  C27 UNL     1       7.640  -7.898  -1.904 +0.00 +0.00    +0.186 C  
DOCKED: BRANCH  16  17
DOCKED: ATOM     17  C35 UNL     1       7.300  -8.029  -0.417 +0.00 +0.00    +0.326 C  
DOCKED: ATOM     18  O9  UNL     1       7.340  -9.068   0.234 +0.00 -0.00    -0.249 OA 
DOCKED: BRANCH  17  19
DOCKED: ATOM     19  O10 UNL     1       6.965  -6.868   0.172 +0.00 -0.00    -0.479 OA 
DOCKED: ATOM     20  H44 UNL     1       7.648  -6.228  -0.122 +0.00 +0.00    +0.295 HD 
DOCKED: ENDBRANCH  17  19
DOCKED: ENDBRANCH  16  17
DOCKED: BRANCH  16  21
DOCKED: ATOM     21  C28 UNL     1       6.366  -7.971  -2.753 +0.00 +0.00    +0.069 C  
DOCKED: BRANCH  21  22
DOCKED: ATOM     22  C29 UNL     1       6.419  -7.129  -4.004 +0.00 -0.00    -0.045 A  
DOCKED: ATOM     23  C30 UNL     1       6.829  -7.698  -5.218 +0.00 +0.00    +0.004 A  
DOCKED: ATOM     24  C31 UNL     1       6.908  -6.922  -6.375 +0.00 +0.00    +0.000 A  
DOCKED: ATOM     25  C32 UNL     1       6.566  -5.573  -6.337 +0.00 +0.00    +0.000 A  
DOCKED: ATOM     26  C33 UNL     1       6.151  -4.997  -5.135 +0.00 +0.00    +0.000 A  
DOCKED: ATOM     27  C34 UNL     1       6.080  -5.769  -3.974 +0.00 +0.00    +0.004 A  
DOCKED: ENDBRANCH  21  22
DOCKED: ENDBRANCH  16  21
DOCKED: ENDBRANCH  14  16
DOCKED: ENDBRANCH  11  12
DOCKED: BRANCH  11  28
DOCKED: ATOM     28  C23 UNL     1       8.976  -3.828  -3.127 +0.00 +0.00    +0.043 C  
DOCKED: BRANCH  28  29
DOCKED: ATOM     29  C24 UNL     1       8.491  -3.095  -1.875 +0.00 +0.00    +0.123 C  
DOCKED: BRANCH  29  30
DOCKED: ATOM     30  C25 UNL     1       7.778  -4.012  -0.922 +0.00 +0.00    +0.305 C  
DOCKED: ATOM     31  O6  UNL     1       6.686  -4.526  -1.106 +0.00 -0.00    -0.251 OA 
DOCKED: BRANCH  30  32
DOCKED: ATOM     32  O7  UNL     1       8.488  -4.273   0.189 +0.00 -0.00    -0.481 OA 
DOCKED: ATOM     33  H34 UNL     1       8.013  -5.016   0.615 +0.00 +0.00    +0.295 HD 
DOCKED: ENDBRANCH  30  32
DOCKED: ENDBRANCH  29  30
DOCKED: ENDBRANCH  28  29
DOCKED: ENDBRANCH  11  28
DOCKED: ENDBRANCH   9  11
DOCKED: ENDBRANCH   5   7
DOCKED: ENDBRANCH   3   5
DOCKED: BRANCH   1  34
DOCKED: ATOM     34  C17 UNL     1      10.352  -8.563   1.384 +0.00 +0.00    +0.161 C  
DOCKED: BRANCH  34  37
DOCKED: ATOM     35  C16 UNL     1      10.996  -9.463  -0.845 +0.00 +0.00    +0.216 C  
DOCKED: ATOM     36  O3  UNL     1      12.038  -8.814  -0.899 +0.00 -0.00    -0.276 OA 
DOCKED: ATOM     37  N2  UNL     1      10.132  -9.421   0.217 +0.00 -0.00    -0.304 N  
DOCKED: ATOM     38  H21 UNL     1       9.202  -9.827   0.136 +0.00 +0.00    +0.149 HD 
DOCKED: BRANCH  35  39
DOCKED: ATOM     39  C15 UNL     1      10.600 -10.460  -1.914 +0.00 +0.00    +0.129 C  
DOCKED: BRANCH  39  40
DOCKED: ATOM     40  C14 UNL     1      11.131 -10.092  -3.308 +0.00 +0.00    +0.143 C  
DOCKED: BRANCH  40  41
DOCKED: ATOM     41  O2  UNL     1      11.694  -8.786  -3.282 +0.00 -0.00    -0.389 OA 
DOCKED: ATOM     42  H18 UNL     1      11.080  -8.223  -2.760 +0.00 +0.00    +0.210 HD 
DOCKED: ENDBRANCH  40  41
DOCKED: BRANCH  40  43
DOCKED: ATOM     43  C5  UNL     1      10.073 -10.283  -4.431 +0.00 +0.00    +0.102 C  
DOCKED: BRANCH  43  44
DOCKED: ATOM     44  N1  UNL     1      10.310  -9.274  -5.481 +0.00 -0.00    -0.310 N  
DOCKED: ATOM     45  C6  UNL     1       9.693  -9.341  -6.714 +0.00 +0.00    +0.218 C  
DOCKED: ATOM     46  O1  UNL     1       8.983 -10.281  -7.057 +0.00 -0.00    -0.275 OA 
DOCKED: ATOM     47  H11 UNL     1      10.677  -8.379  -5.186 +0.00 +0.00    +0.149 HD 
DOCKED: BRANCH  45  48
DOCKED: ATOM     48  C7  UNL     1       9.946  -8.126  -7.594 +0.00 +0.00    +0.133 C  
DOCKED: BRANCH  48  49
DOCKED: ATOM     49  C8  UNL     1      10.722  -7.040  -6.898 +0.00 -0.00    -0.003 A  
DOCKED: ATOM     50  C9  UNL     1      10.120  -5.822  -6.556 +0.00 +0.00    +0.010 A  
DOCKED: ATOM     51  C10 UNL     1      10.861  -4.832  -5.907 +0.00 +0.00    +0.039 A  
DOCKED: ATOM     52  C11 UNL     1      12.200  -5.061  -5.605 +0.00 +0.00    +0.126 A  
DOCKED: ATOM     53  F1  UNL     1      12.900  -4.107  -4.976 +0.00 -0.00    -0.205 F  
DOCKED: ATOM     54  C12 UNL     1      12.817  -6.256  -5.943 +0.00 +0.00    +0.077 A  
DOCKED: ATOM     55  C13 UNL     1      12.072  -7.237  -6.586 +0.00 +0.00    +0.130 A  
DOCKED: ATOM     56  F2  UNL     1      12.658  -8.403  -6.899 +0.00 -0.00    -0.205 F  
DOCKED: ENDBRANCH  48  49
DOCKED: ENDBRANCH  45  48
DOCKED: ENDBRANCH  43  44
DOCKED: BRANCH  43  57
DOCKED: ATOM     57  C4  UNL     1       8.604 -10.132  -3.952 +0.00 +0.00    +0.028 C  
DOCKED: BRANCH  57  59
DOCKED: ATOM     58  C1  UNL     1       7.246 -11.429  -2.170 +0.00 +0.00    +0.007 C  
DOCKED: ATOM     59  C2  UNL     1       7.774 -11.391  -3.601 +0.00 -0.00    -0.015 C  
DOCKED: ATOM     60  C3  UNL     1       6.656 -11.691  -4.600 +0.00 +0.00    +0.007 C  
DOCKED: ENDBRANCH  57  59
DOCKED: ENDBRANCH  43  57
DOCKED: ENDBRANCH  40  43
DOCKED: ENDBRANCH  39  40
DOCKED: ENDBRANCH  35  39
DOCKED: ENDBRANCH  34  37
DOCKED: BRANCH  34  61
DOCKED: ATOM     61  C36 UNL     1       9.160  -8.685   2.365 +0.00 +0.00    +0.012 C  
DOCKED: ATOM     62  C37 UNL     1       9.117  -7.556   3.401 +0.00 +0.00    +0.009 C  
DOCKED: ATOM     63  C38 UNL     1       9.104 -10.046   3.062 +0.00 +0.00    +0.009 C  
DOCKED: ENDBRANCH  34  61
DOCKED: ENDBRANCH   1  34
DOCKED: TORSDOF 25
DOCKED: TER
DOCKED: ENDMDL
________________________________________________________________________________


    FINAL DOCKED STATE:
    ________________________


Run:   5 / 20
Time taken for this run:   3.410s

DOCKED: MODEL        5
DOCKED: USER    Run = 5
DOCKED: USER
DOCKED: USER    Estimated Free Energy of Binding    =  +7.46 kcal/mol  [=(1)+(2)+(3)-(4)]
DOCKED: USER
DOCKED: USER    (1) Final Intermolecular Energy     =  +0.00 kcal/mol
DOCKED: USER        vdW + Hbond + desolv Energy     =  +0.00 kcal/mol
DOCKED: USER        Electrostatic Energy            =  +0.00 kcal/mol
DOCKED: USER        Moving Ligand-Fixed Receptor    =  +0.00 kcal/mol
DOCKED: USER        Moving Ligand-Moving Receptor   =  +0.00 kcal/mol
DOCKED: USER    (2) Final Total Internal Energy     = -19.62 kcal/mol
DOCKED: USER    (3) Torsional Free Energy           =  +7.46 kcal/mol
DOCKED: USER    (4) Unbound System's Energy         = -19.62 kcal/mol
DOCKED: USER
DOCKED: USER
DOCKED: REMARK  Name = ligands/ligand_30.pdb
DOCKED: REMARK  30 active torsions:
DOCKED: REMARK  status: ('A' for Active; 'I' for Inactive)
DOCKED: REMARK    1  A    between atoms: C1_1  and  C2_2
DOCKED: REMARK    2  A    between atoms: C2_2  and  C3_3
DOCKED: REMARK    3  A    between atoms: C2_2  and  C4_4
DOCKED: REMARK    4  A    between atoms: C4_4  and  C5_5
DOCKED: REMARK    5  A    between atoms: C5_5  and  N1_6
DOCKED: REMARK    6  A    between atoms: C5_5  and  C14_18
DOCKED: REMARK    7  A    between atoms: C6_7  and  C7_9
DOCKED: REMARK    8  A    between atoms: C7_9  and  C8_10
DOCKED: REMARK    9  A    between atoms: C14_18  and  O2_19
DOCKED: REMARK   10  A    between atoms: C14_18  and  C15_20
DOCKED: REMARK   11  A    between atoms: C15_20  and  C16_21
DOCKED: REMARK   12  A    between atoms: N2_23  and  C17_24
DOCKED: REMARK   13  A    between atoms: C17_24  and  C18_25
DOCKED: REMARK   14  A    between atoms: C17_24  and  C36_53
DOCKED: REMARK   15  A    between atoms: N3_27  and  C19_28
DOCKED: REMARK   16  A    between atoms: C19_28  and  C20_29
DOCKED: REMARK   17  A    between atoms: C19_28  and  C21_30
DOCKED: REMARK   18  A    between atoms: N4_32  and  C22_33
DOCKED: REMARK   19  A    between atoms: C22_33  and  C23_34
DOCKED: REMARK   20  A    between atoms: C22_33  and  C26_39
DOCKED: REMARK   21  A    between atoms: C23_34  and  C24_35
DOCKED: REMARK   22  A    between atoms: C24_35  and  C25_36
DOCKED: REMARK   23  A    between atoms: C25_36  and  O7_38
DOCKED: REMARK   24  A    between atoms: N5_41  and  C27_42
DOCKED: REMARK   25  A    between atoms: C27_42  and  C28_43
DOCKED: REMARK   26  A    between atoms: C27_42  and  C35_50
DOCKED: REMARK   27  A    between atoms: C28_43  and  C29_44
DOCKED: REMARK   28  A    between atoms: C35_50  and  O10_52
DOCKED: REMARK   29  A    between atoms: C36_53  and  C37_54
DOCKED: REMARK   30  A    between atoms: C36_53  and  C38_55
DOCKED: REMARK                            x       y       z     vdW  Elec       q    Type
DOCKED: REMARK                         _______ _______ _______ _____ _____    ______ ____
DOCKED: USER                              x       y       z     vdW  Elec       q    Type
DOCKED: USER                           _______ _______ _______ _____ _____    ______ ____
DOCKED: ROOT
DOCKED: ATOM      1  C18 UNL     1       7.685   4.232   3.073 +0.00 +0.00    +0.234 C  
DOCKED: ATOM      2  O4  UNL     1       8.768   3.676   2.893 +0.00 -0.00    -0.274 OA 
DOCKED: ATOM      3  N3  UNL     1       7.387   4.995   4.180 +0.00 -0.00    -0.303 N  
DOCKED: ATOM      4  H23 UNL     1       6.393   5.125   4.348 +0.00 +0.00    +0.149 HD 
DOCKED: ENDROOT
DOCKED: BRANCH   3   5
DOCKED: ATOM      5  C19 UNL     1       8.155   4.975   5.434 +0.00 +0.00    +0.156 C  
DOCKED: ATOM      6  C20 UNL     1       9.387   5.864   5.470 +0.00 +0.00    +0.038 C  
DOCKED: BRANCH   5   7
DOCKED: ATOM      7  C21 UNL     1       8.371   3.484   5.782 +0.00 +0.00    +0.234 C  
DOCKED: ATOM      8  O5  UNL     1       7.528   2.868   6.444 +0.00 -0.00    -0.274 OA 
DOCKED: ATOM      9  N4  UNL     1       9.585   2.925   5.453 +0.00 -0.00    -0.302 N  
DOCKED: ATOM     10  H28 UNL     1      10.034   3.296   4.614 +0.00 +0.00    +0.150 HD 
DOCKED: BRANCH   9  11
DOCKED: ATOM     11  C22 UNL     1       9.809   1.508   5.716 +0.00 +0.00    +0.159 C  
DOCKED: BRANCH  11  12
DOCKED: ATOM     12  C26 UNL     1       8.961   0.636   4.767 +0.00 +0.00    +0.234 C  
DOCKED: ATOM     13  O8  UNL     1       8.077  -0.116   5.168 +0.00 -0.00    -0.274 OA 
DOCKED: ATOM     14  N5  UNL     1       9.240   0.826   3.429 +0.00 -0.00    -0.301 N  
DOCKED: ATOM     15  H35 UNL     1       9.753   1.659   3.172 +0.00 +0.00    +0.150 HD 
DOCKED: BRANCH  14  16
DOCKED: ATOM     16  C27 UNL     1       8.386   0.247   2.383 +0.00 +0.00    +0.186 C  
DOCKED: BRANCH  16  17
DOCKED: ATOM     17  C35 UNL     1       8.458   1.209   1.195 +0.00 +0.00    +0.326 C  
DOCKED: ATOM     18  O9  UNL     1       7.539   1.458   0.421 +0.00 -0.00    -0.249 OA 
DOCKED: BRANCH  17  19
DOCKED: ATOM     19  O10 UNL     1       9.647   1.824   1.060 +0.00 -0.00    -0.479 OA 
DOCKED: ATOM     20  H44 UNL     1       9.890   2.106   1.968 +0.00 +0.00    +0.295 HD 
DOCKED: ENDBRANCH  17  19
DOCKED: ENDBRANCH  16  17
DOCKED: BRANCH  16  21
DOCKED: ATOM     21  C28 UNL     1       8.918  -1.134   1.986 +0.00 +0.00    +0.069 C  
DOCKED: BRANCH  21  22
DOCKED: ATOM     22  C29 UNL     1       9.601  -1.872   3.112 +0.00 -0.00    -0.045 A  
DOCKED: ATOM     23  C30 UNL     1       8.876  -2.769   3.907 +0.00 +0.00    +0.004 A  
DOCKED: ATOM     24  C31 UNL     1       9.490  -3.435   4.968 +0.00 +0.00    +0.000 A  
DOCKED: ATOM     25  C32 UNL     1      10.839  -3.222   5.240 +0.00 +0.00    +0.000 A  
DOCKED: ATOM     26  C33 UNL     1      11.573  -2.335   4.451 +0.00 +0.00    +0.000 A  
DOCKED: ATOM     27  C34 UNL     1      10.958  -1.660   3.395 +0.00 +0.00    +0.004 A  
DOCKED: ENDBRANCH  21  22
DOCKED: ENDBRANCH  16  21
DOCKED: ENDBRANCH  14  16
DOCKED: ENDBRANCH  11  12
DOCKED: BRANCH  11  28
DOCKED: ATOM     28  C23 UNL     1      11.297   1.123   5.643 +0.00 +0.00    +0.043 C  
DOCKED: BRANCH  28  29
DOCKED: ATOM     29  C24 UNL     1      12.198   2.056   4.833 +0.00 +0.00    +0.123 C  
DOCKED: BRANCH  29  30
DOCKED: ATOM     30  C25 UNL     1      11.751   2.176   3.404 +0.00 +0.00    +0.305 C  
DOCKED: ATOM     31  O6  UNL     1      11.825   1.302   2.555 +0.00 -0.00    -0.251 OA 
DOCKED: BRANCH  30  32
DOCKED: ATOM     32  O7  UNL     1      11.193   3.368   3.125 +0.00 -0.00    -0.481 OA 
DOCKED: ATOM     33  H34 UNL     1      10.781   3.246   2.245 +0.00 +0.00    +0.295 HD 
DOCKED: ENDBRANCH  30  32
DOCKED: ENDBRANCH  29  30
DOCKED: ENDBRANCH  28  29
DOCKED: ENDBRANCH  11  28
DOCKED: ENDBRANCH   9  11
DOCKED: ENDBRANCH   5   7
DOCKED: ENDBRANCH   3   5
DOCKED: BRANCH   1  34
DOCKED: ATOM     34  C17 UNL     1       6.557   4.136   2.014 +0.00 +0.00    +0.161 C  
DOCKED: BRANCH  34  37
DOCKED: ATOM     35  C16 UNL     1       5.423   2.464   3.468 +0.00 +0.00    +0.216 C  
DOCKED: ATOM     36  O3  UNL     1       5.496   3.165   4.475 +0.00 -0.00    -0.276 OA 
DOCKED: ATOM     37  N2  UNL     1       5.889   2.851   2.239 +0.00 -0.00    -0.304 N  
DOCKED: ATOM     38  H21 UNL     1       5.974   2.170   1.487 +0.00 +0.00    +0.149 HD 
DOCKED: BRANCH  35  39
DOCKED: ATOM     39  C15 UNL     1       4.718   1.124   3.458 +0.00 +0.00    +0.129 C  
DOCKED: BRANCH  39  40
DOCKED: ATOM     40  C14 UNL     1       4.772   0.404   4.815 +0.00 +0.00    +0.143 C  
DOCKED: BRANCH  40  41
DOCKED: ATOM     41  O2  UNL     1       5.655   1.091   5.692 +0.00 -0.00    -0.389 OA 
DOCKED: ATOM     42  H18 UNL     1       6.447   1.336   5.163 +0.00 +0.00    +0.210 HD 
DOCKED: ENDBRANCH  40  41
DOCKED: BRANCH  40  43
DOCKED: ATOM     43  C5  UNL     1       5.090  -1.112   4.686 +0.00 +0.00    +0.102 C  
DOCKED: BRANCH  43  44
DOCKED: ATOM     44  N1  UNL     1       5.851  -1.538   5.876 +0.00 -0.00    -0.310 N  
DOCKED: ATOM     45  C6  UNL     1       6.066  -2.870   6.170 +0.00 +0.00    +0.218 C  
DOCKED: ATOM     46  O1  UNL     1       5.569  -3.787   5.523 +0.00 -0.00    -0.275 OA 
DOCKED: ATOM     47  H11 UNL     1       6.470  -0.858   6.295 +0.00 +0.00    +0.149 HD 
DOCKED: BRANCH  45  48
DOCKED: ATOM     48  C7  UNL     1       7.003  -3.096   7.347 +0.00 +0.00    +0.133 C  
DOCKED: BRANCH  48  49
DOCKED: ATOM     49  C8  UNL     1       7.589  -1.821   7.892 +0.00 -0.00    -0.003 A  
DOCKED: ATOM     50  C9  UNL     1       8.950  -1.524   7.739 +0.00 +0.00    +0.010 A  
DOCKED: ATOM     51  C10 UNL     1       9.468  -0.333   8.252 +0.00 +0.00    +0.039 A  
DOCKED: ATOM     52  C11 UNL     1       8.626   0.555   8.916 +0.00 +0.00    +0.126 A  
DOCKED: ATOM     53  F1  UNL     1       9.132   1.700   9.396 +0.00 -0.00    -0.205 F  
DOCKED: ATOM     54  C12 UNL     1       7.278   0.276   9.084 +0.00 +0.00    +0.077 A  
DOCKED: ATOM     55  C13 UNL     1       6.771  -0.911   8.570 +0.00 +0.00    +0.130 A  
DOCKED: ATOM     56  F2  UNL     1       5.464  -1.179   8.712 +0.00 -0.00    -0.205 F  
DOCKED: ENDBRANCH  48  49
DOCKED: ENDBRANCH  45  48
DOCKED: ENDBRANCH  43  44
DOCKED: BRANCH  43  57
DOCKED: ATOM     57  C4  UNL     1       5.926  -1.482   3.431 +0.00 +0.00    +0.028 C  
DOCKED: BRANCH  57  59
DOCKED: ATOM     58  C1  UNL     1       5.358  -1.115   0.932 +0.00 +0.00    +0.007 C  
DOCKED: ATOM     59  C2  UNL     1       5.217  -2.009   2.160 +0.00 -0.00    -0.015 C  
DOCKED: ATOM     60  C3  UNL     1       5.562  -3.459   1.817 +0.00 +0.00    +0.007 C  
DOCKED: ENDBRANCH  57  59
DOCKED: ENDBRANCH  43  57
DOCKED: ENDBRANCH  40  43
DOCKED: ENDBRANCH  39  40
DOCKED: ENDBRANCH  35  39
DOCKED: ENDBRANCH  34  37
DOCKED: BRANCH  34  61
DOCKED: ATOM     61  C36 UNL     1       7.031   4.236   0.544 +0.00 +0.00    +0.012 C  
DOCKED: ATOM     62  C37 UNL     1       8.048   5.361   0.317 +0.00 +0.00    +0.009 C  
DOCKED: ATOM     63  C38 UNL     1       5.871   4.363  -0.446 +0.00 +0.00    +0.009 C  
DOCKED: ENDBRANCH  34  61
DOCKED: ENDBRANCH   1  34
DOCKED: TORSDOF 25
DOCKED: TER
DOCKED: ENDMDL
________________________________________________________________________________


    FINAL DOCKED STATE:
    ________________________


Run:   6 / 20
Time taken for this run:   3.410s

DOCKED: MODEL        6
DOCKED: USER    Run = 6
DOCKED: USER
DOCKED: USER    Estimated Free Energy of Binding    =  +7.46 kcal/mol  [=(1)+(2)+(3)-(4)]
DOCKED: USER
DOCKED: USER    (1) Final Intermolecular Energy     =  +0.00 kcal/mol
DOCKED: USER        vdW + Hbond + desolv Energy     =  +0.00 kcal/mol
DOCKED: USER        Electrostatic Energy            =  +0.00 kcal/mol
DOCKED: USER        Moving Ligand-Fixed Receptor    =  +0.00 kcal/mol
DOCKED: USER        Moving Ligand-Moving Receptor   =  +0.00 kcal/mol
DOCKED: USER    (2) Final Total Internal Energy     = -18.99 kcal/mol
DOCKED: USER    (3) Torsional Free Energy           =  +7.46 kcal/mol
DOCKED: USER    (4) Unbound System's Energy         = -18.99 kcal/mol
DOCKED: USER
DOCKED: USER
DOCKED: REMARK  Name = ligands/ligand_30.pdb
DOCKED: REMARK  30 active torsions:
DOCKED: REMARK  status: ('A' for Active; 'I' for Inactive)
DOCKED: REMARK    1  A    between atoms: C1_1  and  C2_2
DOCKED: REMARK    2  A    between atoms: C2_2  and  C3_3
DOCKED: REMARK    3  A    between atoms: C2_2  and  C4_4
DOCKED: REMARK    4  A    between atoms: C4_4  and  C5_5
DOCKED: REMARK    5  A    between atoms: C5_5  and  N1_6
DOCKED: REMARK    6  A    between atoms: C5_5  and  C14_18
DOCKED: REMARK    7  A    between atoms: C6_7  and  C7_9
DOCKED: REMARK    8  A    between atoms: C7_9  and  C8_10
DOCKED: REMARK    9  A    between atoms: C14_18  and  O2_19
DOCKED: REMARK   10  A    between atoms: C14_18  and  C15_20
DOCKED: REMARK   11  A    between atoms: C15_20  and  C16_21
DOCKED: REMARK   12  A    between atoms: N2_23  and  C17_24
DOCKED: REMARK   13  A    between atoms: C17_24  and  C18_25
DOCKED: REMARK   14  A    between atoms: C17_24  and  C36_53
DOCKED: REMARK   15  A    between atoms: N3_27  and  C19_28
DOCKED: REMARK   16  A    between atoms: C19_28  and  C20_29
DOCKED: REMARK   17  A    between atoms: C19_28  and  C21_30
DOCKED: REMARK   18  A    between atoms: N4_32  and  C22_33
DOCKED: REMARK   19  A    between atoms: C22_33  and  C23_34
DOCKED: REMARK   20  A    between atoms: C22_33  and  C26_39
DOCKED: REMARK   21  A    between atoms: C23_34  and  C24_35
DOCKED: REMARK   22  A    between atoms: C24_35  and  C25_36
DOCKED: REMARK   23  A    between atoms: C25_36  and  O7_38
DOCKED: REMARK   24  A    between atoms: N5_41  and  C27_42
DOCKED: REMARK   25  A    between atoms: C27_42  and  C28_43
DOCKED: REMARK   26  A    between atoms: C27_42  and  C35_50
DOCKED: REMARK   27  A    between atoms: C28_43  and  C29_44
DOCKED: REMARK   28  A    between atoms: C35_50  and  O10_52
DOCKED: REMARK   29  A    between atoms: C36_53  and  C37_54
DOCKED: REMARK   30  A    between atoms: C36_53  and  C38_55
DOCKED: REMARK                            x       y       z     vdW  Elec       q    Type
DOCKED: REMARK                         _______ _______ _______ _____ _____    ______ ____
DOCKED: USER                              x       y       z     vdW  Elec       q    Type
DOCKED: USER                           _______ _______ _______ _____ _____    ______ ____
DOCKED: ROOT
DOCKED: ATOM      1  C18 UNL     1       6.730  -2.923  -2.172 +0.00 +0.00    +0.234 C  
DOCKED: ATOM      2  O4  UNL     1       6.041  -2.235  -1.418 +0.00 -0.00    -0.274 OA 
DOCKED: ATOM      3  N3  UNL     1       6.224  -3.910  -2.989 +0.00 -0.00    -0.303 N  
DOCKED: ATOM      4  H23 UNL     1       6.912  -4.587  -3.307 +0.00 +0.00    +0.149 HD 
DOCKED: ENDROOT
DOCKED: BRANCH   3   5
DOCKED: ATOM      5  C19 UNL     1       4.892  -4.513  -2.836 +0.00 +0.00    +0.156 C  
DOCKED: ATOM      6  C20 UNL     1       3.747  -3.768  -3.502 +0.00 +0.00    +0.038 C  
DOCKED: BRANCH   5   7
DOCKED: ATOM      7  C21 UNL     1       4.730  -4.821  -1.330 +0.00 +0.00    +0.234 C  
DOCKED: ATOM      8  O5  UNL     1       5.113  -5.902  -0.867 +0.00 -0.00    -0.274 OA 
DOCKED: ATOM      9  N4  UNL     1       4.023  -3.917  -0.569 +0.00 -0.00    -0.302 N  
DOCKED: ATOM     10  H28 UNL     1       4.093  -2.941  -0.859 +0.00 +0.00    +0.150 HD 
DOCKED: BRANCH   9  11
DOCKED: ATOM     11  C22 UNL     1       3.892  -4.144   0.866 +0.00 +0.00    +0.159 C  
DOCKED: BRANCH  11  12
DOCKED: ATOM     12  C26 UNL     1       5.228  -3.864   1.585 +0.00 +0.00    +0.234 C  
DOCKED: ATOM     13  O8  UNL     1       5.829  -4.721   2.228 +0.00 -0.00    -0.274 OA 
DOCKED: ATOM     14  N5  UNL     1       5.714  -2.588   1.389 +0.00 -0.00    -0.301 N  
DOCKED: ATOM     15  H35 UNL     1       5.328  -2.053   0.622 +0.00 +0.00    +0.150 HD 
DOCKED: BRANCH  14  16
DOCKED: ATOM     16  C27 UNL     1       7.071  -2.217   1.815 +0.00 +0.00    +0.186 C  
DOCKED: BRANCH  16  17
DOCKED: ATOM     17  C35 UNL     1       7.248  -0.746   1.431 +0.00 +0.00    +0.326 C  
DOCKED: ATOM     18  O9  UNL     1       7.889   0.086   2.068 +0.00 -0.00    -0.249 OA 
DOCKED: BRANCH  17  19
DOCKED: ATOM     19  O10 UNL     1       6.653  -0.407   0.274 +0.00 -0.00    -0.479 OA 
DOCKED: ATOM     20  H44 UNL     1       5.804  -0.899   0.272 +0.00 +0.00    +0.295 HD 
DOCKED: ENDBRANCH  17  19
DOCKED: ENDBRANCH  16  17
DOCKED: BRANCH  16  21
DOCKED: ATOM     21  C28 UNL     1       7.204  -2.393   3.332 +0.00 +0.00    +0.069 C  
DOCKED: BRANCH  21  22
DOCKED: ATOM     22  C29 UNL     1       5.944  -2.065   4.096 +0.00 -0.00    -0.045 A  
DOCKED: ATOM     23  C30 UNL     1       5.294  -3.059   4.841 +0.00 +0.00    +0.004 A  
DOCKED: ATOM     24  C31 UNL     1       4.114  -2.774   5.529 +0.00 +0.00    +0.000 A  
DOCKED: ATOM     25  C32 UNL     1       3.576  -1.491   5.492 +0.00 +0.00    +0.000 A  
DOCKED: ATOM     26  C33 UNL     1       4.216  -0.491   4.757 +0.00 +0.00    +0.000 A  
DOCKED: ATOM     27  C34 UNL     1       5.393  -0.776   4.061 +0.00 +0.00    +0.004 A  
DOCKED: ENDBRANCH  21  22
DOCKED: ENDBRANCH  16  21
DOCKED: ENDBRANCH  14  16
DOCKED: ENDBRANCH  11  12
DOCKED: BRANCH  11  28
DOCKED: ATOM     28  C23 UNL     1       2.743  -3.333   1.489 +0.00 +0.00    +0.043 C  
DOCKED: BRANCH  28  29
DOCKED: ATOM     29  C24 UNL     1       2.315  -2.075   0.731 +0.00 +0.00    +0.123 C  
DOCKED: BRANCH  29  30
DOCKED: ATOM     30  C25 UNL     1       3.461  -1.128   0.511 +0.00 +0.00    +0.305 C  
DOCKED: ATOM     31  O6  UNL     1       4.003  -0.448   1.369 +0.00 -0.00    -0.251 OA 
DOCKED: BRANCH  30  32
DOCKED: ATOM     32  O7  UNL     1       3.900  -1.117  -0.760 +0.00 -0.00    -0.481 OA 
DOCKED: ATOM     33  H34 UNL     1       4.756  -0.644  -0.720 +0.00 +0.00    +0.295 HD 
DOCKED: ENDBRANCH  30  32
DOCKED: ENDBRANCH  29  30
DOCKED: ENDBRANCH  28  29
DOCKED: ENDBRANCH  11  28
DOCKED: ENDBRANCH   9  11
DOCKED: ENDBRANCH   5   7
DOCKED: ENDBRANCH   3   5
DOCKED: BRANCH   1  34
DOCKED: ATOM     34  C17 UNL     1       8.259  -2.694  -2.280 +0.00 +0.00    +0.161 C  
DOCKED: BRANCH  34  37
DOCKED: ATOM     35  C16 UNL     1       8.460  -4.873  -1.094 +0.00 +0.00    +0.216 C  
DOCKED: ATOM     36  O3  UNL     1       7.501  -4.655  -0.356 +0.00 -0.00    -0.276 OA 
DOCKED: ATOM     37  N2  UNL     1       8.888  -3.999  -2.059 +0.00 -0.00    -0.304 N  
DOCKED: ATOM     38  H21 UNL     1       9.788  -4.140  -2.512 +0.00 +0.00    +0.149 HD 
DOCKED: BRANCH  35  39
DOCKED: ATOM     39  C15 UNL     1       9.219  -6.184  -1.080 +0.00 +0.00    +0.129 C  
DOCKED: BRANCH  39  40
DOCKED: ATOM     40  C14 UNL     1       8.307  -7.406  -0.892 +0.00 +0.00    +0.143 C  
DOCKED: BRANCH  40  41
DOCKED: ATOM     41  O2  UNL     1       7.142  -7.268  -1.697 +0.00 -0.00    -0.389 OA 
DOCKED: ATOM     42  H18 UNL     1       6.712  -6.425  -1.432 +0.00 +0.00    +0.210 HD 
DOCKED: ENDBRANCH  40  41
DOCKED: BRANCH  40  43
DOCKED: ATOM     43  C5  UNL     1       7.991  -7.705   0.600 +0.00 +0.00    +0.102 C  
DOCKED: BRANCH  43  44
DOCKED: ATOM     44  N1  UNL     1       6.627  -7.228   0.900 +0.00 -0.00    -0.310 N  
DOCKED: ATOM     45  C6  UNL     1       5.747  -7.962   1.671 +0.00 +0.00    +0.218 C  
DOCKED: ATOM     46  O1  UNL     1       5.998  -9.090   2.082 +0.00 -0.00    -0.275 OA 
DOCKED: ATOM     47  H11 UNL     1       6.453  -6.238   0.801 +0.00 +0.00    +0.149 HD 
DOCKED: BRANCH  45  48
DOCKED: ATOM     48  C7  UNL     1       4.454  -7.228   1.993 +0.00 +0.00    +0.133 C  
DOCKED: BRANCH  48  49
DOCKED: ATOM     49  C8  UNL     1       4.325  -6.864   3.448 +0.00 -0.00    -0.003 A  
DOCKED: ATOM     50  C9  UNL     1       5.340  -7.168   4.366 +0.00 +0.00    +0.010 A  
DOCKED: ATOM     51  C10 UNL     1       5.197  -6.816   5.710 +0.00 +0.00    +0.039 A  
DOCKED: ATOM     52  C11 UNL     1       4.041  -6.166   6.132 +0.00 +0.00    +0.126 A  
DOCKED: ATOM     53  F1  UNL     1       3.918  -5.826   7.423 +0.00 -0.00    -0.205 F  
DOCKED: ATOM     54  C12 UNL     1       3.022  -5.864   5.242 +0.00 +0.00    +0.077 A  
DOCKED: ATOM     55  C13 UNL     1       3.173  -6.216   3.906 +0.00 +0.00    +0.130 A  
DOCKED: ATOM     56  F2  UNL     1       2.199  -5.910   3.035 +0.00 -0.00    -0.205 F  
DOCKED: ENDBRANCH  48  49
DOCKED: ENDBRANCH  45  48
DOCKED: ENDBRANCH  43  44
DOCKED: BRANCH  43  57
DOCKED: ATOM     57  C4  UNL     1       8.962  -7.026   1.603 +0.00 +0.00    +0.028 C  
DOCKED: BRANCH  57  59
DOCKED: ATOM     58  C1  UNL     1       8.245  -5.830   3.784 +0.00 +0.00    +0.007 C  
DOCKED: ATOM     59  C2  UNL     1       8.555  -5.703   2.296 +0.00 -0.00    -0.015 C  
DOCKED: ATOM     60  C3  UNL     1       9.525  -4.549   2.040 +0.00 +0.00    +0.007 C  
DOCKED: ENDBRANCH  57  59
DOCKED: ENDBRANCH  43  57
DOCKED: ENDBRANCH  40  43
DOCKED: ENDBRANCH  39  40
DOCKED: ENDBRANCH  35  39
DOCKED: ENDBRANCH  34  37
DOCKED: BRANCH  34  61
DOCKED: ATOM     61  C36 UNL     1       8.835  -1.653  -1.290 +0.00 +0.00    +0.012 C  
DOCKED: ATOM     62  C37 UNL     1       8.938  -0.246  -1.891 +0.00 +0.00    +0.009 C  
DOCKED: ATOM     63  C38 UNL     1      10.182  -2.077  -0.701 +0.00 +0.00    +0.009 C  
DOCKED: ENDBRANCH  34  61
DOCKED: ENDBRANCH   1  34
DOCKED: TORSDOF 25
DOCKED: TER
DOCKED: ENDMDL
________________________________________________________________________________


    FINAL DOCKED STATE:
    ________________________


Run:   7 / 20
Time taken for this run:   3.410s

DOCKED: MODEL        7
DOCKED: USER    Run = 7
DOCKED: USER
DOCKED: USER    Estimated Free Energy of Binding    =  +7.46 kcal/mol  [=(1)+(2)+(3)-(4)]
DOCKED: USER
DOCKED: USER    (1) Final Intermolecular Energy     =  +0.00 kcal/mol
DOCKED: USER        vdW + Hbond + desolv Energy     =  +0.00 kcal/mol
DOCKED: USER        Electrostatic Energy            =  +0.00 kcal/mol
DOCKED: USER        Moving Ligand-Fixed Receptor    =  +0.00 kcal/mol
DOCKED: USER        Moving Ligand-Moving Receptor   =  +0.00 kcal/mol
DOCKED: USER    (2) Final Total Internal Energy     = -20.53 kcal/mol
DOCKED: USER    (3) Torsional Free Energy           =  +7.46 kcal/mol
DOCKED: USER    (4) Unbound System's Energy         = -20.53 kcal/mol
DOCKED: USER
DOCKED: USER
DOCKED: REMARK  Name = ligands/ligand_30.pdb
DOCKED: REMARK  30 active torsions:
DOCKED: REMARK  status: ('A' for Active; 'I' for Inactive)
DOCKED: REMARK    1  A    between atoms: C1_1  and  C2_2
DOCKED: REMARK    2  A    between atoms: C2_2  and  C3_3
DOCKED: REMARK    3  A    between atoms: C2_2  and  C4_4
DOCKED: REMARK    4  A    between atoms: C4_4  and  C5_5
DOCKED: REMARK    5  A    between atoms: C5_5  and  N1_6
DOCKED: REMARK    6  A    between atoms: C5_5  and  C14_18
DOCKED: REMARK    7  A    between atoms: C6_7  and  C7_9
DOCKED: REMARK    8  A    between atoms: C7_9  and  C8_10
DOCKED: REMARK    9  A    between atoms: C14_18  and  O2_19
DOCKED: REMARK   10  A    between atoms: C14_18  and  C15_20
DOCKED: REMARK   11  A    between atoms: C15_20  and  C16_21
DOCKED: REMARK   12  A    between atoms: N2_23  and  C17_24
DOCKED: REMARK   13  A    between atoms: C17_24  and  C18_25
DOCKED: REMARK   14  A    between atoms: C17_24  and  C36_53
DOCKED: REMARK   15  A    between atoms: N3_27  and  C19_28
DOCKED: REMARK   16  A    between atoms: C19_28  and  C20_29
DOCKED: REMARK   17  A    between atoms: C19_28  and  C21_30
DOCKED: REMARK   18  A    between atoms: N4_32  and  C22_33
DOCKED: REMARK   19  A    between atoms: C22_33  and  C23_34
DOCKED: REMARK   20  A    between atoms: C22_33  and  C26_39
DOCKED: REMARK   21  A    between atoms: C23_34  and  C24_35
DOCKED: REMARK   22  A    between atoms: C24_35  and  C25_36
DOCKED: REMARK   23  A    between atoms: C25_36  and  O7_38
DOCKED: REMARK   24  A    between atoms: N5_41  and  C27_42
DOCKED: REMARK   25  A    between atoms: C27_42  and  C28_43
DOCKED: REMARK   26  A    between atoms: C27_42  and  C35_50
DOCKED: REMARK   27  A    between atoms: C28_43  and  C29_44
DOCKED: REMARK   28  A    between atoms: C35_50  and  O10_52
DOCKED: REMARK   29  A    between atoms: C36_53  and  C37_54
DOCKED: REMARK   30  A    between atoms: C36_53  and  C38_55
DOCKED: REMARK                            x       y       z     vdW  Elec       q    Type
DOCKED: REMARK                         _______ _______ _______ _____ _____    ______ ____
DOCKED: USER                              x       y       z     vdW  Elec       q    Type
DOCKED: USER                           _______ _______ _______ _____ _____    ______ ____
DOCKED: ROOT
DOCKED: ATOM      1  C18 UNL     1       6.844  -6.273  -0.348 +0.00 +0.00    +0.234 C  
DOCKED: ATOM      2  O4  UNL     1       6.541  -6.705  -1.460 +0.00 -0.00    -0.274 OA 
DOCKED: ATOM      3  N3  UNL     1       8.067  -6.479   0.250 +0.00 -0.00    -0.303 N  
DOCKED: ATOM      4  H23 UNL     1       8.072  -6.347   1.258 +0.00 +0.00    +0.149 HD 
DOCKED: ENDROOT
DOCKED: BRANCH   3   5
DOCKED: ATOM      5  C19 UNL     1       9.036  -7.501  -0.173 +0.00 +0.00    +0.156 C  
DOCKED: ATOM      6  C20 UNL     1       8.571  -8.440  -1.274 +0.00 +0.00    +0.038 C  
DOCKED: BRANCH   5   7
DOCKED: ATOM      7  C21 UNL     1       9.557  -8.162   1.123 +0.00 +0.00    +0.234 C  
DOCKED: ATOM      8  O5  UNL     1       9.942  -7.466   2.070 +0.00 -0.00    -0.274 OA 
DOCKED: ATOM      9  N4  UNL     1       9.707  -9.531   1.122 +0.00 -0.00    -0.302 N  
DOCKED: ATOM     10  H28 UNL     1       9.043 -10.051   0.546 +0.00 +0.00    +0.150 HD 
DOCKED: BRANCH   9  11
DOCKED: ATOM     11  C22 UNL     1      10.145 -10.199   2.342 +0.00 +0.00    +0.159 C  
DOCKED: BRANCH  11  12
DOCKED: ATOM     12  C26 UNL     1      11.335  -9.448   2.976 +0.00 +0.00    +0.234 C  
DOCKED: ATOM     13  O8  UNL     1      12.487  -9.562   2.566 +0.00 -0.00    -0.274 OA 
DOCKED: ATOM     14  N5  UNL     1      10.979  -8.594   3.999 +0.00 -0.00    -0.301 N  
DOCKED: ATOM     15  H35 UNL     1      10.004  -8.334   4.074 +0.00 +0.00    +0.150 HD 
DOCKED: BRANCH  14  16
DOCKED: ATOM     16  C27 UNL     1      11.944  -7.643   4.567 +0.00 +0.00    +0.186 C  
DOCKED: BRANCH  16  17
DOCKED: ATOM     17  C35 UNL     1      11.335  -6.252   4.371 +0.00 +0.00    +0.326 C  
DOCKED: ATOM     18  O9  UNL     1      11.957  -5.237   4.072 +0.00 -0.00    -0.249 OA 
DOCKED: BRANCH  17  19
DOCKED: ATOM     19  O10 UNL     1      10.000  -6.213   4.523 +0.00 -0.00    -0.479 OA 
DOCKED: ATOM     20  H44 UNL     1       9.650  -6.834   3.849 +0.00 +0.00    +0.295 HD 
DOCKED: ENDBRANCH  17  19
DOCKED: ENDBRANCH  16  17
DOCKED: BRANCH  16  21
DOCKED: ATOM     21  C28 UNL     1      12.141  -7.934   6.059 +0.00 +0.00    +0.069 C  
DOCKED: BRANCH  21  22
DOCKED: ATOM     22  C29 UNL     1      10.851  -8.129   6.818 +0.00 -0.00    -0.045 A  
DOCKED: ATOM     23  C30 UNL     1      10.202  -7.028   7.394 +0.00 +0.00    +0.004 A  
DOCKED: ATOM     24  C31 UNL     1       9.023  -7.200   8.121 +0.00 +0.00    +0.000 A  
DOCKED: ATOM     25  C32 UNL     1       8.472  -8.469   8.270 +0.00 +0.00    +0.000 A  
DOCKED: ATOM     26  C33 UNL     1       9.108  -9.573   7.697 +0.00 +0.00    +0.000 A  
DOCKED: ATOM     27  C34 UNL     1      10.292  -9.404   6.977 +0.00 +0.00    +0.004 A  
DOCKED: ENDBRANCH  21  22
DOCKED: ENDBRANCH  16  21
DOCKED: ENDBRANCH  14  16
DOCKED: ENDBRANCH  11  12
DOCKED: BRANCH  11  28
DOCKED: ATOM     28  C23 UNL     1       9.003 -10.388   3.354 +0.00 +0.00    +0.043 C  
DOCKED: BRANCH  28  29
DOCKED: ATOM     29  C24 UNL     1       7.771  -9.502   3.158 +0.00 +0.00    +0.123 C  
DOCKED: BRANCH  29  30
DOCKED: ATOM     30  C25 UNL     1       7.894  -8.193   3.885 +0.00 +0.00    +0.305 C  
DOCKED: ATOM     31  O6  UNL     1       8.211  -8.051   5.055 +0.00 -0.00    -0.251 OA 
DOCKED: BRANCH  30  32
DOCKED: ATOM     32  O7  UNL     1       7.658  -7.128   3.097 +0.00 -0.00    -0.481 OA 
DOCKED: ATOM     33  H34 UNL     1       8.539  -6.725   2.959 +0.00 +0.00    +0.295 HD 
DOCKED: ENDBRANCH  30  32
DOCKED: ENDBRANCH  29  30
DOCKED: ENDBRANCH  28  29
DOCKED: ENDBRANCH  11  28
DOCKED: ENDBRANCH   9  11
DOCKED: ENDBRANCH   5   7
DOCKED: ENDBRANCH   3   5
DOCKED: BRANCH   1  34
DOCKED: ATOM     34  C17 UNL     1       5.847  -5.411   0.469 +0.00 +0.00    +0.161 C  
DOCKED: BRANCH  34  37
DOCKED: ATOM     35  C16 UNL     1       7.390  -3.559   1.089 +0.00 +0.00    +0.216 C  
DOCKED: ATOM     36  O3  UNL     1       7.422  -3.093  -0.048 +0.00 -0.00    -0.276 OA 
DOCKED: ATOM     37  N2  UNL     1       6.649  -4.658   1.436 +0.00 -0.00    -0.304 N  
DOCKED: ATOM     38  H21 UNL     1       6.799  -5.112   2.336 +0.00 +0.00    +0.149 HD 
DOCKED: BRANCH  35  39
DOCKED: ATOM     39  C15 UNL     1       8.095  -2.906   2.259 +0.00 +0.00    +0.129 C  
DOCKED: BRANCH  39  40
DOCKED: ATOM     40  C14 UNL     1       8.905  -3.900   3.105 +0.00 +0.00    +0.143 C  
DOCKED: BRANCH  40  41
DOCKED: ATOM     41  O2  UNL     1       8.898  -5.180   2.487 +0.00 -0.00    -0.389 OA 
DOCKED: ATOM     42  H18 UNL     1       9.454  -5.768   3.045 +0.00 +0.00    +0.210 HD 
DOCKED: ENDBRANCH  40  41
DOCKED: BRANCH  40  43
DOCKED: ATOM     43  C5  UNL     1       8.461  -3.933   4.595 +0.00 +0.00    +0.102 C  
DOCKED: BRANCH  43  44
DOCKED: ATOM     44  N1  UNL     1       7.492  -5.032   4.774 +0.00 -0.00    -0.310 N  
DOCKED: ATOM     45  C6  UNL     1       6.180  -4.927   4.356 +0.00 +0.00    +0.218 C  
DOCKED: ATOM     46  O1  UNL     1       5.705  -3.894   3.895 +0.00 -0.00    -0.275 OA 
DOCKED: ATOM     47  H11 UNL     1       7.867  -5.959   4.916 +0.00 +0.00    +0.149 HD 
DOCKED: BRANCH  45  48
DOCKED: ATOM     48  C7  UNL     1       5.388  -6.219   4.487 +0.00 +0.00    +0.133 C  
DOCKED: BRANCH  48  49
DOCKED: ATOM     49  C8  UNL     1       5.338  -6.744   5.897 +0.00 -0.00    -0.003 A  
DOCKED: ATOM     50  C9  UNL     1       5.477  -5.886   6.997 +0.00 +0.00    +0.010 A  
DOCKED: ATOM     51  C10 UNL     1       5.423  -6.398   8.295 +0.00 +0.00    +0.039 A  
DOCKED: ATOM     52  C11 UNL     1       5.234  -7.763   8.490 +0.00 +0.00    +0.126 A  
DOCKED: ATOM     53  F1  UNL     1       5.176  -8.242   9.741 +0.00 -0.00    -0.205 F  
DOCKED: ATOM     54  C12 UNL     1       5.103  -8.630   7.416 +0.00 +0.00    +0.077 A  
DOCKED: ATOM     55  C13 UNL     1       5.156  -8.112   6.127 +0.00 +0.00    +0.130 A  
DOCKED: ATOM     56  F2  UNL     1       5.011  -8.942   5.083 +0.00 -0.00    -0.205 F  
DOCKED: ENDBRANCH  48  49
DOCKED: ENDBRANCH  45  48
DOCKED: ENDBRANCH  43  44
DOCKED: BRANCH  43  57
DOCKED: ATOM     57  C4  UNL     1       7.788  -2.624   5.086 +0.00 +0.00    +0.028 C  
DOCKED: BRANCH  57  59
DOCKED: ATOM     58  C1  UNL     1       5.899  -2.378   6.839 +0.00 +0.00    +0.007 C  
DOCKED: ATOM     59  C2  UNL     1       7.399  -2.468   6.576 +0.00 -0.00    -0.015 C  
DOCKED: ATOM     60  C3  UNL     1       8.049  -3.504   7.495 +0.00 +0.00    +0.007 C  
DOCKED: ENDBRANCH  57  59
DOCKED: ENDBRANCH  43  57
DOCKED: ENDBRANCH  40  43
DOCKED: ENDBRANCH  39  40
DOCKED: ENDBRANCH  35  39
DOCKED: ENDBRANCH  34  37
DOCKED: BRANCH  34  61
DOCKED: ATOM     61  C36 UNL     1       4.743  -6.210   1.203 +0.00 +0.00    +0.012 C  
DOCKED: ATOM     62  C37 UNL     1       5.076  -7.699   1.350 +0.00 +0.00    +0.009 C  
DOCKED: ATOM     63  C38 UNL     1       3.362  -6.036   0.567 +0.00 +0.00    +0.009 C  
DOCKED: ENDBRANCH  34  61
DOCKED: ENDBRANCH   1  34
DOCKED: TORSDOF 25
DOCKED: TER
DOCKED: ENDMDL
________________________________________________________________________________


    FINAL DOCKED STATE:
    ________________________


Run:   8 / 20
Time taken for this run:   3.410s

DOCKED: MODEL        8
DOCKED: USER    Run = 8
DOCKED: USER
DOCKED: USER    Estimated Free Energy of Binding    =  +7.46 kcal/mol  [=(1)+(2)+(3)-(4)]
DOCKED: USER
DOCKED: USER    (1) Final Intermolecular Energy     =  +0.00 kcal/mol
DOCKED: USER        vdW + Hbond + desolv Energy     =  +0.00 kcal/mol
DOCKED: USER        Electrostatic Energy            =  +0.00 kcal/mol
DOCKED: USER        Moving Ligand-Fixed Receptor    =  +0.00 kcal/mol
DOCKED: USER        Moving Ligand-Moving Receptor   =  +0.00 kcal/mol
DOCKED: USER    (2) Final Total Internal Energy     = -19.88 kcal/mol
DOCKED: USER    (3) Torsional Free Energy           =  +7.46 kcal/mol
DOCKED: USER    (4) Unbound System's Energy         = -19.88 kcal/mol
DOCKED: USER
DOCKED: USER
DOCKED: REMARK  Name = ligands/ligand_30.pdb
DOCKED: REMARK  30 active torsions:
DOCKED: REMARK  status: ('A' for Active; 'I' for Inactive)
DOCKED: REMARK    1  A    between atoms: C1_1  and  C2_2
DOCKED: REMARK    2  A    between atoms: C2_2  and  C3_3
DOCKED: REMARK    3  A    between atoms: C2_2  and  C4_4
DOCKED: REMARK    4  A    between atoms: C4_4  and  C5_5
DOCKED: REMARK    5  A    between atoms: C5_5  and  N1_6
DOCKED: REMARK    6  A    between atoms: C5_5  and  C14_18
DOCKED: REMARK    7  A    between atoms: C6_7  and  C7_9
DOCKED: REMARK    8  A    between atoms: C7_9  and  C8_10
DOCKED: REMARK    9  A    between atoms: C14_18  and  O2_19
DOCKED: REMARK   10  A    between atoms: C14_18  and  C15_20
DOCKED: REMARK   11  A    between atoms: C15_20  and  C16_21
DOCKED: REMARK   12  A    between atoms: N2_23  and  C17_24
DOCKED: REMARK   13  A    between atoms: C17_24  and  C18_25
DOCKED: REMARK   14  A    between atoms: C17_24  and  C36_53
DOCKED: REMARK   15  A    between atoms: N3_27  and  C19_28
DOCKED: REMARK   16  A    between atoms: C19_28  and  C20_29
DOCKED: REMARK   17  A    between atoms: C19_28  and  C21_30
DOCKED: REMARK   18  A    between atoms: N4_32  and  C22_33
DOCKED: REMARK   19  A    between atoms: C22_33  and  C23_34
DOCKED: REMARK   20  A    between atoms: C22_33  and  C26_39
DOCKED: REMARK   21  A    between atoms: C23_34  and  C24_35
DOCKED: REMARK   22  A    between atoms: C24_35  and  C25_36
DOCKED: REMARK   23  A    between atoms: C25_36  and  O7_38
DOCKED: REMARK   24  A    between atoms: N5_41  and  C27_42
DOCKED: REMARK   25  A    between atoms: C27_42  and  C28_43
DOCKED: REMARK   26  A    between atoms: C27_42  and  C35_50
DOCKED: REMARK   27  A    between atoms: C28_43  and  C29_44
DOCKED: REMARK   28  A    between atoms: C35_50  and  O10_52
DOCKED: REMARK   29  A    between atoms: C36_53  and  C37_54
DOCKED: REMARK   30  A    between atoms: C36_53  and  C38_55
DOCKED: REMARK                            x       y       z     vdW  Elec       q    Type
DOCKED: REMARK                         _______ _______ _______ _____ _____    ______ ____
DOCKED: USER                              x       y       z     vdW  Elec       q    Type
DOCKED: USER                           _______ _______ _______ _____ _____    ______ ____
DOCKED: ROOT
DOCKED: ATOM      1  C18 UNL     1       4.917   3.549  -4.829 +0.00 +0.00    +0.234 C  
DOCKED: ATOM      2  O4  UNL     1       5.095   2.335  -4.731 +0.00 -0.00    -0.274 OA 
DOCKED: ATOM      3  N3  UNL     1       5.065   4.435  -3.785 +0.00 -0.00    -0.303 N  
DOCKED: ATOM      4  H23 UNL     1       4.596   5.327  -3.918 +0.00 +0.00    +0.149 HD 
DOCKED: ENDROOT
DOCKED: BRANCH   3   5
DOCKED: ATOM      5  C19 UNL     1       5.111   4.047  -2.367 +0.00 +0.00    +0.156 C  
DOCKED: ATOM      6  C20 UNL     1       4.822   5.155  -1.367 +0.00 +0.00    +0.038 C  
DOCKED: BRANCH   5   7
DOCKED: ATOM      7  C21 UNL     1       6.436   3.275  -2.176 +0.00 +0.00    +0.234 C  
DOCKED: ATOM      8  O5  UNL     1       6.721   2.782  -1.078 +0.00 -0.00    -0.274 OA 
DOCKED: ATOM      9  N4  UNL     1       7.333   3.284  -3.220 +0.00 -0.00    -0.302 N  
DOCKED: ATOM     10  H28 UNL     1       6.927   3.324  -4.156 +0.00 +0.00    +0.150 HD 
DOCKED: BRANCH   9  11
DOCKED: ATOM     11  C22 UNL     1       8.572   2.524  -3.100 +0.00 +0.00    +0.159 C  
DOCKED: BRANCH  11  12
DOCKED: ATOM     12  C26 UNL     1       8.277   1.058  -2.719 +0.00 +0.00    +0.234 C  
DOCKED: ATOM     13  O8  UNL     1       8.780   0.512  -1.740 +0.00 -0.00    -0.274 OA 
DOCKED: ATOM     14  N5  UNL     1       7.354   0.440  -3.536 +0.00 -0.00    -0.301 N  
DOCKED: ATOM     15  H35 UNL     1       6.774   1.031  -4.119 +0.00 +0.00    +0.150 HD 
DOCKED: BRANCH  14  16
DOCKED: ATOM     16  C27 UNL     1       6.793  -0.874  -3.194 +0.00 +0.00    +0.186 C  
DOCKED: BRANCH  16  17
DOCKED: ATOM     17  C35 UNL     1       5.395  -0.914  -3.817 +0.00 +0.00    +0.326 C  
DOCKED: ATOM     18  O9  UNL     1       4.369  -1.269  -3.244 +0.00 -0.00    -0.249 OA 
DOCKED: BRANCH  17  19
DOCKED: ATOM     19  O10 UNL     1       5.350  -0.485  -5.090 +0.00 -0.00    -0.479 OA 
DOCKED: ATOM     20  H44 UNL     1       5.117   0.466  -5.029 +0.00 +0.00    +0.295 HD 
DOCKED: ENDBRANCH  17  19
DOCKED: ENDBRANCH  16  17
DOCKED: BRANCH  16  21
DOCKED: ATOM     21  C28 UNL     1       7.673  -1.982  -3.784 +0.00 +0.00    +0.069 C  
DOCKED: BRANCH  21  22
DOCKED: ATOM     22  C29 UNL     1       9.098  -1.957  -3.287 +0.00 -0.00    -0.045 A  
DOCKED: ATOM     23  C30 UNL     1      10.084  -1.279  -4.017 +0.00 +0.00    +0.004 A  
DOCKED: ATOM     24  C31 UNL     1      11.411  -1.273  -3.582 +0.00 +0.00    +0.000 A  
DOCKED: ATOM     25  C32 UNL     1      11.764  -1.932  -2.408 +0.00 +0.00    +0.000 A  
DOCKED: ATOM     26  C33 UNL     1      10.790  -2.606  -1.671 +0.00 +0.00    +0.000 A  
DOCKED: ATOM     27  C34 UNL     1       9.464  -2.621  -2.109 +0.00 +0.00    +0.004 A  
DOCKED: ENDBRANCH  21  22
DOCKED: ENDBRANCH  16  21
DOCKED: ENDBRANCH  14  16
DOCKED: ENDBRANCH  11  12
DOCKED: BRANCH  11  28
DOCKED: ATOM     28  C23 UNL     1       9.439   2.605  -4.369 +0.00 +0.00    +0.043 C  
DOCKED: BRANCH  28  29
DOCKED: ATOM     29  C24 UNL     1       8.999   1.734  -5.546 +0.00 +0.00    +0.123 C  
DOCKED: BRANCH  29  30
DOCKED: ATOM     30  C25 UNL     1       7.646   2.128  -6.068 +0.00 +0.00    +0.305 C  
DOCKED: ATOM     31  O6  UNL     1       7.286   3.264  -6.337 +0.00 -0.00    -0.251 OA 
DOCKED: BRANCH  30  32
DOCKED: ATOM     32  O7  UNL     1       6.831   1.078  -6.269 +0.00 -0.00    -0.481 OA 
DOCKED: ATOM     33  H34 UNL     1       5.973   1.357  -5.889 +0.00 +0.00    +0.295 HD 
DOCKED: ENDBRANCH  30  32
DOCKED: ENDBRANCH  29  30
DOCKED: ENDBRANCH  28  29
DOCKED: ENDBRANCH  11  28
DOCKED: ENDBRANCH   9  11
DOCKED: ENDBRANCH   5   7
DOCKED: ENDBRANCH   3   5
DOCKED: BRANCH   1  34
DOCKED: ATOM     34  C17 UNL     1       4.533   4.189  -6.188 +0.00 +0.00    +0.161 C  
DOCKED: BRANCH  34  37
DOCKED: ATOM     35  C16 UNL     1       3.724   2.916  -8.168 +0.00 +0.00    +0.216 C  
DOCKED: ATOM     36  O3  UNL     1       2.715   3.604  -8.303 +0.00 -0.00    -0.276 OA 
DOCKED: ATOM     37  N2  UNL     1       4.662   3.130  -7.193 +0.00 -0.00    -0.304 N  
DOCKED: ATOM     38  H21 UNL     1       5.376   2.428  -7.007 +0.00 +0.00    +0.149 HD 
DOCKED: BRANCH  35  39
DOCKED: ATOM     39  C15 UNL     1       4.089   1.806  -9.131 +0.00 +0.00    +0.129 C  
DOCKED: BRANCH  39  40
DOCKED: ATOM     40  C14 UNL     1       4.177   0.427  -8.457 +0.00 +0.00    +0.143 C  
DOCKED: BRANCH  40  41
DOCKED: ATOM     41  O2  UNL     1       4.307   0.585  -7.050 +0.00 -0.00    -0.389 OA 
DOCKED: ATOM     42  H18 UNL     1       5.262   0.731  -6.868 +0.00 +0.00    +0.210 HD 
DOCKED: ENDBRANCH  40  41
DOCKED: BRANCH  40  43
DOCKED: ATOM     43  C5  UNL     1       5.272  -0.484  -9.078 +0.00 +0.00    +0.102 C  
DOCKED: BRANCH  43  44
DOCKED: ATOM     44  N1  UNL     1       6.035  -1.118  -7.986 +0.00 -0.00    -0.310 N  
DOCKED: ATOM     45  C6  UNL     1       6.964  -2.111  -8.222 +0.00 +0.00    +0.218 C  
DOCKED: ATOM     46  O1  UNL     1       7.156  -2.599  -9.332 +0.00 -0.00    -0.275 OA 
DOCKED: ATOM     47  H11 UNL     1       6.099  -0.611  -7.114 +0.00 +0.00    +0.149 HD 
DOCKED: BRANCH  45  48
DOCKED: ATOM     48  C7  UNL     1       7.753  -2.521  -6.987 +0.00 +0.00    +0.133 C  
DOCKED: BRANCH  48  49
DOCKED: ATOM     49  C8  UNL     1       9.213  -2.162  -7.070 +0.00 -0.00    -0.003 A  
DOCKED: ATOM     50  C9  UNL     1       9.624  -0.846  -7.321 +0.00 +0.00    +0.010 A  
DOCKED: ATOM     51  C10 UNL     1      10.985  -0.539  -7.390 +0.00 +0.00    +0.039 A  
DOCKED: ATOM     52  C11 UNL     1      11.929  -1.547  -7.209 +0.00 +0.00    +0.126 A  
DOCKED: ATOM     53  F1  UNL     1      13.232  -1.240  -7.268 +0.00 -0.00    -0.205 F  
DOCKED: ATOM     54  C12 UNL     1      11.542  -2.857  -6.967 +0.00 +0.00    +0.077 A  
DOCKED: ATOM     55  C13 UNL     1      10.186  -3.153  -6.899 +0.00 +0.00    +0.130 A  
DOCKED: ATOM     56  F2  UNL     1       9.805  -4.414  -6.646 +0.00 -0.00    -0.205 F  
DOCKED: ENDBRANCH  48  49
DOCKED: ENDBRANCH  45  48
DOCKED: ENDBRANCH  43  44
DOCKED: BRANCH  43  57
DOCKED: ATOM     57  C4  UNL     1       6.281   0.265  -9.989 +0.00 +0.00    +0.028 C  
DOCKED: BRANCH  57  59
DOCKED: ATOM     58  C1  UNL     1       8.830   0.710  -9.938 +0.00 +0.00    +0.007 C  
DOCKED: ATOM     59  C2  UNL     1       7.460   1.044  -9.357 +0.00 -0.00    -0.015 C  
DOCKED: ATOM     60  C3  UNL     1       7.245   2.557  -9.309 +0.00 +0.00    +0.007 C  
DOCKED: ENDBRANCH  57  59
DOCKED: ENDBRANCH  43  57
DOCKED: ENDBRANCH  40  43
DOCKED: ENDBRANCH  39  40
DOCKED: ENDBRANCH  35  39
DOCKED: ENDBRANCH  34  37
DOCKED: BRANCH  34  61
DOCKED: ATOM     61  C36 UNL     1       5.385   5.415  -6.596 +0.00 +0.00    +0.012 C  
DOCKED: ATOM     62  C37 UNL     1       4.726   6.751  -6.234 +0.00 +0.00    +0.009 C  
DOCKED: ATOM     63  C38 UNL     1       5.774   5.400  -8.076 +0.00 +0.00    +0.009 C  
DOCKED: ENDBRANCH  34  61
DOCKED: ENDBRANCH   1  34
DOCKED: TORSDOF 25
DOCKED: TER
DOCKED: ENDMDL
________________________________________________________________________________


    FINAL DOCKED STATE:
    ________________________


Run:   9 / 20
Time taken for this run:   3.410s

DOCKED: MODEL        9
DOCKED: USER    Run = 9
DOCKED: USER
DOCKED: USER    Estimated Free Energy of Binding    =  +7.46 kcal/mol  [=(1)+(2)+(3)-(4)]
DOCKED: USER
DOCKED: USER    (1) Final Intermolecular Energy     =  +0.00 kcal/mol
DOCKED: USER        vdW + Hbond + desolv Energy     =  +0.00 kcal/mol
DOCKED: USER        Electrostatic Energy            =  +0.00 kcal/mol
DOCKED: USER        Moving Ligand-Fixed Receptor    =  +0.00 kcal/mol
DOCKED: USER        Moving Ligand-Moving Receptor   =  +0.00 kcal/mol
DOCKED: USER    (2) Final Total Internal Energy     = -20.57 kcal/mol
DOCKED: USER    (3) Torsional Free Energy           =  +7.46 kcal/mol
DOCKED: USER    (4) Unbound System's Energy         = -20.57 kcal/mol
DOCKED: USER
DOCKED: USER
DOCKED: REMARK  Name = ligands/ligand_30.pdb
DOCKED: REMARK  30 active torsions:
DOCKED: REMARK  status: ('A' for Active; 'I' for Inactive)
DOCKED: REMARK    1  A    between atoms: C1_1  and  C2_2
DOCKED: REMARK    2  A    between atoms: C2_2  and  C3_3
DOCKED: REMARK    3  A    between atoms: C2_2  and  C4_4
DOCKED: REMARK    4  A    between atoms: C4_4  and  C5_5
DOCKED: REMARK    5  A    between atoms: C5_5  and  N1_6
DOCKED: REMARK    6  A    between atoms: C5_5  and  C14_18
DOCKED: REMARK    7  A    between atoms: C6_7  and  C7_9
DOCKED: REMARK    8  A    between atoms: C7_9  and  C8_10
DOCKED: REMARK    9  A    between atoms: C14_18  and  O2_19
DOCKED: REMARK   10  A    between atoms: C14_18  and  C15_20
DOCKED: REMARK   11  A    between atoms: C15_20  and  C16_21
DOCKED: REMARK   12  A    between atoms: N2_23  and  C17_24
DOCKED: REMARK   13  A    between atoms: C17_24  and  C18_25
DOCKED: REMARK   14  A    between atoms: C17_24  and  C36_53
DOCKED: REMARK   15  A    between atoms: N3_27  and  C19_28
DOCKED: REMARK   16  A    between atoms: C19_28  and  C20_29
DOCKED: REMARK   17  A    between atoms: C19_28  and  C21_30
DOCKED: REMARK   18  A    between atoms: N4_32  and  C22_33
DOCKED: REMARK   19  A    between atoms: C22_33  and  C23_34
DOCKED: REMARK   20  A    between atoms: C22_33  and  C26_39
DOCKED: REMARK   21  A    between atoms: C23_34  and  C24_35
DOCKED: REMARK   22  A    between atoms: C24_35  and  C25_36
DOCKED: REMARK   23  A    between atoms: C25_36  and  O7_38
DOCKED: REMARK   24  A    between atoms: N5_41  and  C27_42
DOCKED: REMARK   25  A    between atoms: C27_42  and  C28_43
DOCKED: REMARK   26  A    between atoms: C27_42  and  C35_50
DOCKED: REMARK   27  A    between atoms: C28_43  and  C29_44
DOCKED: REMARK   28  A    between atoms: C35_50  and  O10_52
DOCKED: REMARK   29  A    between atoms: C36_53  and  C37_54
DOCKED: REMARK   30  A    between atoms: C36_53  and  C38_55
DOCKED: REMARK                            x       y       z     vdW  Elec       q    Type
DOCKED: REMARK                         _______ _______ _______ _____ _____    ______ ____
DOCKED: USER                              x       y       z     vdW  Elec       q    Type
DOCKED: USER                           _______ _______ _______ _____ _____    ______ ____
DOCKED: ROOT
DOCKED: ATOM      1  C18 UNL     1      15.326  -5.668  -2.679 +0.00 +0.00    +0.234 C  
DOCKED: ATOM      2  O4  UNL     1      15.852  -5.725  -1.567 +0.00 -0.00    -0.274 OA 
DOCKED: ATOM      3  N3  UNL     1      14.011  -5.319  -2.890 +0.00 -0.00    -0.303 N  
DOCKED: ATOM      4  H23 UNL     1      13.635  -5.610  -3.788 +0.00 +0.00    +0.149 HD 
DOCKED: ENDROOT
DOCKED: BRANCH   3   5
DOCKED: ATOM      5  C19 UNL     1      12.978  -5.304  -1.843 +0.00 +0.00    +0.156 C  
DOCKED: ATOM      6  C20 UNL     1      13.455  -5.623  -0.436 +0.00 +0.00    +0.038 C  
DOCKED: BRANCH   5   7
DOCKED: ATOM      7  C21 UNL     1      11.806  -6.155  -2.384 +0.00 +0.00    +0.234 C  
DOCKED: ATOM      8  O5  UNL     1      11.356  -5.952  -3.518 +0.00 -0.00    -0.274 OA 
DOCKED: ATOM      9  N4  UNL     1      11.204  -7.033  -1.511 +0.00 -0.00    -0.302 N  
DOCKED: ATOM     10  H28 UNL     1      11.812  -7.442  -0.801 +0.00 +0.00    +0.150 HD 
DOCKED: BRANCH   9  11
DOCKED: ATOM     11  C22 UNL     1      10.129  -7.892  -1.996 +0.00 +0.00    +0.159 C  
DOCKED: BRANCH  11  12
DOCKED: ATOM     12  C26 UNL     1       9.115  -7.079  -2.827 +0.00 +0.00    +0.234 C  
DOCKED: ATOM     13  O8  UNL     1       8.250  -6.373  -2.314 +0.00 -0.00    -0.274 OA 
DOCKED: ATOM     14  N5  UNL     1       9.306  -7.166  -4.190 +0.00 -0.00    -0.301 N  
DOCKED: ATOM     15  H35 UNL     1      10.200  -7.511  -4.516 +0.00 +0.00    +0.150 HD 
DOCKED: BRANCH  14  16
DOCKED: ATOM     16  C27 UNL     1       8.577  -6.291  -5.119 +0.00 +0.00    +0.186 C  
DOCKED: BRANCH  16  17
DOCKED: ATOM     17  C35 UNL     1       9.643  -5.561  -5.940 +0.00 +0.00    +0.326 C  
DOCKED: ATOM     18  O9  UNL     1       9.579  -4.394  -6.316 +0.00 -0.00    -0.249 OA 
DOCKED: BRANCH  17  19
DOCKED: ATOM     19  O10 UNL     1      10.729  -6.306  -6.214 +0.00 -0.00    -0.479 OA 
DOCKED: ATOM     20  H44 UNL     1      11.121  -6.513  -5.339 +0.00 +0.00    +0.295 HD 
DOCKED: ENDBRANCH  17  19
DOCKED: ENDBRANCH  16  17
DOCKED: BRANCH  16  21
DOCKED: ATOM     21  C28 UNL     1       7.685  -7.137  -6.034 +0.00 +0.00    +0.069 C  
DOCKED: BRANCH  21  22
DOCKED: ATOM     22  C29 UNL     1       8.389  -8.324  -6.644 +0.00 -0.00    -0.045 A  
DOCKED: ATOM     23  C30 UNL     1       8.384  -9.561  -5.984 +0.00 +0.00    +0.004 A  
DOCKED: ATOM     24  C31 UNL     1       9.055 -10.658  -6.525 +0.00 +0.00    +0.000 A  
DOCKED: ATOM     25  C32 UNL     1       9.728 -10.537  -7.737 +0.00 +0.00    +0.000 A  
DOCKED: ATOM     26  C33 UNL     1       9.736  -9.312  -8.407 +0.00 +0.00    +0.000 A  
DOCKED: ATOM     27  C34 UNL     1       9.073  -8.211  -7.862 +0.00 +0.00    +0.004 A  
DOCKED: ENDBRANCH  21  22
DOCKED: ENDBRANCH  16  21
DOCKED: ENDBRANCH  14  16
DOCKED: ENDBRANCH  11  12
DOCKED: BRANCH  11  28
DOCKED: ATOM     28  C23 UNL     1      10.654  -9.102  -2.788 +0.00 +0.00    +0.043 C  
DOCKED: BRANCH  28  29
DOCKED: ATOM     29  C24 UNL     1      12.087  -8.997  -3.313 +0.00 +0.00    +0.123 C  
DOCKED: BRANCH  29  30
DOCKED: ATOM     30  C25 UNL     1      12.144  -8.383  -4.683 +0.00 +0.00    +0.305 C  
DOCKED: ATOM     31  O6  UNL     1      11.440  -8.686  -5.634 +0.00 -0.00    -0.251 OA 
DOCKED: BRANCH  30  32
DOCKED: ATOM     32  O7  UNL     1      13.047  -7.391  -4.779 +0.00 -0.00    -0.481 OA 
DOCKED: ATOM     33  H34 UNL     1      12.551  -6.644  -5.173 +0.00 +0.00    +0.295 HD 
DOCKED: ENDBRANCH  30  32
DOCKED: ENDBRANCH  29  30
DOCKED: ENDBRANCH  28  29
DOCKED: ENDBRANCH  11  28
DOCKED: ENDBRANCH   9  11
DOCKED: ENDBRANCH   5   7
DOCKED: ENDBRANCH   3   5
DOCKED: BRANCH   1  34
DOCKED: ATOM     34  C17 UNL     1      16.145  -5.964  -3.962 +0.00 +0.00    +0.161 C  
DOCKED: BRANCH  34  37
DOCKED: ATOM     35  C16 UNL     1      15.277  -4.110  -5.378 +0.00 +0.00    +0.216 C  
DOCKED: ATOM     36  O3  UNL     1      15.879  -3.239  -4.755 +0.00 -0.00    -0.276 OA 
DOCKED: ATOM     37  N2  UNL     1      15.356  -5.446  -5.083 +0.00 -0.00    -0.304 N  
DOCKED: ATOM     38  H21 UNL     1      14.701  -6.102  -5.504 +0.00 +0.00    +0.149 HD 
DOCKED: BRANCH  35  39
DOCKED: ATOM     39  C15 UNL     1      14.451  -3.807  -6.611 +0.00 +0.00    +0.129 C  
DOCKED: BRANCH  39  40
DOCKED: ATOM     40  C14 UNL     1      13.052  -4.443  -6.571 +0.00 +0.00    +0.143 C  
DOCKED: BRANCH  40  41
DOCKED: ATOM     41  O2  UNL     1      12.836  -5.056  -5.306 +0.00 -0.00    -0.389 OA 
DOCKED: ATOM     42  H18 UNL     1      11.933  -5.444  -5.329 +0.00 +0.00    +0.210 HD 
DOCKED: ENDBRANCH  40  41
DOCKED: BRANCH  40  43
DOCKED: ATOM     43  C5  UNL     1      12.783  -5.395  -7.770 +0.00 +0.00    +0.102 C  
DOCKED: BRANCH  43  44
DOCKED: ATOM     44  N1  UNL     1      13.189  -6.761  -7.389 +0.00 -0.00    -0.310 N  
DOCKED: ATOM     45  C6  UNL     1      14.515  -7.139  -7.319 +0.00 +0.00    +0.218 C  
DOCKED: ATOM     46  O1  UNL     1      15.439  -6.404  -7.652 +0.00 -0.00    -0.275 OA 
DOCKED: ATOM     47  H11 UNL     1      12.513  -7.320  -6.885 +0.00 +0.00    +0.149 HD 
DOCKED: BRANCH  45  48
DOCKED: ATOM     48  C7  UNL     1      14.727  -8.537  -6.757 +0.00 +0.00    +0.133 C  
DOCKED: BRANCH  48  49
DOCKED: ATOM     49  C8  UNL     1      13.992  -9.603  -7.525 +0.00 -0.00    -0.003 A  
DOCKED: ATOM     50  C9  UNL     1      13.697  -9.444  -8.886 +0.00 +0.00    +0.010 A  
DOCKED: ATOM     51  C10 UNL     1      13.017 -10.449  -9.577 +0.00 +0.00    +0.039 A  
DOCKED: ATOM     52  C11 UNL     1      12.633 -11.608  -8.907 +0.00 +0.00    +0.126 A  
DOCKED: ATOM     53  F1  UNL     1      11.989 -12.570  -9.581 +0.00 -0.00    -0.205 F  
DOCKED: ATOM     54  C12 UNL     1      12.909 -11.781  -7.558 +0.00 +0.00    +0.077 A  
DOCKED: ATOM     55  C13 UNL     1      13.587 -10.776  -6.879 +0.00 +0.00    +0.130 A  
DOCKED: ATOM     56  F2  UNL     1      13.874 -10.945  -5.579 +0.00 -0.00    -0.205 F  
DOCKED: ENDBRANCH  48  49
DOCKED: ENDBRANCH  45  48
DOCKED: ENDBRANCH  43  44
DOCKED: BRANCH  43  57
DOCKED: ATOM     57  C4  UNL     1      13.549  -5.017  -9.066 +0.00 +0.00    +0.028 C  
DOCKED: BRANCH  57  59
DOCKED: ATOM     58  C1  UNL     1      14.505  -6.657 -10.825 +0.00 +0.00    +0.007 C  
DOCKED: ATOM     59  C2  UNL     1      13.313  -5.824 -10.365 +0.00 -0.00    -0.015 C  
DOCKED: ATOM     60  C3  UNL     1      12.038  -6.667 -10.344 +0.00 +0.00    +0.007 C  
DOCKED: ENDBRANCH  57  59
DOCKED: ENDBRANCH  43  57
DOCKED: ENDBRANCH  40  43
DOCKED: ENDBRANCH  39  40
DOCKED: ENDBRANCH  35  39
DOCKED: ENDBRANCH  34  37
DOCKED: BRANCH  34  61
DOCKED: ATOM     61  C36 UNL     1      16.478  -7.458  -4.193 +0.00 +0.00    +0.012 C  
DOCKED: ATOM     62  C37 UNL     1      15.630  -8.402  -3.333 +0.00 +0.00    +0.009 C  
DOCKED: ATOM     63  C38 UNL     1      17.965  -7.768  -4.013 +0.00 +0.00    +0.009 C  
DOCKED: ENDBRANCH  34  61
DOCKED: ENDBRANCH   1  34
DOCKED: TORSDOF 25
DOCKED: TER
DOCKED: ENDMDL
________________________________________________________________________________


    FINAL DOCKED STATE:
    ________________________


Run:   10 / 20
Time taken for this run:   3.410s

DOCKED: MODEL        10
DOCKED: USER    Run = 10
DOCKED: USER
DOCKED: USER    Estimated Free Energy of Binding    =  +7.46 kcal/mol  [=(1)+(2)+(3)-(4)]
DOCKED: USER
DOCKED: USER    (1) Final Intermolecular Energy     =  +0.00 kcal/mol
DOCKED: USER        vdW + Hbond + desolv Energy     =  +0.00 kcal/mol
DOCKED: USER        Electrostatic Energy            =  +0.00 kcal/mol
DOCKED: USER        Moving Ligand-Fixed Receptor    =  +0.00 kcal/mol
DOCKED: USER        Moving Ligand-Moving Receptor   =  +0.00 kcal/mol
DOCKED: USER    (2) Final Total Internal Energy     = -20.17 kcal/mol
DOCKED: USER    (3) Torsional Free Energy           =  +7.46 kcal/mol
DOCKED: USER    (4) Unbound System's Energy         = -20.17 kcal/mol
DOCKED: USER
DOCKED: USER
DOCKED: REMARK  Name = ligands/ligand_30.pdb
DOCKED: REMARK  30 active torsions:
DOCKED: REMARK  status: ('A' for Active; 'I' for Inactive)
DOCKED: REMARK    1  A    between atoms: C1_1  and  C2_2
DOCKED: REMARK    2  A    between atoms: C2_2  and  C3_3
DOCKED: REMARK    3  A    between atoms: C2_2  and  C4_4
DOCKED: REMARK    4  A    between atoms: C4_4  and  C5_5
DOCKED: REMARK    5  A    between atoms: C5_5  and  N1_6
DOCKED: REMARK    6  A    between atoms: C5_5  and  C14_18
DOCKED: REMARK    7  A    between atoms: C6_7  and  C7_9
DOCKED: REMARK    8  A    between atoms: C7_9  and  C8_10
DOCKED: REMARK    9  A    between atoms: C14_18  and  O2_19
DOCKED: REMARK   10  A    between atoms: C14_18  and  C15_20
DOCKED: REMARK   11  A    between atoms: C15_20  and  C16_21
DOCKED: REMARK   12  A    between atoms: N2_23  and  C17_24
DOCKED: REMARK   13  A    between atoms: C17_24  and  C18_25
DOCKED: REMARK   14  A    between atoms: C17_24  and  C36_53
DOCKED: REMARK   15  A    between atoms: N3_27  and  C19_28
DOCKED: REMARK   16  A    between atoms: C19_28  and  C20_29
DOCKED: REMARK   17  A    between atoms: C19_28  and  C21_30
DOCKED: REMARK   18  A    between atoms: N4_32  and  C22_33
DOCKED: REMARK   19  A    between atoms: C22_33  and  C23_34
DOCKED: REMARK   20  A    between atoms: C22_33  and  C26_39
DOCKED: REMARK   21  A    between atoms: C23_34  and  C24_35
DOCKED: REMARK   22  A    between atoms: C24_35  and  C25_36
DOCKED: REMARK   23  A    between atoms: C25_36  and  O7_38
DOCKED: REMARK   24  A    between atoms: N5_41  and  C27_42
DOCKED: REMARK   25  A    between atoms: C27_42  and  C28_43
DOCKED: REMARK   26  A    between atoms: C27_42  and  C35_50
DOCKED: REMARK   27  A    between atoms: C28_43  and  C29_44
DOCKED: REMARK   28  A    between atoms: C35_50  and  O10_52
DOCKED: REMARK   29  A    between atoms: C36_53  and  C37_54
DOCKED: REMARK   30  A    between atoms: C36_53  and  C38_55
DOCKED: REMARK                            x       y       z     vdW  Elec       q    Type
DOCKED: REMARK                         _______ _______ _______ _____ _____    ______ ____
DOCKED: USER                              x       y       z     vdW  Elec       q    Type
DOCKED: USER                           _______ _______ _______ _____ _____    ______ ____
DOCKED: ROOT
DOCKED: ATOM      1  C18 UNL     1      12.163  -1.532  -1.531 +0.00 +0.00    +0.234 C  
DOCKED: ATOM      2  O4  UNL     1      13.175  -1.875  -2.143 +0.00 -0.00    -0.274 OA 
DOCKED: ATOM      3  N3  UNL     1      11.893  -0.233  -1.161 +0.00 -0.00    -0.303 N  
DOCKED: ATOM      4  H23 UNL     1      11.210  -0.141  -0.413 +0.00 +0.00    +0.149 HD 
DOCKED: ENDROOT
DOCKED: BRANCH   3   5
DOCKED: ATOM      5  C19 UNL     1      12.891   0.846  -1.126 +0.00 +0.00    +0.156 C  
DOCKED: ATOM      6  C20 UNL     1      14.243   0.517  -1.738 +0.00 +0.00    +0.038 C  
DOCKED: BRANCH   5   7
DOCKED: ATOM      7  C21 UNL     1      12.902   1.376   0.325 +0.00 +0.00    +0.234 C  
DOCKED: ATOM      8  O5  UNL     1      11.839   1.583   0.924 +0.00 -0.00    -0.274 OA 
DOCKED: ATOM      9  N4  UNL     1      14.117   1.737   0.861 +0.00 -0.00    -0.302 N  
DOCKED: ATOM     10  H28 UNL     1      14.924   1.203   0.535 +0.00 +0.00    +0.150 HD 
DOCKED: BRANCH   9  11
DOCKED: ATOM     11  C22 UNL     1      14.177   2.193   2.245 +0.00 +0.00    +0.159 C  
DOCKED: BRANCH  11  12
DOCKED: ATOM     12  C26 UNL     1      13.038   3.191   2.540 +0.00 +0.00    +0.234 C  
DOCKED: ATOM     13  O8  UNL     1      13.089   4.373   2.208 +0.00 -0.00    -0.274 OA 
DOCKED: ATOM     14  N5  UNL     1      11.938   2.625   3.149 +0.00 -0.00    -0.301 N  
DOCKED: ATOM     15  H35 UNL     1      11.851   1.617   3.115 +0.00 +0.00    +0.150 HD 
DOCKED: BRANCH  14  16
DOCKED: ATOM     16  C27 UNL     1      10.684   3.374   3.304 +0.00 +0.00    +0.186 C  
DOCKED: BRANCH  16  17
DOCKED: ATOM     17  C35 UNL     1       9.587   2.495   2.698 +0.00 +0.00    +0.326 C  
DOCKED: ATOM     18  O9  UNL     1       8.661   2.892   1.997 +0.00 -0.00    -0.249 OA 
DOCKED: BRANCH  17  19
DOCKED: ATOM     19  O10 UNL     1       9.722   1.185   2.969 +0.00 -0.00    -0.479 OA 
DOCKED: ATOM     20  H44 UNL     1      10.506   0.899   2.453 +0.00 +0.00    +0.295 HD 
DOCKED: ENDBRANCH  17  19
DOCKED: ENDBRANCH  16  17
DOCKED: BRANCH  16  21
DOCKED: ATOM     21  C28 UNL     1      10.409   3.622   4.791 +0.00 +0.00    +0.069 C  
DOCKED: BRANCH  21  22
DOCKED: ATOM     22  C29 UNL     1      10.546   2.388   5.650 +0.00 -0.00    -0.045 A  
DOCKED: ATOM     23  C30 UNL     1       9.408   1.654   6.011 +0.00 +0.00    +0.004 A  
DOCKED: ATOM     24  C31 UNL     1       9.520   0.527   6.828 +0.00 +0.00    +0.000 A  
DOCKED: ATOM     25  C32 UNL     1      10.769   0.115   7.282 +0.00 +0.00    +0.000 A  
DOCKED: ATOM     26  C33 UNL     1      11.910   0.836   6.925 +0.00 +0.00    +0.000 A  
DOCKED: ATOM     27  C34 UNL     1      11.799   1.968   6.116 +0.00 +0.00    +0.004 A  
DOCKED: ENDBRANCH  21  22
DOCKED: ENDBRANCH  16  21
DOCKED: ENDBRANCH  14  16
DOCKED: ENDBRANCH  11  12
DOCKED: BRANCH  11  28
DOCKED: ATOM     28  C23 UNL     1      14.170   1.028   3.250 +0.00 +0.00    +0.043 C  
DOCKED: BRANCH  28  29
DOCKED: ATOM     29  C24 UNL     1      13.696  -0.324   2.714 +0.00 +0.00    +0.123 C  
DOCKED: BRANCH  29  30
DOCKED: ATOM     30  C25 UNL     1      12.208  -0.491   2.833 +0.00 +0.00    +0.305 C  
DOCKED: ATOM     31  O6  UNL     1      11.549  -0.334   3.849 +0.00 -0.00    -0.251 OA 
DOCKED: BRANCH  30  32
DOCKED: ATOM     32  O7  UNL     1      11.616  -0.800   1.665 +0.00 -0.00    -0.481 OA 
DOCKED: ATOM     33  H34 UNL     1      11.099  -0.001   1.434 +0.00 +0.00    +0.295 HD 
DOCKED: ENDBRANCH  30  32
DOCKED: ENDBRANCH  29  30
DOCKED: ENDBRANCH  28  29
DOCKED: ENDBRANCH  11  28
DOCKED: ENDBRANCH   9  11
DOCKED: ENDBRANCH   5   7
DOCKED: ENDBRANCH   3   5
DOCKED: BRANCH   1  34
DOCKED: ATOM     34  C17 UNL     1      11.074  -2.567  -1.152 +0.00 +0.00    +0.161 C  
DOCKED: BRANCH  34  37
DOCKED: ATOM     35  C16 UNL     1       9.003  -1.223  -1.468 +0.00 +0.00    +0.216 C  
DOCKED: ATOM     36  O3  UNL     1       9.024  -1.324  -2.692 +0.00 -0.00    -0.276 OA 
DOCKED: ATOM     37  N2  UNL     1       9.934  -1.799  -0.644 +0.00 -0.00    -0.304 N  
DOCKED: ATOM     38  H21 UNL     1       9.980  -1.535   0.338 +0.00 +0.00    +0.149 HD 
DOCKED: BRANCH  35  39
DOCKED: ATOM     39  C15 UNL     1       7.882  -0.525  -0.726 +0.00 +0.00    +0.129 C  
DOCKED: BRANCH  39  40
DOCKED: ATOM     40  C14 UNL     1       8.242  -0.187   0.729 +0.00 +0.00    +0.143 C  
DOCKED: BRANCH  40  41
DOCKED: ATOM     41  O2  UNL     1       9.613   0.180   0.816 +0.00 -0.00    -0.389 OA 
DOCKED: ATOM     42  H18 UNL     1       9.637   1.146   0.998 +0.00 +0.00    +0.210 HD 
DOCKED: ENDBRANCH  40  41
DOCKED: BRANCH  40  43
DOCKED: ATOM     43  C5  UNL     1       7.841  -1.308   1.730 +0.00 +0.00    +0.102 C  
DOCKED: BRANCH  43  44
DOCKED: ATOM     44  N1  UNL     1       8.820  -1.329   2.833 +0.00 -0.00    -0.310 N  
DOCKED: ATOM     45  C6  UNL     1       8.672  -2.157   3.928 +0.00 +0.00    +0.218 C  
DOCKED: ATOM     46  O1  UNL     1       7.683  -2.860   4.107 +0.00 -0.00    -0.275 OA 
DOCKED: ATOM     47  H11 UNL     1       9.744  -0.969   2.637 +0.00 +0.00    +0.149 HD 
DOCKED: BRANCH  45  48
DOCKED: ATOM     48  C7  UNL     1       9.864  -2.144   4.873 +0.00 +0.00    +0.133 C  
DOCKED: BRANCH  48  49
DOCKED: ATOM     49  C8  UNL     1      10.934  -3.133   4.493 +0.00 -0.00    -0.003 A  
DOCKED: ATOM     50  C9  UNL     1      10.713  -4.095   3.497 +0.00 +0.00    +0.010 A  
DOCKED: ATOM     51  C10 UNL     1      11.723  -4.999   3.161 +0.00 +0.00    +0.039 A  
DOCKED: ATOM     52  C11 UNL     1      12.948  -4.941   3.821 +0.00 +0.00    +0.126 A  
DOCKED: ATOM     53  F1  UNL     1      13.913  -5.808   3.485 +0.00 -0.00    -0.205 F  
DOCKED: ATOM     54  C12 UNL     1      13.183  -4.002   4.815 +0.00 +0.00    +0.077 A  
DOCKED: ATOM     55  C13 UNL     1      12.173  -3.105   5.142 +0.00 +0.00    +0.130 A  
DOCKED: ATOM     56  F2  UNL     1      12.400  -2.183   6.089 +0.00 -0.00    -0.205 F  
DOCKED: ENDBRANCH  48  49
DOCKED: ENDBRANCH  45  48
DOCKED: ENDBRANCH  43  44
DOCKED: BRANCH  43  57
DOCKED: ATOM     57  C4  UNL     1       7.796  -2.729   1.108 +0.00 +0.00    +0.028 C  
DOCKED: BRANCH  57  59
DOCKED: ATOM     58  C1  UNL     1       5.548  -3.749   0.331 +0.00 +0.00    +0.007 C  
DOCKED: ATOM     59  C2  UNL     1       6.610  -3.672   1.423 +0.00 -0.00    -0.015 C  
DOCKED: ATOM     60  C3  UNL     1       7.037  -5.073   1.864 +0.00 +0.00    +0.007 C  
DOCKED: ENDBRANCH  57  59
DOCKED: ENDBRANCH  43  57
DOCKED: ENDBRANCH  40  43
DOCKED: ENDBRANCH  39  40
DOCKED: ENDBRANCH  35  39
DOCKED: ENDBRANCH  34  37
DOCKED: BRANCH  34  61
DOCKED: ATOM     61  C36 UNL     1      11.511  -3.622  -0.106 +0.00 +0.00    +0.012 C  
DOCKED: ATOM     62  C37 UNL     1      12.906  -3.353   0.470 +0.00 +0.00    +0.009 C  
DOCKED: ATOM     63  C38 UNL     1      11.423  -5.054  -0.635 +0.00 +0.00    +0.009 C  
DOCKED: ENDBRANCH  34  61
DOCKED: ENDBRANCH   1  34
DOCKED: TORSDOF 25
DOCKED: TER
DOCKED: ENDMDL
________________________________________________________________________________


    FINAL DOCKED STATE:
    ________________________


Run:   11 / 20
Time taken for this run:   3.410s

DOCKED: MODEL        11
DOCKED: USER    Run = 11
DOCKED: USER
DOCKED: USER    Estimated Free Energy of Binding    =  +7.46 kcal/mol  [=(1)+(2)+(3)-(4)]
DOCKED: USER
DOCKED: USER    (1) Final Intermolecular Energy     =  +0.00 kcal/mol
DOCKED: USER        vdW + Hbond + desolv Energy     =  +0.00 kcal/mol
DOCKED: USER        Electrostatic Energy            =  +0.00 kcal/mol
DOCKED: USER        Moving Ligand-Fixed Receptor    =  +0.00 kcal/mol
DOCKED: USER        Moving Ligand-Moving Receptor   =  +0.00 kcal/mol
DOCKED: USER    (2) Final Total Internal Energy     = -19.33 kcal/mol
DOCKED: USER    (3) Torsional Free Energy           =  +7.46 kcal/mol
DOCKED: USER    (4) Unbound System's Energy         = -19.33 kcal/mol
DOCKED: USER
DOCKED: USER
DOCKED: REMARK  Name = ligands/ligand_30.pdb
DOCKED: REMARK  30 active torsions:
DOCKED: REMARK  status: ('A' for Active; 'I' for Inactive)
DOCKED: REMARK    1  A    between atoms: C1_1  and  C2_2
DOCKED: REMARK    2  A    between atoms: C2_2  and  C3_3
DOCKED: REMARK    3  A    between atoms: C2_2  and  C4_4
DOCKED: REMARK    4  A    between atoms: C4_4  and  C5_5
DOCKED: REMARK    5  A    between atoms: C5_5  and  N1_6
DOCKED: REMARK    6  A    between atoms: C5_5  and  C14_18
DOCKED: REMARK    7  A    between atoms: C6_7  and  C7_9
DOCKED: REMARK    8  A    between atoms: C7_9  and  C8_10
DOCKED: REMARK    9  A    between atoms: C14_18  and  O2_19
DOCKED: REMARK   10  A    between atoms: C14_18  and  C15_20
DOCKED: REMARK   11  A    between atoms: C15_20  and  C16_21
DOCKED: REMARK   12  A    between atoms: N2_23  and  C17_24
DOCKED: REMARK   13  A    between atoms: C17_24  and  C18_25
DOCKED: REMARK   14  A    between atoms: C17_24  and  C36_53
DOCKED: REMARK   15  A    between atoms: N3_27  and  C19_28
DOCKED: REMARK   16  A    between atoms: C19_28  and  C20_29
DOCKED: REMARK   17  A    between atoms: C19_28  and  C21_30
DOCKED: REMARK   18  A    between atoms: N4_32  and  C22_33
DOCKED: REMARK   19  A    between atoms: C22_33  and  C23_34
DOCKED: REMARK   20  A    between atoms: C22_33  and  C26_39
DOCKED: REMARK   21  A    between atoms: C23_34  and  C24_35
DOCKED: REMARK   22  A    between atoms: C24_35  and  C25_36
DOCKED: REMARK   23  A    between atoms: C25_36  and  O7_38
DOCKED: REMARK   24  A    between atoms: N5_41  and  C27_42
DOCKED: REMARK   25  A    between atoms: C27_42  and  C28_43
DOCKED: REMARK   26  A    between atoms: C27_42  and  C35_50
DOCKED: REMARK   27  A    between atoms: C28_43  and  C29_44
DOCKED: REMARK   28  A    between atoms: C35_50  and  O10_52
DOCKED: REMARK   29  A    between atoms: C36_53  and  C37_54
DOCKED: REMARK   30  A    between atoms: C36_53  and  C38_55
DOCKED: REMARK                            x       y       z     vdW  Elec       q    Type
DOCKED: REMARK                         _______ _______ _______ _____ _____    ______ ____
DOCKED: USER                              x       y       z     vdW  Elec       q    Type
DOCKED: USER                           _______ _______ _______ _____ _____    ______ ____
DOCKED: ROOT
DOCKED: ATOM      1  C18 UNL     1      12.841  -5.069  -4.349 +0.00 +0.00    +0.234 C  
DOCKED: ATOM      2  O4  UNL     1      13.038  -4.237  -3.463 +0.00 -0.00    -0.274 OA 
DOCKED: ATOM      3  N3  UNL     1      11.691  -5.819  -4.458 +0.00 -0.00    -0.303 N  
DOCKED: ATOM      4  H23 UNL     1      11.787  -6.660  -5.022 +0.00 +0.00    +0.149 HD 
DOCKED: ENDROOT
DOCKED: BRANCH   3   5
DOCKED: ATOM      5  C19 UNL     1      10.707  -5.992  -3.379 +0.00 +0.00    +0.156 C  
DOCKED: ATOM      6  C20 UNL     1       9.771  -4.818  -3.141 +0.00 +0.00    +0.038 C  
DOCKED: BRANCH   5   7
DOCKED: ATOM      7  C21 UNL     1      11.499  -6.502  -2.153 +0.00 +0.00    +0.234 C  
DOCKED: ATOM      8  O5  UNL     1      11.505  -7.705  -1.869 +0.00 -0.00    -0.274 OA 
DOCKED: ATOM      9  N4  UNL     1      12.065  -5.559  -1.326 +0.00 -0.00    -0.302 N  
DOCKED: ATOM     10  H28 UNL     1      12.376  -4.698  -1.779 +0.00 +0.00    +0.150 HD 
DOCKED: BRANCH   9  11
DOCKED: ATOM     11  C22 UNL     1      12.865  -6.000  -0.188 +0.00 +0.00    +0.159 C  
DOCKED: BRANCH  11  12
DOCKED: ATOM     12  C26 UNL     1      14.148  -6.711  -0.667 +0.00 +0.00    +0.234 C  
DOCKED: ATOM     13  O8  UNL     1      14.598  -7.712  -0.115 +0.00 -0.00    -0.274 OA 
DOCKED: ATOM     14  N5  UNL     1      14.705  -6.160  -1.802 +0.00 -0.00    -0.301 N  
DOCKED: ATOM     15  H35 UNL     1      14.125  -5.544  -2.357 +0.00 +0.00    +0.150 HD 
DOCKED: BRANCH  14  16
DOCKED: ATOM     16  C27 UNL     1      15.796  -6.835  -2.519 +0.00 +0.00    +0.186 C  
DOCKED: BRANCH  16  17
DOCKED: ATOM     17  C35 UNL     1      17.038  -6.687  -1.638 +0.00 +0.00    +0.326 C  
DOCKED: ATOM     18  O9  UNL     1      17.917  -7.532  -1.496 +0.00 -0.00    -0.249 OA 
DOCKED: BRANCH  17  19
DOCKED: ATOM     19  O10 UNL     1      17.130  -5.498  -1.016 +0.00 -0.00    -0.479 OA 
DOCKED: ATOM     20  H44 UNL     1      16.355  -4.987  -1.333 +0.00 +0.00    +0.295 HD 
DOCKED: ENDBRANCH  17  19
DOCKED: ENDBRANCH  16  17
DOCKED: BRANCH  16  21
DOCKED: ATOM     21  C28 UNL     1      15.450  -8.316  -2.713 +0.00 +0.00    +0.069 C  
DOCKED: BRANCH  21  22
DOCKED: ATOM     22  C29 UNL     1      14.699  -8.604  -3.990 +0.00 -0.00    -0.045 A  
DOCKED: ATOM     23  C30 UNL     1      15.369  -8.582  -5.220 +0.00 +0.00    +0.004 A  
DOCKED: ATOM     24  C31 UNL     1      14.678  -8.820  -6.410 +0.00 +0.00    +0.000 A  
DOCKED: ATOM     25  C32 UNL     1      13.314  -9.095  -6.382 +0.00 +0.00    +0.000 A  
DOCKED: ATOM     26  C33 UNL     1      12.637  -9.125  -5.162 +0.00 +0.00    +0.000 A  
DOCKED: ATOM     27  C34 UNL     1      13.324  -8.878  -3.972 +0.00 +0.00    +0.004 A  
DOCKED: ENDBRANCH  21  22
DOCKED: ENDBRANCH  16  21
DOCKED: ENDBRANCH  14  16
DOCKED: ENDBRANCH  11  12
DOCKED: BRANCH  11  28
DOCKED: ATOM     28  C23 UNL     1      13.194  -4.851   0.781 +0.00 +0.00    +0.043 C  
DOCKED: BRANCH  28  29
DOCKED: ATOM     29  C24 UNL     1      14.665  -4.444   0.872 +0.00 +0.00    +0.123 C  
DOCKED: BRANCH  29  30
DOCKED: ATOM     30  C25 UNL     1      15.098  -3.617  -0.305 +0.00 +0.00    +0.305 C  
DOCKED: ATOM     31  O6  UNL     1      16.148  -3.000  -0.400 +0.00 -0.00    -0.251 OA 
DOCKED: BRANCH  30  32
DOCKED: ATOM     32  O7  UNL     1      14.217  -3.643  -1.321 +0.00 -0.00    -0.481 OA 
DOCKED: ATOM     33  H34 UNL     1      14.720  -4.018  -2.073 +0.00 +0.00    +0.295 HD 
DOCKED: ENDBRANCH  30  32
DOCKED: ENDBRANCH  29  30
DOCKED: ENDBRANCH  28  29
DOCKED: ENDBRANCH  11  28
DOCKED: ENDBRANCH   9  11
DOCKED: ENDBRANCH   5   7
DOCKED: ENDBRANCH   3   5
DOCKED: BRANCH   1  34
DOCKED: ATOM     34  C17 UNL     1      13.897  -5.315  -5.457 +0.00 +0.00    +0.161 C  
DOCKED: BRANCH  34  37
DOCKED: ATOM     35  C16 UNL     1      16.347  -4.878  -5.471 +0.00 +0.00    +0.216 C  
DOCKED: ATOM     36  O3  UNL     1      16.600  -5.840  -6.192 +0.00 -0.00    -0.276 OA 
DOCKED: ATOM     37  N2  UNL     1      15.079  -4.536  -5.080 +0.00 -0.00    -0.304 N  
DOCKED: ATOM     38  H21 UNL     1      14.940  -3.850  -4.340 +0.00 +0.00    +0.149 HD 
DOCKED: BRANCH  35  39
DOCKED: ATOM     39  C15 UNL     1      17.410  -3.901  -5.013 +0.00 +0.00    +0.129 C  
DOCKED: BRANCH  39  40
DOCKED: ATOM     40  C14 UNL     1      17.056  -3.201  -3.691 +0.00 +0.00    +0.143 C  
DOCKED: BRANCH  40  41
DOCKED: ATOM     41  O2  UNL     1      16.283  -4.072  -2.875 +0.00 -0.00    -0.389 OA 
DOCKED: ATOM     42  H18 UNL     1      16.329  -3.718  -1.959 +0.00 +0.00    +0.210 HD 
DOCKED: ENDBRANCH  40  41
DOCKED: BRANCH  40  43
DOCKED: ATOM     43  C5  UNL     1      16.398  -1.808  -3.899 +0.00 +0.00    +0.102 C  
DOCKED: BRANCH  43  44
DOCKED: ATOM     44  N1  UNL     1      15.019  -1.854  -3.378 +0.00 -0.00    -0.310 N  
DOCKED: ATOM     45  C6  UNL     1      14.194  -0.747  -3.389 +0.00 +0.00    +0.218 C  
DOCKED: ATOM     46  O1  UNL     1      14.571   0.365  -3.743 +0.00 -0.00    -0.275 OA 
DOCKED: ATOM     47  H11 UNL     1      14.584  -2.764  -3.302 +0.00 +0.00    +0.149 HD 
DOCKED: BRANCH  45  48
DOCKED: ATOM     48  C7  UNL     1      12.766  -1.040  -2.955 +0.00 +0.00    +0.133 C  
DOCKED: BRANCH  48  49
DOCKED: ATOM     49  C8  UNL     1      12.615  -1.176  -1.463 +0.00 -0.00    -0.003 A  
DOCKED: ATOM     50  C9  UNL     1      13.520  -0.569  -0.583 +0.00 +0.00    +0.010 A  
DOCKED: ATOM     51  C10 UNL     1      13.356  -0.707   0.797 +0.00 +0.00    +0.039 A  
DOCKED: ATOM     52  C11 UNL     1      12.290  -1.453   1.292 +0.00 +0.00    +0.126 A  
DOCKED: ATOM     53  F1  UNL     1      12.137  -1.573   2.618 +0.00 -0.00    -0.205 F  
DOCKED: ATOM     54  C12 UNL     1      11.387  -2.068   0.438 +0.00 +0.00    +0.077 A  
DOCKED: ATOM     55  C13 UNL     1      11.557  -1.924  -0.934 +0.00 +0.00    +0.130 A  
DOCKED: ATOM     56  F2  UNL     1      10.676  -2.501  -1.766 +0.00 -0.00    -0.205 F  
DOCKED: ENDBRANCH  48  49
DOCKED: ENDBRANCH  45  48
DOCKED: ENDBRANCH  43  44
DOCKED: BRANCH  43  57
DOCKED: ATOM     57  C4  UNL     1      16.329  -1.353  -5.381 +0.00 +0.00    +0.028 C  
DOCKED: BRANCH  57  59
DOCKED: ATOM     58  C1  UNL     1      14.080  -0.788  -6.531 +0.00 +0.00    +0.007 C  
DOCKED: ATOM     59  C2  UNL     1      15.165  -1.831  -6.282 +0.00 -0.00    -0.015 C  
DOCKED: ATOM     60  C3  UNL     1      15.622  -2.463  -7.598 +0.00 +0.00    +0.007 C  
DOCKED: ENDBRANCH  57  59
DOCKED: ENDBRANCH  43  57
DOCKED: ENDBRANCH  40  43
DOCKED: ENDBRANCH  39  40
DOCKED: ENDBRANCH  35  39
DOCKED: ENDBRANCH  34  37
DOCKED: BRANCH  34  61
DOCKED: ATOM     61  C36 UNL     1      13.444  -4.931  -6.887 +0.00 +0.00    +0.012 C  
DOCKED: ATOM     62  C37 UNL     1      12.395  -3.812  -6.904 +0.00 +0.00    +0.009 C  
DOCKED: ATOM     63  C38 UNL     1      12.950  -6.132  -7.695 +0.00 +0.00    +0.009 C  
DOCKED: ENDBRANCH  34  61
DOCKED: ENDBRANCH   1  34
DOCKED: TORSDOF 25
DOCKED: TER
DOCKED: ENDMDL
________________________________________________________________________________


    FINAL DOCKED STATE:
    ________________________


Run:   12 / 20
Time taken for this run:   3.410s

DOCKED: MODEL        12
DOCKED: USER    Run = 12
DOCKED: USER
DOCKED: USER    Estimated Free Energy of Binding    =  +7.46 kcal/mol  [=(1)+(2)+(3)-(4)]
DOCKED: USER
DOCKED: USER    (1) Final Intermolecular Energy     =  +0.00 kcal/mol
DOCKED: USER        vdW + Hbond + desolv Energy     =  +0.00 kcal/mol
DOCKED: USER        Electrostatic Energy            =  +0.00 kcal/mol
DOCKED: USER        Moving Ligand-Fixed Receptor    =  +0.00 kcal/mol
DOCKED: USER        Moving Ligand-Moving Receptor   =  +0.00 kcal/mol
DOCKED: USER    (2) Final Total Internal Energy     = -20.09 kcal/mol
DOCKED: USER    (3) Torsional Free Energy           =  +7.46 kcal/mol
DOCKED: USER    (4) Unbound System's Energy         = -20.09 kcal/mol
DOCKED: USER
DOCKED: USER
DOCKED: REMARK  Name = ligands/ligand_30.pdb
DOCKED: REMARK  30 active torsions:
DOCKED: REMARK  status: ('A' for Active; 'I' for Inactive)
DOCKED: REMARK    1  A    between atoms: C1_1  and  C2_2
DOCKED: REMARK    2  A    between atoms: C2_2  and  C3_3
DOCKED: REMARK    3  A    between atoms: C2_2  and  C4_4
DOCKED: REMARK    4  A    between atoms: C4_4  and  C5_5
DOCKED: REMARK    5  A    between atoms: C5_5  and  N1_6
DOCKED: REMARK    6  A    between atoms: C5_5  and  C14_18
DOCKED: REMARK    7  A    between atoms: C6_7  and  C7_9
DOCKED: REMARK    8  A    between atoms: C7_9  and  C8_10
DOCKED: REMARK    9  A    between atoms: C14_18  and  O2_19
DOCKED: REMARK   10  A    between atoms: C14_18  and  C15_20
DOCKED: REMARK   11  A    between atoms: C15_20  and  C16_21
DOCKED: REMARK   12  A    between atoms: N2_23  and  C17_24
DOCKED: REMARK   13  A    between atoms: C17_24  and  C18_25
DOCKED: REMARK   14  A    between atoms: C17_24  and  C36_53
DOCKED: REMARK   15  A    between atoms: N3_27  and  C19_28
DOCKED: REMARK   16  A    between atoms: C19_28  and  C20_29
DOCKED: REMARK   17  A    between atoms: C19_28  and  C21_30
DOCKED: REMARK   18  A    between atoms: N4_32  and  C22_33
DOCKED: REMARK   19  A    between atoms: C22_33  and  C23_34
DOCKED: REMARK   20  A    between atoms: C22_33  and  C26_39
DOCKED: REMARK   21  A    between atoms: C23_34  and  C24_35
DOCKED: REMARK   22  A    between atoms: C24_35  and  C25_36
DOCKED: REMARK   23  A    between atoms: C25_36  and  O7_38
DOCKED: REMARK   24  A    between atoms: N5_41  and  C27_42
DOCKED: REMARK   25  A    between atoms: C27_42  and  C28_43
DOCKED: REMARK   26  A    between atoms: C27_42  and  C35_50
DOCKED: REMARK   27  A    between atoms: C28_43  and  C29_44
DOCKED: REMARK   28  A    between atoms: C35_50  and  O10_52
DOCKED: REMARK   29  A    between atoms: C36_53  and  C37_54
DOCKED: REMARK   30  A    between atoms: C36_53  and  C38_55
DOCKED: REMARK                            x       y       z     vdW  Elec       q    Type
DOCKED: REMARK                         _______ _______ _______ _____ _____    ______ ____
DOCKED: USER                              x       y       z     vdW  Elec       q    Type
DOCKED: USER                           _______ _______ _______ _____ _____    ______ ____
DOCKED: ROOT
DOCKED: ATOM      1  C18 UNL     1       7.988   0.566  -1.638 +0.00 +0.00    +0.234 C  
DOCKED: ATOM      2  O4  UNL     1       8.383   0.671  -2.799 +0.00 -0.00    -0.274 OA 
DOCKED: ATOM      3  N3  UNL     1       8.655  -0.138  -0.660 +0.00 -0.00    -0.303 N  
DOCKED: ATOM      4  H23 UNL     1       8.081  -0.400   0.137 +0.00 +0.00    +0.149 HD 
DOCKED: ENDROOT
DOCKED: BRANCH   3   5
DOCKED: ATOM      5  C19 UNL     1       9.712  -1.126  -0.923 +0.00 +0.00    +0.156 C  
DOCKED: ATOM      6  C20 UNL     1      11.026  -0.568  -1.444 +0.00 +0.00    +0.038 C  
DOCKED: BRANCH   5   7
DOCKED: ATOM      7  C21 UNL     1       9.055  -2.244  -1.764 +0.00 +0.00    +0.234 C  
DOCKED: ATOM      8  O5  UNL     1       8.494  -3.196  -1.211 +0.00 -0.00    -0.274 OA 
DOCKED: ATOM      9  N4  UNL     1       9.246  -2.208  -3.127 +0.00 -0.00    -0.302 N  
DOCKED: ATOM     10  H28 UNL     1       9.332  -1.278  -3.540 +0.00 +0.00    +0.150 HD 
DOCKED: BRANCH   9  11
DOCKED: ATOM     11  C22 UNL     1       8.600  -3.214  -3.962 +0.00 +0.00    +0.159 C  
DOCKED: BRANCH  11  12
DOCKED: ATOM     12  C26 UNL     1       8.751  -4.617  -3.339 +0.00 +0.00    +0.234 C  
DOCKED: ATOM     13  O8  UNL     1       9.777  -5.285  -3.446 +0.00 -0.00    -0.274 OA 
DOCKED: ATOM     14  N5  UNL     1       7.659  -5.026  -2.602 +0.00 -0.00    -0.301 N  
DOCKED: ATOM     15  H35 UNL     1       6.996  -4.317  -2.316 +0.00 +0.00    +0.150 HD 
DOCKED: BRANCH  14  16
DOCKED: ATOM     16  C27 UNL     1       7.714  -6.231  -1.764 +0.00 +0.00    +0.186 C  
DOCKED: BRANCH  16  17
DOCKED: ATOM     17  C35 UNL     1       6.702  -6.010  -0.637 +0.00 +0.00    +0.326 C  
DOCKED: ATOM     18  O9  UNL     1       6.004  -6.881  -0.124 +0.00 -0.00    -0.249 OA 
DOCKED: BRANCH  17  19
DOCKED: ATOM     19  O10 UNL     1       6.640  -4.741  -0.197 +0.00 -0.00    -0.479 OA 
DOCKED: ATOM     20  H44 UNL     1       7.369  -4.277  -0.662 +0.00 +0.00    +0.295 HD 
DOCKED: ENDBRANCH  17  19
DOCKED: ENDBRANCH  16  17
DOCKED: BRANCH  16  21
DOCKED: ATOM     21  C28 UNL     1       7.327  -7.459  -2.596 +0.00 +0.00    +0.069 C  
DOCKED: BRANCH  21  22
DOCKED: ATOM     22  C29 UNL     1       6.198  -7.207  -3.565 +0.00 -0.00    -0.045 A  
DOCKED: ATOM     23  C30 UNL     1       4.881  -7.525  -3.208 +0.00 +0.00    +0.004 A  
DOCKED: ATOM     24  C31 UNL     1       3.832  -7.323  -4.106 +0.00 +0.00    +0.000 A  
DOCKED: ATOM     25  C32 UNL     1       4.085  -6.789  -5.366 +0.00 +0.00    +0.000 A  
DOCKED: ATOM     26  C33 UNL     1       5.392  -6.463  -5.732 +0.00 +0.00    +0.000 A  
DOCKED: ATOM     27  C34 UNL     1       6.444  -6.674  -4.838 +0.00 +0.00    +0.004 A  
DOCKED: ENDBRANCH  21  22
DOCKED: ENDBRANCH  16  21
DOCKED: ENDBRANCH  14  16
DOCKED: ENDBRANCH  11  12
DOCKED: BRANCH  11  28
DOCKED: ATOM     28  C23 UNL     1       7.123  -2.887  -4.244 +0.00 +0.00    +0.043 C  
DOCKED: BRANCH  28  29
DOCKED: ATOM     29  C24 UNL     1       6.574  -1.619  -3.588 +0.00 +0.00    +0.123 C  
DOCKED: BRANCH  29  30
DOCKED: ATOM     30  C25 UNL     1       5.662  -1.928  -2.435 +0.00 +0.00    +0.305 C  
DOCKED: ATOM     31  O6  UNL     1       4.691  -1.270  -2.094 +0.00 -0.00    -0.251 OA 
DOCKED: BRANCH  30  32
DOCKED: ATOM     32  O7  UNL     1       5.984  -3.068  -1.798 +0.00 -0.00    -0.481 OA 
DOCKED: ATOM     33  H34 UNL     1       6.677  -2.804  -1.159 +0.00 +0.00    +0.295 HD 
DOCKED: ENDBRANCH  30  32
DOCKED: ENDBRANCH  29  30
DOCKED: ENDBRANCH  28  29
DOCKED: ENDBRANCH  11  28
DOCKED: ENDBRANCH   9  11
DOCKED: ENDBRANCH   5   7
DOCKED: ENDBRANCH   3   5
DOCKED: BRANCH   1  34
DOCKED: ATOM     34  C17 UNL     1       6.687   1.270  -1.174 +0.00 +0.00    +0.161 C  
DOCKED: BRANCH  34  37
DOCKED: ATOM     35  C16 UNL     1       6.443   0.384   1.139 +0.00 +0.00    +0.216 C  
DOCKED: ATOM     36  O3  UNL     1       7.294   1.136   1.607 +0.00 -0.00    -0.276 OA 
DOCKED: ATOM     37  N2  UNL     1       6.072   0.386  -0.180 +0.00 -0.00    -0.304 N  
DOCKED: ATOM     38  H21 UNL     1       5.505  -0.373  -0.553 +0.00 +0.00    +0.149 HD 
DOCKED: BRANCH  35  39
DOCKED: ATOM     39  C15 UNL     1       5.637  -0.570   1.996 +0.00 +0.00    +0.129 C  
DOCKED: BRANCH  39  40
DOCKED: ATOM     40  C14 UNL     1       5.799  -2.040   1.578 +0.00 +0.00    +0.143 C  
DOCKED: BRANCH  40  41
DOCKED: ATOM     41  O2  UNL     1       6.560  -2.120   0.379 +0.00 -0.00    -0.389 OA 
DOCKED: ATOM     42  H18 UNL     1       6.777  -3.070   0.245 +0.00 +0.00    +0.210 HD 
DOCKED: ENDBRANCH  40  41
DOCKED: BRANCH  40  43
DOCKED: ATOM     43  C5  UNL     1       4.446  -2.802   1.500 +0.00 +0.00    +0.102 C  
DOCKED: BRANCH  43  44
DOCKED: ATOM     44  N1  UNL     1       4.434  -3.618   0.271 +0.00 -0.00    -0.310 N  
DOCKED: ATOM     45  C6  UNL     1       3.423  -4.519   0.000 +0.00 +0.00    +0.218 C  
DOCKED: ATOM     46  O1  UNL     1       2.520  -4.771   0.793 +0.00 -0.00    -0.275 OA 
DOCKED: ATOM     47  H11 UNL     1       4.994  -3.293  -0.505 +0.00 +0.00    +0.149 HD 
DOCKED: BRANCH  45  48
DOCKED: ATOM     48  C7  UNL     1       3.511  -5.143  -1.384 +0.00 +0.00    +0.133 C  
DOCKED: BRANCH  48  49
DOCKED: ATOM     49  C8  UNL     1       2.820  -4.331  -2.447 +0.00 -0.00    -0.003 A  
DOCKED: ATOM     50  C9  UNL     1       1.486  -3.926  -2.299 +0.00 +0.00    +0.010 A  
DOCKED: ATOM     51  C10 UNL     1       0.869  -3.170  -3.297 +0.00 +0.00    +0.039 A  
DOCKED: ATOM     52  C11 UNL     1       1.585  -2.824  -4.441 +0.00 +0.00    +0.126 A  
DOCKED: ATOM     53  F1  UNL     1       0.985  -2.092  -5.390 +0.00 -0.00    -0.205 F  
DOCKED: ATOM     54  C12 UNL     1       2.902  -3.222  -4.610 +0.00 +0.00    +0.077 A  
DOCKED: ATOM     55  C13 UNL     1       3.509  -3.973  -3.610 +0.00 +0.00    +0.130 A  
DOCKED: ATOM     56  F2  UNL     1       4.790  -4.346  -3.759 +0.00 -0.00    -0.205 F  
DOCKED: ENDBRANCH  48  49
DOCKED: ENDBRANCH  45  48
DOCKED: ENDBRANCH  43  44
DOCKED: BRANCH  43  57
DOCKED: ATOM     57  C4  UNL     1       3.198  -1.879   1.469 +0.00 +0.00    +0.028 C  
DOCKED: BRANCH  57  59
DOCKED: ATOM     58  C1  UNL     1       2.018  -1.211  -0.736 +0.00 +0.00    +0.007 C  
DOCKED: ATOM     59  C2  UNL     1       3.037  -0.837   0.335 +0.00 -0.00    -0.015 C  
DOCKED: ATOM     60  C3  UNL     1       2.800   0.588   0.837 +0.00 +0.00    +0.007 C  
DOCKED: ENDBRANCH  57  59
DOCKED: ENDBRANCH  43  57
DOCKED: ENDBRANCH  40  43
DOCKED: ENDBRANCH  39  40
DOCKED: ENDBRANCH  35  39
DOCKED: ENDBRANCH  34  37
DOCKED: BRANCH  34  61
DOCKED: ATOM     61  C36 UNL     1       5.676   1.582  -2.304 +0.00 +0.00    +0.012 C  
DOCKED: ATOM     62  C37 UNL     1       6.129   2.730  -3.214 +0.00 +0.00    +0.009 C  
DOCKED: ATOM     63  C38 UNL     1       4.264   1.849  -1.778 +0.00 +0.00    +0.009 C  
DOCKED: ENDBRANCH  34  61
DOCKED: ENDBRANCH   1  34
DOCKED: TORSDOF 25
DOCKED: TER
DOCKED: ENDMDL
________________________________________________________________________________


    FINAL DOCKED STATE:
    ________________________


Run:   13 / 20
Time taken for this run:   3.410s

DOCKED: MODEL        13
DOCKED: USER    Run = 13
DOCKED: USER
DOCKED: USER    Estimated Free Energy of Binding    =  +7.46 kcal/mol  [=(1)+(2)+(3)-(4)]
DOCKED: USER
DOCKED: USER    (1) Final Intermolecular Energy     =  +0.00 kcal/mol
DOCKED: USER        vdW + Hbond + desolv Energy     =  +0.00 kcal/mol
DOCKED: USER        Electrostatic Energy            =  +0.00 kcal/mol
DOCKED: USER        Moving Ligand-Fixed Receptor    =  +0.00 kcal/mol
DOCKED: USER        Moving Ligand-Moving Receptor   =  +0.00 kcal/mol
DOCKED: USER    (2) Final Total Internal Energy     = -19.34 kcal/mol
DOCKED: USER    (3) Torsional Free Energy           =  +7.46 kcal/mol
DOCKED: USER    (4) Unbound System's Energy         = -19.34 kcal/mol
DOCKED: USER
DOCKED: USER
DOCKED: REMARK  Name = ligands/ligand_30.pdb
DOCKED: REMARK  30 active torsions:
DOCKED: REMARK  status: ('A' for Active; 'I' for Inactive)
DOCKED: REMARK    1  A    between atoms: C1_1  and  C2_2
DOCKED: REMARK    2  A    between atoms: C2_2  and  C3_3
DOCKED: REMARK    3  A    between atoms: C2_2  and  C4_4
DOCKED: REMARK    4  A    between atoms: C4_4  and  C5_5
DOCKED: REMARK    5  A    between atoms: C5_5  and  N1_6
DOCKED: REMARK    6  A    between atoms: C5_5  and  C14_18
DOCKED: REMARK    7  A    between atoms: C6_7  and  C7_9
DOCKED: REMARK    8  A    between atoms: C7_9  and  C8_10
DOCKED: REMARK    9  A    between atoms: C14_18  and  O2_19
DOCKED: REMARK   10  A    between atoms: C14_18  and  C15_20
DOCKED: REMARK   11  A    between atoms: C15_20  and  C16_21
DOCKED: REMARK   12  A    between atoms: N2_23  and  C17_24
DOCKED: REMARK   13  A    between atoms: C17_24  and  C18_25
DOCKED: REMARK   14  A    between atoms: C17_24  and  C36_53
DOCKED: REMARK   15  A    between atoms: N3_27  and  C19_28
DOCKED: REMARK   16  A    between atoms: C19_28  and  C20_29
DOCKED: REMARK   17  A    between atoms: C19_28  and  C21_30
DOCKED: REMARK   18  A    between atoms: N4_32  and  C22_33
DOCKED: REMARK   19  A    between atoms: C22_33  and  C23_34
DOCKED: REMARK   20  A    between atoms: C22_33  and  C26_39
DOCKED: REMARK   21  A    between atoms: C23_34  and  C24_35
DOCKED: REMARK   22  A    between atoms: C24_35  and  C25_36
DOCKED: REMARK   23  A    between atoms: C25_36  and  O7_38
DOCKED: REMARK   24  A    between atoms: N5_41  and  C27_42
DOCKED: REMARK   25  A    between atoms: C27_42  and  C28_43
DOCKED: REMARK   26  A    between atoms: C27_42  and  C35_50
DOCKED: REMARK   27  A    between atoms: C28_43  and  C29_44
DOCKED: REMARK   28  A    between atoms: C35_50  and  O10_52
DOCKED: REMARK   29  A    between atoms: C36_53  and  C37_54
DOCKED: REMARK   30  A    between atoms: C36_53  and  C38_55
DOCKED: REMARK                            x       y       z     vdW  Elec       q    Type
DOCKED: REMARK                         _______ _______ _______ _____ _____    ______ ____
DOCKED: USER                              x       y       z     vdW  Elec       q    Type
DOCKED: USER                           _______ _______ _______ _____ _____    ______ ____
DOCKED: ROOT
DOCKED: ATOM      1  C18 UNL     1      11.062  -2.029   4.584 +0.00 +0.00    +0.234 C  
DOCKED: ATOM      2  O4  UNL     1       9.999  -1.455   4.346 +0.00 -0.00    -0.274 OA 
DOCKED: ATOM      3  N3  UNL     1      11.746  -2.791   3.663 +0.00 -0.00    -0.303 N  
DOCKED: ATOM      4  H23 UNL     1      12.414  -3.442   4.067 +0.00 +0.00    +0.149 HD 
DOCKED: ENDROOT
DOCKED: BRANCH   3   5
DOCKED: ATOM      5  C19 UNL     1      11.163  -3.308   2.416 +0.00 +0.00    +0.156 C  
DOCKED: ATOM      6  C20 UNL     1      11.050  -2.311   1.274 +0.00 +0.00    +0.038 C  
DOCKED: BRANCH   5   7
DOCKED: ATOM      7  C21 UNL     1       9.865  -4.043   2.820 +0.00 +0.00    +0.234 C  
DOCKED: ATOM      8  O5  UNL     1       9.841  -5.277   2.888 +0.00 -0.00    -0.274 OA 
DOCKED: ATOM      9  N4  UNL     1       8.723  -3.287   2.957 +0.00 -0.00    -0.302 N  
DOCKED: ATOM     10  H28 UNL     1       8.860  -2.329   3.285 +0.00 +0.00    +0.150 HD 
DOCKED: BRANCH   9  11
DOCKED: ATOM     11  C22 UNL     1       7.489  -3.934   3.389 +0.00 +0.00    +0.159 C  
DOCKED: BRANCH  11  12
DOCKED: ATOM     12  C26 UNL     1       7.590  -4.366   4.867 +0.00 +0.00    +0.234 C  
DOCKED: ATOM     13  O8  UNL     1       7.151  -5.438   5.276 +0.00 -0.00    -0.274 OA 
DOCKED: ATOM     14  N5  UNL     1       8.268  -3.472   5.669 +0.00 -0.00    -0.301 N  
DOCKED: ATOM     15  H35 UNL     1       8.846  -2.779   5.212 +0.00 +0.00    +0.150 HD 
DOCKED: BRANCH  14  16
DOCKED: ATOM     16  C27 UNL     1       8.646  -3.820   7.045 +0.00 +0.00    +0.186 C  
DOCKED: BRANCH  16  17
DOCKED: ATOM     17  C35 UNL     1       7.350  -3.800   7.860 +0.00 +0.00    +0.326 C  
DOCKED: ATOM     18  O9  UNL     1       7.028  -4.627   8.707 +0.00 -0.00    -0.249 OA 
DOCKED: BRANCH  17  19
DOCKED: ATOM     19  O10 UNL     1       6.556  -2.747   7.599 +0.00 -0.00    -0.479 OA 
DOCKED: ATOM     20  H44 UNL     1       6.947  -2.326   6.803 +0.00 +0.00    +0.295 HD 
DOCKED: ENDBRANCH  17  19
DOCKED: ENDBRANCH  16  17
DOCKED: BRANCH  16  21
DOCKED: ATOM     21  C28 UNL     1       9.274  -5.218   7.073 +0.00 +0.00    +0.069 C  
DOCKED: BRANCH  21  22
DOCKED: ATOM     22  C29 UNL     1      10.758  -5.225   6.799 +0.00 -0.00    -0.045 A  
DOCKED: ATOM     23  C30 UNL     1      11.663  -4.908   7.821 +0.00 +0.00    +0.004 A  
DOCKED: ATOM     24  C31 UNL     1      13.036  -4.885   7.572 +0.00 +0.00    +0.000 A  
DOCKED: ATOM     25  C32 UNL     1      13.522  -5.189   6.303 +0.00 +0.00    +0.000 A  
DOCKED: ATOM     26  C33 UNL     1      12.630  -5.511   5.278 +0.00 +0.00    +0.000 A  
DOCKED: ATOM     27  C34 UNL     1      11.256  -5.526   5.523 +0.00 +0.00    +0.004 A  
DOCKED: ENDBRANCH  21  22
DOCKED: ENDBRANCH  16  21
DOCKED: ENDBRANCH  14  16
DOCKED: ENDBRANCH  11  12
DOCKED: BRANCH  11  28
DOCKED: ATOM     28  C23 UNL     1       6.249  -3.057   3.149 +0.00 +0.00    +0.043 C  
DOCKED: BRANCH  28  29
DOCKED: ATOM     29  C24 UNL     1       5.524  -2.552   4.398 +0.00 +0.00    +0.123 C  
DOCKED: BRANCH  29  30
DOCKED: ATOM     30  C25 UNL     1       6.240  -1.398   5.040 +0.00 +0.00    +0.305 C  
DOCKED: ATOM     31  O6  UNL     1       5.799  -0.689   5.932 +0.00 -0.00    -0.251 OA 
DOCKED: BRANCH  30  32
DOCKED: ATOM     32  O7  UNL     1       7.485  -1.218   4.565 +0.00 -0.00    -0.481 OA 
DOCKED: ATOM     33  H34 UNL     1       8.062  -1.296   5.352 +0.00 +0.00    +0.295 HD 
DOCKED: ENDBRANCH  30  32
DOCKED: ENDBRANCH  29  30
DOCKED: ENDBRANCH  28  29
DOCKED: ENDBRANCH  11  28
DOCKED: ENDBRANCH   9  11
DOCKED: ENDBRANCH   5   7
DOCKED: ENDBRANCH   3   5
DOCKED: BRANCH   1  34
DOCKED: ATOM     34  C17 UNL     1      11.741  -1.902   5.971 +0.00 +0.00    +0.161 C  
DOCKED: BRANCH  34  37
DOCKED: ATOM     35  C16 UNL     1      10.690  -1.279   8.140 +0.00 +0.00    +0.216 C  
DOCKED: ATOM     36  O3  UNL     1      11.299  -2.136   8.777 +0.00 -0.00    -0.276 OA 
DOCKED: ATOM     37  N2  UNL     1      10.849  -1.080   6.793 +0.00 -0.00    -0.304 N  
DOCKED: ATOM     38  H21 UNL     1      10.194  -0.491   6.283 +0.00 +0.00    +0.149 HD 
DOCKED: BRANCH  35  39
DOCKED: ATOM     39  C15 UNL     1       9.762  -0.279   8.797 +0.00 +0.00    +0.129 C  
DOCKED: BRANCH  39  40
DOCKED: ATOM     40  C14 UNL     1       8.539   0.067   7.934 +0.00 +0.00    +0.143 C  
DOCKED: BRANCH  40  41
DOCKED: ATOM     41  O2  UNL     1       8.304  -0.971   6.991 +0.00 -0.00    -0.389 OA 
DOCKED: ATOM     42  H18 UNL     1       7.354  -0.920   6.742 +0.00 +0.00    +0.210 HD 
DOCKED: ENDBRANCH  40  41
DOCKED: BRANCH  40  43
DOCKED: ATOM     43  C5  UNL     1       8.632   1.477   7.286 +0.00 +0.00    +0.102 C  
DOCKED: BRANCH  43  44
DOCKED: ATOM     44  N1  UNL     1       7.695   1.536   6.148 +0.00 -0.00    -0.310 N  
DOCKED: ATOM     45  C6  UNL     1       7.474   2.702   5.441 +0.00 +0.00    +0.218 C  
DOCKED: ATOM     46  O1  UNL     1       7.964   3.781   5.760 +0.00 -0.00    -0.275 OA 
DOCKED: ATOM     47  H11 UNL     1       7.458   0.662   5.699 +0.00 +0.00    +0.149 HD 
DOCKED: BRANCH  45  48
DOCKED: ATOM     48  C7  UNL     1       6.598   2.518   4.211 +0.00 +0.00    +0.133 C  
DOCKED: BRANCH  48  49
DOCKED: ATOM     49  C8  UNL     1       7.154   1.522   3.230 +0.00 -0.00    -0.003 A  
DOCKED: ATOM     50  C9  UNL     1       8.536   1.322   3.101 +0.00 +0.00    +0.010 A  
DOCKED: ATOM     51  C10 UNL     1       9.026   0.389   2.185 +0.00 +0.00    +0.039 A  
DOCKED: ATOM     52  C11 UNL     1       8.136  -0.339   1.400 +0.00 +0.00    +0.126 A  
DOCKED: ATOM     53  F1  UNL     1       8.617  -1.238   0.530 +0.00 -0.00    -0.205 F  
DOCKED: ATOM     54  C12 UNL     1       6.766  -0.151   1.506 +0.00 +0.00    +0.077 A  
DOCKED: ATOM     55  C13 UNL     1       6.287   0.779   2.421 +0.00 +0.00    +0.130 A  
DOCKED: ATOM     56  F2  UNL     1       4.962   0.952   2.543 +0.00 -0.00    -0.205 F  
DOCKED: ENDBRANCH  48  49
DOCKED: ENDBRANCH  45  48
DOCKED: ENDBRANCH  43  44
DOCKED: BRANCH  43  57
DOCKED: ATOM     57  C4  UNL     1      10.045   1.842   6.757 +0.00 +0.00    +0.028 C  
DOCKED: BRANCH  57  59
DOCKED: ATOM     58  C1  UNL     1      12.082   2.274   8.294 +0.00 +0.00    +0.007 C  
DOCKED: ATOM     59  C2  UNL     1      10.912   2.872   7.520 +0.00 -0.00    -0.015 C  
DOCKED: ATOM     60  C3  UNL     1      11.375   4.047   6.658 +0.00 +0.00    +0.007 C  
DOCKED: ENDBRANCH  57  59
DOCKED: ENDBRANCH  43  57
DOCKED: ENDBRANCH  40  43
DOCKED: ENDBRANCH  39  40
DOCKED: ENDBRANCH  35  39
DOCKED: ENDBRANCH  34  37
DOCKED: BRANCH  34  61
DOCKED: ATOM     61  C36 UNL     1      13.161  -1.283   5.949 +0.00 +0.00    +0.012 C  
DOCKED: ATOM     62  C37 UNL     1      13.946  -1.537   7.241 +0.00 +0.00    +0.009 C  
DOCKED: ATOM     63  C38 UNL     1      13.152   0.211   5.618 +0.00 +0.00    +0.009 C  
DOCKED: ENDBRANCH  34  61
DOCKED: ENDBRANCH   1  34
DOCKED: TORSDOF 25
DOCKED: TER
DOCKED: ENDMDL
________________________________________________________________________________


    FINAL DOCKED STATE:
    ________________________


Run:   14 / 20
Time taken for this run:   3.410s

DOCKED: MODEL        14
DOCKED: USER    Run = 14
DOCKED: USER
DOCKED: USER    Estimated Free Energy of Binding    =  +7.46 kcal/mol  [=(1)+(2)+(3)-(4)]
DOCKED: USER
DOCKED: USER    (1) Final Intermolecular Energy     =  +0.00 kcal/mol
DOCKED: USER        vdW + Hbond + desolv Energy     =  +0.00 kcal/mol
DOCKED: USER        Electrostatic Energy            =  +0.00 kcal/mol
DOCKED: USER        Moving Ligand-Fixed Receptor    =  +0.00 kcal/mol
DOCKED: USER        Moving Ligand-Moving Receptor   =  +0.00 kcal/mol
DOCKED: USER    (2) Final Total Internal Energy     = -19.29 kcal/mol
DOCKED: USER    (3) Torsional Free Energy           =  +7.46 kcal/mol
DOCKED: USER    (4) Unbound System's Energy         = -19.29 kcal/mol
DOCKED: USER
DOCKED: USER
DOCKED: REMARK  Name = ligands/ligand_30.pdb
DOCKED: REMARK  30 active torsions:
DOCKED: REMARK  status: ('A' for Active; 'I' for Inactive)
DOCKED: REMARK    1  A    between atoms: C1_1  and  C2_2
DOCKED: REMARK    2  A    between atoms: C2_2  and  C3_3
DOCKED: REMARK    3  A    between atoms: C2_2  and  C4_4
DOCKED: REMARK    4  A    between atoms: C4_4  and  C5_5
DOCKED: REMARK    5  A    between atoms: C5_5  and  N1_6
DOCKED: REMARK    6  A    between atoms: C5_5  and  C14_18
DOCKED: REMARK    7  A    between atoms: C6_7  and  C7_9
DOCKED: REMARK    8  A    between atoms: C7_9  and  C8_10
DOCKED: REMARK    9  A    between atoms: C14_18  and  O2_19
DOCKED: REMARK   10  A    between atoms: C14_18  and  C15_20
DOCKED: REMARK   11  A    between atoms: C15_20  and  C16_21
DOCKED: REMARK   12  A    between atoms: N2_23  and  C17_24
DOCKED: REMARK   13  A    between atoms: C17_24  and  C18_25
DOCKED: REMARK   14  A    between atoms: C17_24  and  C36_53
DOCKED: REMARK   15  A    between atoms: N3_27  and  C19_28
DOCKED: REMARK   16  A    between atoms: C19_28  and  C20_29
DOCKED: REMARK   17  A    between atoms: C19_28  and  C21_30
DOCKED: REMARK   18  A    between atoms: N4_32  and  C22_33
DOCKED: REMARK   19  A    between atoms: C22_33  and  C23_34
DOCKED: REMARK   20  A    between atoms: C22_33  and  C26_39
DOCKED: REMARK   21  A    between atoms: C23_34  and  C24_35
DOCKED: REMARK   22  A    between atoms: C24_35  and  C25_36
DOCKED: REMARK   23  A    between atoms: C25_36  and  O7_38
DOCKED: REMARK   24  A    between atoms: N5_41  and  C27_42
DOCKED: REMARK   25  A    between atoms: C27_42  and  C28_43
DOCKED: REMARK   26  A    between atoms: C27_42  and  C35_50
DOCKED: REMARK   27  A    between atoms: C28_43  and  C29_44
DOCKED: REMARK   28  A    between atoms: C35_50  and  O10_52
DOCKED: REMARK   29  A    between atoms: C36_53  and  C37_54
DOCKED: REMARK   30  A    between atoms: C36_53  and  C38_55
DOCKED: REMARK                            x       y       z     vdW  Elec       q    Type
DOCKED: REMARK                         _______ _______ _______ _____ _____    ______ ____
DOCKED: USER                              x       y       z     vdW  Elec       q    Type
DOCKED: USER                           _______ _______ _______ _____ _____    ______ ____
DOCKED: ROOT
DOCKED: ATOM      1  C18 UNL     1       2.889  -6.285  -2.571 +0.00 +0.00    +0.234 C  
DOCKED: ATOM      2  O4  UNL     1       3.695  -5.983  -3.451 +0.00 -0.00    -0.274 OA 
DOCKED: ATOM      3  N3  UNL     1       2.350  -5.384  -1.680 +0.00 -0.00    -0.303 N  
DOCKED: ATOM      4  H23 UNL     1       1.962  -5.803  -0.839 +0.00 +0.00    +0.149 HD 
DOCKED: ENDROOT
DOCKED: BRANCH   3   5
DOCKED: ATOM      5  C19 UNL     1       2.897  -4.044  -1.422 +0.00 +0.00    +0.156 C  
DOCKED: ATOM      6  C20 UNL     1       2.930  -3.101  -2.614 +0.00 +0.00    +0.038 C  
DOCKED: BRANCH   5   7
DOCKED: ATOM      7  C21 UNL     1       4.234  -4.260  -0.677 +0.00 +0.00    +0.234 C  
DOCKED: ATOM      8  O5  UNL     1       4.296  -4.120   0.549 +0.00 -0.00    -0.274 OA 
DOCKED: ATOM      9  N4  UNL     1       5.359  -4.471  -1.441 +0.00 -0.00    -0.302 N  
DOCKED: ATOM     10  H28 UNL     1       5.212  -4.961  -2.325 +0.00 +0.00    +0.150 HD 
DOCKED: BRANCH   9  11
DOCKED: ATOM     11  C22 UNL     1       6.631  -4.732  -0.777 +0.00 +0.00    +0.159 C  
DOCKED: BRANCH  11  12
DOCKED: ATOM     12  C26 UNL     1       6.513  -5.947   0.166 +0.00 +0.00    +0.234 C  
DOCKED: ATOM     13  O8  UNL     1       6.139  -5.849   1.333 +0.00 -0.00    -0.274 OA 
DOCKED: ATOM     14  N5  UNL     1       6.802  -7.155  -0.434 +0.00 -0.00    -0.301 N  
DOCKED: ATOM     15  H35 UNL     1       6.806  -7.186  -1.445 +0.00 +0.00    +0.150 HD 
DOCKED: BRANCH  14  16
DOCKED: ATOM     16  C27 UNL     1       6.532  -8.428   0.248 +0.00 +0.00    +0.186 C  
DOCKED: BRANCH  16  17
DOCKED: ATOM     17  C35 UNL     1       5.259  -8.989  -0.390 +0.00 +0.00    +0.326 C  
DOCKED: ATOM     18  O9  UNL     1       4.519  -9.828   0.115 +0.00 -0.00    -0.249 OA 
DOCKED: BRANCH  17  19
DOCKED: ATOM     19  O10 UNL     1       4.966  -8.456  -1.589 +0.00 -0.00    -0.479 OA 
DOCKED: ATOM     20  H44 UNL     1       5.717  -8.707  -2.167 +0.00 +0.00    +0.295 HD 
DOCKED: ENDBRANCH  17  19
DOCKED: ENDBRANCH  16  17
DOCKED: BRANCH  16  21
DOCKED: ATOM     21  C28 UNL     1       7.706  -9.390   0.032 +0.00 +0.00    +0.069 C  
DOCKED: BRANCH  21  22
DOCKED: ATOM     22  C29 UNL     1       8.003  -9.673  -1.420 +0.00 -0.00    -0.045 A  
DOCKED: ATOM     23  C30 UNL     1       8.765  -8.767  -2.171 +0.00 +0.00    +0.004 A  
DOCKED: ATOM     24  C31 UNL     1       9.023  -9.005  -3.522 +0.00 +0.00    +0.000 A  
DOCKED: ATOM     25  C32 UNL     1       8.534 -10.155  -4.135 +0.00 +0.00    +0.000 A  
DOCKED: ATOM     26  C33 UNL     1       7.777 -11.066  -3.396 +0.00 +0.00    +0.000 A  
DOCKED: ATOM     27  C34 UNL     1       7.511 -10.826  -2.047 +0.00 +0.00    +0.004 A  
DOCKED: ENDBRANCH  21  22
DOCKED: ENDBRANCH  16  21
DOCKED: ENDBRANCH  14  16
DOCKED: ENDBRANCH  11  12
DOCKED: BRANCH  11  28
DOCKED: ATOM     28  C23 UNL     1       7.790  -4.911  -1.772 +0.00 +0.00    +0.043 C  
DOCKED: BRANCH  28  29
DOCKED: ATOM     29  C24 UNL     1       7.425  -4.849  -3.255 +0.00 +0.00    +0.123 C  
DOCKED: BRANCH  29  30
DOCKED: ATOM     30  C25 UNL     1       6.829  -6.138  -3.746 +0.00 +0.00    +0.305 C  
DOCKED: ATOM     31  O6  UNL     1       7.092  -6.692  -4.803 +0.00 -0.00    -0.251 OA 
DOCKED: BRANCH  30  32
DOCKED: ATOM     32  O7  UNL     1       5.972  -6.691  -2.870 +0.00 -0.00    -0.481 OA 
DOCKED: ATOM     33  H34 UNL     1       5.419  -7.290  -3.412 +0.00 +0.00    +0.295 HD 
DOCKED: ENDBRANCH  30  32
DOCKED: ENDBRANCH  29  30
DOCKED: ENDBRANCH  28  29
DOCKED: ENDBRANCH  11  28
DOCKED: ENDBRANCH   9  11
DOCKED: ENDBRANCH   5   7
DOCKED: ENDBRANCH   3   5
DOCKED: BRANCH   1  34
DOCKED: ATOM     34  C17 UNL     1       2.384  -7.743  -2.423 +0.00 +0.00    +0.161 C  
DOCKED: BRANCH  34  37
DOCKED: ATOM     35  C16 UNL     1       3.051  -9.912  -3.446 +0.00 +0.00    +0.216 C  
DOCKED: ATOM     36  O3  UNL     1       2.131 -10.537  -2.923 +0.00 -0.00    -0.276 OA 
DOCKED: ATOM     37  N2  UNL     1       3.243  -8.566  -3.278 +0.00 -0.00    -0.304 N  
DOCKED: ATOM     38  H21 UNL     1       4.116  -8.134  -3.576 +0.00 +0.00    +0.149 HD 
DOCKED: BRANCH  35  39
DOCKED: ATOM     39  C15 UNL     1       4.022 -10.551  -4.416 +0.00 +0.00    +0.129 C  
DOCKED: BRANCH  39  40
DOCKED: ATOM     40  C14 UNL     1       5.041  -9.554  -4.992 +0.00 +0.00    +0.143 C  
DOCKED: BRANCH  40  41
DOCKED: ATOM     41  O2  UNL     1       5.668  -8.839  -3.935 +0.00 -0.00    -0.389 OA 
DOCKED: ATOM     42  H18 UNL     1       6.324  -8.236  -4.351 +0.00 +0.00    +0.210 HD 
DOCKED: ENDBRANCH  40  41
DOCKED: BRANCH  40  43
DOCKED: ATOM     43  C5  UNL     1       4.435  -8.630  -6.086 +0.00 +0.00    +0.102 C  
DOCKED: BRANCH  43  44
DOCKED: ATOM     44  N1  UNL     1       4.793  -7.233  -5.775 +0.00 -0.00    -0.310 N  
DOCKED: ATOM     45  C6  UNL     1       4.557  -6.201  -6.662 +0.00 +0.00    +0.218 C  
DOCKED: ATOM     46  O1  UNL     1       4.122  -6.380  -7.796 +0.00 -0.00    -0.275 OA 
DOCKED: ATOM     47  H11 UNL     1       4.923  -6.995  -4.801 +0.00 +0.00    +0.149 HD 
DOCKED: BRANCH  45  48
DOCKED: ATOM     48  C7  UNL     1       4.852  -4.822  -6.093 +0.00 +0.00    +0.133 C  
DOCKED: BRANCH  48  49
DOCKED: ATOM     49  C8  UNL     1       3.616  -3.985  -5.896 +0.00 -0.00    -0.003 A  
DOCKED: ATOM     50  C9  UNL     1       2.354  -4.576  -5.748 +0.00 +0.00    +0.010 A  
DOCKED: ATOM     51  C10 UNL     1       1.224  -3.777  -5.563 +0.00 +0.00    +0.039 A  
DOCKED: ATOM     52  C11 UNL     1       1.358  -2.392  -5.529 +0.00 +0.00    +0.126 A  
DOCKED: ATOM     53  F1  UNL     1       0.268  -1.635  -5.342 +0.00 -0.00    -0.205 F  
DOCKED: ATOM     54  C12 UNL     1       2.597  -1.787  -5.680 +0.00 +0.00    +0.077 A  
DOCKED: ATOM     55  C13 UNL     1       3.716  -2.590  -5.863 +0.00 +0.00    +0.130 A  
DOCKED: ATOM     56  F2  UNL     1       4.920  -2.012  -5.991 +0.00 -0.00    -0.205 F  
DOCKED: ENDBRANCH  48  49
DOCKED: ENDBRANCH  45  48
DOCKED: ENDBRANCH  43  44
DOCKED: BRANCH  43  57
DOCKED: ATOM     57  C4  UNL     1       2.889  -8.709  -6.200 +0.00 +0.00    +0.028 C  
DOCKED: BRANCH  57  59
DOCKED: ATOM     58  C1  UNL     1       1.666  -9.936  -8.123 +0.00 +0.00    +0.007 C  
DOCKED: ATOM     59  C2  UNL     1       2.212  -8.616  -7.588 +0.00 -0.00    -0.015 C  
DOCKED: ATOM     60  C3  UNL     1       1.158  -7.512  -7.688 +0.00 +0.00    +0.007 C  
DOCKED: ENDBRANCH  57  59
DOCKED: ENDBRANCH  43  57
DOCKED: ENDBRANCH  40  43
DOCKED: ENDBRANCH  39  40
DOCKED: ENDBRANCH  35  39
DOCKED: ENDBRANCH  34  37
DOCKED: BRANCH  34  61
DOCKED: ATOM     61  C36 UNL     1       0.898  -7.961  -2.798 +0.00 +0.00    +0.012 C  
DOCKED: ATOM     62  C37 UNL     1       0.482  -7.204  -4.065 +0.00 +0.00    +0.009 C  
DOCKED: ATOM     63  C38 UNL     1      -0.058  -7.636  -1.648 +0.00 +0.00    +0.009 C  
DOCKED: ENDBRANCH  34  61
DOCKED: ENDBRANCH   1  34
DOCKED: TORSDOF 25
DOCKED: TER
DOCKED: ENDMDL
________________________________________________________________________________


    FINAL DOCKED STATE:
    ________________________


Run:   15 / 20
Time taken for this run:   3.410s

DOCKED: MODEL        15
DOCKED: USER    Run = 15
DOCKED: USER
DOCKED: USER    Estimated Free Energy of Binding    =  +7.46 kcal/mol  [=(1)+(2)+(3)-(4)]
DOCKED: USER
DOCKED: USER    (1) Final Intermolecular Energy     =  +0.00 kcal/mol
DOCKED: USER        vdW + Hbond + desolv Energy     =  +0.00 kcal/mol
DOCKED: USER        Electrostatic Energy            =  +0.00 kcal/mol
DOCKED: USER        Moving Ligand-Fixed Receptor    =  +0.00 kcal/mol
DOCKED: USER        Moving Ligand-Moving Receptor   =  +0.00 kcal/mol
DOCKED: USER    (2) Final Total Internal Energy     = -20.00 kcal/mol
DOCKED: USER    (3) Torsional Free Energy           =  +7.46 kcal/mol
DOCKED: USER    (4) Unbound System's Energy         = -20.00 kcal/mol
DOCKED: USER
DOCKED: USER
DOCKED: REMARK  Name = ligands/ligand_30.pdb
DOCKED: REMARK  30 active torsions:
DOCKED: REMARK  status: ('A' for Active; 'I' for Inactive)
DOCKED: REMARK    1  A    between atoms: C1_1  and  C2_2
DOCKED: REMARK    2  A    between atoms: C2_2  and  C3_3
DOCKED: REMARK    3  A    between atoms: C2_2  and  C4_4
DOCKED: REMARK    4  A    between atoms: C4_4  and  C5_5
DOCKED: REMARK    5  A    between atoms: C5_5  and  N1_6
DOCKED: REMARK    6  A    between atoms: C5_5  and  C14_18
DOCKED: REMARK    7  A    between atoms: C6_7  and  C7_9
DOCKED: REMARK    8  A    between atoms: C7_9  and  C8_10
DOCKED: REMARK    9  A    between atoms: C14_18  and  O2_19
DOCKED: REMARK   10  A    between atoms: C14_18  and  C15_20
DOCKED: REMARK   11  A    between atoms: C15_20  and  C16_21
DOCKED: REMARK   12  A    between atoms: N2_23  and  C17_24
DOCKED: REMARK   13  A    between atoms: C17_24  and  C18_25
DOCKED: REMARK   14  A    between atoms: C17_24  and  C36_53
DOCKED: REMARK   15  A    between atoms: N3_27  and  C19_28
DOCKED: REMARK   16  A    between atoms: C19_28  and  C20_29
DOCKED: REMARK   17  A    between atoms: C19_28  and  C21_30
DOCKED: REMARK   18  A    between atoms: N4_32  and  C22_33
DOCKED: REMARK   19  A    between atoms: C22_33  and  C23_34
DOCKED: REMARK   20  A    between atoms: C22_33  and  C26_39
DOCKED: REMARK   21  A    between atoms: C23_34  and  C24_35
DOCKED: REMARK   22  A    between atoms: C24_35  and  C25_36
DOCKED: REMARK   23  A    between atoms: C25_36  and  O7_38
DOCKED: REMARK   24  A    between atoms: N5_41  and  C27_42
DOCKED: REMARK   25  A    between atoms: C27_42  and  C28_43
DOCKED: REMARK   26  A    between atoms: C27_42  and  C35_50
DOCKED: REMARK   27  A    between atoms: C28_43  and  C29_44
DOCKED: REMARK   28  A    between atoms: C35_50  and  O10_52
DOCKED: REMARK   29  A    between atoms: C36_53  and  C37_54
DOCKED: REMARK   30  A    between atoms: C36_53  and  C38_55
DOCKED: REMARK                            x       y       z     vdW  Elec       q    Type
DOCKED: REMARK                         _______ _______ _______ _____ _____    ______ ____
DOCKED: USER                              x       y       z     vdW  Elec       q    Type
DOCKED: USER                           _______ _______ _______ _____ _____    ______ ____
DOCKED: ROOT
DOCKED: ATOM      1  C18 UNL     1       7.485  -2.987  -1.431 +0.00 +0.00    +0.234 C  
DOCKED: ATOM      2  O4  UNL     1       6.610  -2.123  -1.364 +0.00 -0.00    -0.274 OA 
DOCKED: ATOM      3  N3  UNL     1       7.361  -4.250  -0.898 +0.00 -0.00    -0.303 N  
DOCKED: ATOM      4  H23 UNL     1       8.242  -4.735  -0.751 +0.00 +0.00    +0.149 HD 
DOCKED: ENDROOT
DOCKED: BRANCH   3   5
DOCKED: ATOM      5  C19 UNL     1       6.351  -4.635   0.099 +0.00 +0.00    +0.156 C  
DOCKED: ATOM      6  C20 UNL     1       4.914  -4.674  -0.394 +0.00 +0.00    +0.038 C  
DOCKED: BRANCH   5   7
DOCKED: ATOM      7  C21 UNL     1       6.628  -3.767   1.348 +0.00 +0.00    +0.234 C  
DOCKED: ATOM      8  O5  UNL     1       7.428  -4.148   2.210 +0.00 -0.00    -0.274 OA 
DOCKED: ATOM      9  N4  UNL     1       5.852  -2.643   1.525 +0.00 -0.00    -0.302 N  
DOCKED: ATOM     10  H28 UNL     1       5.541  -2.177   0.671 +0.00 +0.00    +0.150 HD 
DOCKED: BRANCH   9  11
DOCKED: ATOM     11  C22 UNL     1       6.116  -1.769   2.662 +0.00 +0.00    +0.159 C  
DOCKED: BRANCH  11  12
DOCKED: ATOM     12  C26 UNL     1       6.358  -2.597   3.941 +0.00 +0.00    +0.234 C  
DOCKED: ATOM     13  O8  UNL     1       5.441  -3.070   4.610 +0.00 -0.00    -0.274 OA 
DOCKED: ATOM     14  N5  UNL     1       7.690  -2.812   4.229 +0.00 -0.00    -0.301 N  
DOCKED: ATOM     15  H35 UNL     1       8.360  -2.655   3.487 +0.00 +0.00    +0.150 HD 
DOCKED: BRANCH  14  16
DOCKED: ATOM     16  C27 UNL     1       8.100  -3.756   5.277 +0.00 +0.00    +0.186 C  
DOCKED: BRANCH  16  17
DOCKED: ATOM     17  C35 UNL     1       9.483  -4.269   4.869 +0.00 +0.00    +0.326 C  
DOCKED: ATOM     18  O9  UNL     1      10.382  -4.587   5.641 +0.00 -0.00    -0.249 OA 
DOCKED: BRANCH  17  19
DOCKED: ATOM     19  O10 UNL     1       9.653  -4.386   3.540 +0.00 -0.00    -0.479 OA 
DOCKED: ATOM     20  H44 UNL     1       8.747  -4.359   3.166 +0.00 +0.00    +0.295 HD 
DOCKED: ENDBRANCH  17  19
DOCKED: ENDBRANCH  16  17
DOCKED: BRANCH  16  21
DOCKED: ATOM     21  C28 UNL     1       8.175  -3.031   6.626 +0.00 +0.00    +0.069 C  
DOCKED: BRANCH  21  22
DOCKED: ATOM     22  C29 UNL     1       8.868  -1.692   6.560 +0.00 -0.00    -0.045 A  
DOCKED: ATOM     23  C30 UNL     1       8.161  -0.554   6.150 +0.00 +0.00    +0.004 A  
DOCKED: ATOM     24  C31 UNL     1       8.798   0.684   6.058 +0.00 +0.00    +0.000 A  
DOCKED: ATOM     25  C32 UNL     1      10.145   0.803   6.388 +0.00 +0.00    +0.000 A  
DOCKED: ATOM     26  C33 UNL     1      10.859  -0.323   6.803 +0.00 +0.00    +0.000 A  
DOCKED: ATOM     27  C34 UNL     1      10.225  -1.564   6.886 +0.00 +0.00    +0.004 A  
DOCKED: ENDBRANCH  21  22
DOCKED: ENDBRANCH  16  21
DOCKED: ENDBRANCH  14  16
DOCKED: ENDBRANCH  11  12
DOCKED: BRANCH  11  28
DOCKED: ATOM     28  C23 UNL     1       7.280  -0.797   2.401 +0.00 +0.00    +0.043 C  
DOCKED: BRANCH  28  29
DOCKED: ATOM     29  C24 UNL     1       7.986  -0.934   1.051 +0.00 +0.00    +0.123 C  
DOCKED: BRANCH  29  30
DOCKED: ATOM     30  C25 UNL     1       9.315  -1.624   1.175 +0.00 +0.00    +0.305 C  
DOCKED: ATOM     31  O6  UNL     1      10.300  -1.410   0.485 +0.00 -0.00    -0.251 OA 
DOCKED: BRANCH  30  32
DOCKED: ATOM     32  O7  UNL     1       9.356  -2.512   2.184 +0.00 -0.00    -0.481 OA 
DOCKED: ATOM     33  H34 UNL     1       8.975  -3.331   1.806 +0.00 +0.00    +0.295 HD 
DOCKED: ENDBRANCH  30  32
DOCKED: ENDBRANCH  29  30
DOCKED: ENDBRANCH  28  29
DOCKED: ENDBRANCH  11  28
DOCKED: ENDBRANCH   9  11
DOCKED: ENDBRANCH   5   7
DOCKED: ENDBRANCH   3   5
DOCKED: BRANCH   1  34
DOCKED: ATOM     34  C17 UNL     1       8.818  -2.711  -2.174 +0.00 +0.00    +0.161 C  
DOCKED: BRANCH  34  37
DOCKED: ATOM     35  C16 UNL     1      10.095  -4.793  -1.694 +0.00 +0.00    +0.216 C  
DOCKED: ATOM     36  O3  UNL     1       9.495  -5.455  -2.538 +0.00 -0.00    -0.276 OA 
DOCKED: ATOM     37  N2  UNL     1       9.851  -3.465  -1.460 +0.00 -0.00    -0.304 N  
DOCKED: ATOM     38  H21 UNL     1      10.238  -3.013  -0.633 +0.00 +0.00    +0.149 HD 
DOCKED: BRANCH  35  39
DOCKED: ATOM     39  C15 UNL     1      11.244  -5.354  -0.883 +0.00 +0.00    +0.129 C  
DOCKED: BRANCH  39  40
DOCKED: ATOM     40  C14 UNL     1      11.013  -5.260   0.634 +0.00 +0.00    +0.143 C  
DOCKED: BRANCH  40  41
DOCKED: ATOM     41  O2  UNL     1       9.781  -4.599   0.895 +0.00 -0.00    -0.389 OA 
DOCKED: ATOM     42  H18 UNL     1       9.633  -4.648   1.866 +0.00 +0.00    +0.210 HD 
DOCKED: ENDBRANCH  40  41
DOCKED: BRANCH  40  43
DOCKED: ATOM     43  C5  UNL     1      12.218  -4.638   1.394 +0.00 +0.00    +0.102 C  
DOCKED: BRANCH  43  44
DOCKED: ATOM     44  N1  UNL     1      11.710  -3.617   2.330 +0.00 -0.00    -0.310 N  
DOCKED: ATOM     45  C6  UNL     1      12.527  -3.003   3.258 +0.00 +0.00    +0.218 C  
DOCKED: ATOM     46  O1  UNL     1      13.699  -3.322   3.433 +0.00 -0.00    -0.275 OA 
DOCKED: ATOM     47  H11 UNL     1      10.847  -3.152   2.082 +0.00 +0.00    +0.149 HD 
DOCKED: BRANCH  45  48
DOCKED: ATOM     48  C7  UNL     1      11.851  -1.872   4.018 +0.00 +0.00    +0.133 C  
DOCKED: BRANCH  48  49
DOCKED: ATOM     49  C8  UNL     1      12.128  -0.514   3.431 +0.00 -0.00    -0.003 A  
DOCKED: ATOM     50  C9  UNL     1      13.436  -0.098   3.146 +0.00 +0.00    +0.010 A  
DOCKED: ATOM     51  C10 UNL     1      13.666   1.165   2.598 +0.00 +0.00    +0.039 A  
DOCKED: ATOM     52  C11 UNL     1      12.590   2.010   2.339 +0.00 +0.00    +0.126 A  
DOCKED: ATOM     53  F1  UNL     1      12.821   3.218   1.806 +0.00 -0.00    -0.205 F  
DOCKED: ATOM     54  C12 UNL     1      11.289   1.621   2.621 +0.00 +0.00    +0.077 A  
DOCKED: ATOM     55  C13 UNL     1      11.069   0.361   3.165 +0.00 +0.00    +0.130 A  
DOCKED: ATOM     56  F2  UNL     1       9.812  -0.029   3.423 +0.00 -0.00    -0.205 F  
DOCKED: ENDBRANCH  48  49
DOCKED: ENDBRANCH  45  48
DOCKED: ENDBRANCH  43  44
DOCKED: BRANCH  43  57
DOCKED: ATOM     57  C4  UNL     1      13.267  -3.958   0.474 +0.00 +0.00    +0.028 C  
DOCKED: BRANCH  57  59
DOCKED: ATOM     58  C1  UNL     1      13.316  -1.386   0.186 +0.00 +0.00    +0.007 C  
DOCKED: ATOM     59  C2  UNL     1      12.865  -2.730  -0.378 +0.00 -0.00    -0.015 C  
DOCKED: ATOM     60  C3  UNL     1      13.243  -2.853  -1.854 +0.00 +0.00    +0.007 C  
DOCKED: ENDBRANCH  57  59
DOCKED: ENDBRANCH  43  57
DOCKED: ENDBRANCH  40  43
DOCKED: ENDBRANCH  39  40
DOCKED: ENDBRANCH  35  39
DOCKED: ENDBRANCH  34  37
DOCKED: BRANCH  34  61
DOCKED: ATOM     61  C36 UNL     1       9.219  -1.219  -2.265 +0.00 +0.00    +0.012 C  
DOCKED: ATOM     62  C37 UNL     1       8.299  -0.406  -3.183 +0.00 +0.00    +0.009 C  
DOCKED: ATOM     63  C38 UNL     1      10.681  -1.021  -2.669 +0.00 +0.00    +0.009 C  
DOCKED: ENDBRANCH  34  61
DOCKED: ENDBRANCH   1  34
DOCKED: TORSDOF 25
DOCKED: TER
DOCKED: ENDMDL
________________________________________________________________________________


    FINAL DOCKED STATE:
    ________________________


Run:   16 / 20
Time taken for this run:   3.410s

DOCKED: MODEL        16
DOCKED: USER    Run = 16
DOCKED: USER
DOCKED: USER    Estimated Free Energy of Binding    =  +7.46 kcal/mol  [=(1)+(2)+(3)-(4)]
DOCKED: USER
DOCKED: USER    (1) Final Intermolecular Energy     =  +0.00 kcal/mol
DOCKED: USER        vdW + Hbond + desolv Energy     =  +0.00 kcal/mol
DOCKED: USER        Electrostatic Energy            =  +0.00 kcal/mol
DOCKED: USER        Moving Ligand-Fixed Receptor    =  +0.00 kcal/mol
DOCKED: USER        Moving Ligand-Moving Receptor   =  +0.00 kcal/mol
DOCKED: USER    (2) Final Total Internal Energy     = -19.34 kcal/mol
DOCKED: USER    (3) Torsional Free Energy           =  +7.46 kcal/mol
DOCKED: USER    (4) Unbound System's Energy         = -19.34 kcal/mol
DOCKED: USER
DOCKED: USER
DOCKED: REMARK  Name = ligands/ligand_30.pdb
DOCKED: REMARK  30 active torsions:
DOCKED: REMARK  status: ('A' for Active; 'I' for Inactive)
DOCKED: REMARK    1  A    between atoms: C1_1  and  C2_2
DOCKED: REMARK    2  A    between atoms: C2_2  and  C3_3
DOCKED: REMARK    3  A    between atoms: C2_2  and  C4_4
DOCKED: REMARK    4  A    between atoms: C4_4  and  C5_5
DOCKED: REMARK    5  A    between atoms: C5_5  and  N1_6
DOCKED: REMARK    6  A    between atoms: C5_5  and  C14_18
DOCKED: REMARK    7  A    between atoms: C6_7  and  C7_9
DOCKED: REMARK    8  A    between atoms: C7_9  and  C8_10
DOCKED: REMARK    9  A    between atoms: C14_18  and  O2_19
DOCKED: REMARK   10  A    between atoms: C14_18  and  C15_20
DOCKED: REMARK   11  A    between atoms: C15_20  and  C16_21
DOCKED: REMARK   12  A    between atoms: N2_23  and  C17_24
DOCKED: REMARK   13  A    between atoms: C17_24  and  C18_25
DOCKED: REMARK   14  A    between atoms: C17_24  and  C36_53
DOCKED: REMARK   15  A    between atoms: N3_27  and  C19_28
DOCKED: REMARK   16  A    between atoms: C19_28  and  C20_29
DOCKED: REMARK   17  A    between atoms: C19_28  and  C21_30
DOCKED: REMARK   18  A    between atoms: N4_32  and  C22_33
DOCKED: REMARK   19  A    between atoms: C22_33  and  C23_34
DOCKED: REMARK   20  A    between atoms: C22_33  and  C26_39
DOCKED: REMARK   21  A    between atoms: C23_34  and  C24_35
DOCKED: REMARK   22  A    between atoms: C24_35  and  C25_36
DOCKED: REMARK   23  A    between atoms: C25_36  and  O7_38
DOCKED: REMARK   24  A    between atoms: N5_41  and  C27_42
DOCKED: REMARK   25  A    between atoms: C27_42  and  C28_43
DOCKED: REMARK   26  A    between atoms: C27_42  and  C35_50
DOCKED: REMARK   27  A    between atoms: C28_43  and  C29_44
DOCKED: REMARK   28  A    between atoms: C35_50  and  O10_52
DOCKED: REMARK   29  A    between atoms: C36_53  and  C37_54
DOCKED: REMARK   30  A    between atoms: C36_53  and  C38_55
DOCKED: REMARK                            x       y       z     vdW  Elec       q    Type
DOCKED: REMARK                         _______ _______ _______ _____ _____    ______ ____
DOCKED: USER                              x       y       z     vdW  Elec       q    Type
DOCKED: USER                           _______ _______ _______ _____ _____    ______ ____
DOCKED: ROOT
DOCKED: ATOM      1  C18 UNL     1       8.843  -4.741  -3.224 +0.00 +0.00    +0.234 C  
DOCKED: ATOM      2  O4  UNL     1       7.736  -4.302  -2.912 +0.00 -0.00    -0.274 OA 
DOCKED: ATOM      3  N3  UNL     1       9.059  -5.611  -4.270 +0.00 -0.00    -0.303 N  
DOCKED: ATOM      4  H23 UNL     1       9.936  -6.122  -4.219 +0.00 +0.00    +0.149 HD 
DOCKED: ENDROOT
DOCKED: BRANCH   3   5
DOCKED: ATOM      5  C19 UNL     1       8.004  -6.396  -4.927 +0.00 +0.00    +0.156 C  
DOCKED: ATOM      6  C20 UNL     1       7.141  -5.642  -5.926 +0.00 +0.00    +0.038 C  
DOCKED: BRANCH   5   7
DOCKED: ATOM      7  C21 UNL     1       7.259  -7.145  -3.799 +0.00 +0.00    +0.234 C  
DOCKED: ATOM      8  O5  UNL     1       7.490  -8.339  -3.581 +0.00 -0.00    -0.274 OA 
DOCKED: ATOM      9  N4  UNL     1       6.243  -6.474  -3.156 +0.00 -0.00    -0.302 N  
DOCKED: ATOM     10  H28 UNL     1       6.359  -5.463  -3.072 +0.00 +0.00    +0.150 HD 
DOCKED: BRANCH   9  11
DOCKED: ATOM     11  C22 UNL     1       5.549  -7.125  -2.050 +0.00 +0.00    +0.159 C  
DOCKED: BRANCH  11  12
DOCKED: ATOM     12  C26 UNL     1       6.485  -7.271  -0.832 +0.00 +0.00    +0.234 C  
DOCKED: ATOM     13  O8  UNL     1       6.509  -8.279  -0.129 +0.00 -0.00    -0.274 OA 
DOCKED: ATOM     14  N5  UNL     1       7.332  -6.199  -0.641 +0.00 -0.00    -0.301 N  
DOCKED: ATOM     15  H35 UNL     1       7.460  -5.561  -1.417 +0.00 +0.00    +0.150 HD 
DOCKED: BRANCH  14  16
DOCKED: ATOM     16  C27 UNL     1       8.432  -6.260   0.331 +0.00 +0.00    +0.186 C  
DOCKED: BRANCH  16  17
DOCKED: ATOM     17  C35 UNL     1       7.779  -6.206   1.714 +0.00 +0.00    +0.326 C  
DOCKED: ATOM     18  O9  UNL     1       8.119  -6.869   2.690 +0.00 -0.00    -0.249 OA 
DOCKED: BRANCH  17  19
DOCKED: ATOM     19  O10 UNL     1       6.775  -5.317   1.811 +0.00 -0.00    -0.479 OA 
DOCKED: ATOM     20  H44 UNL     1       6.628  -5.000   0.894 +0.00 +0.00    +0.295 HD 
DOCKED: ENDBRANCH  17  19
DOCKED: ENDBRANCH  16  17
DOCKED: BRANCH  16  21
DOCKED: ATOM     21  C28 UNL     1       9.205  -7.572   0.156 +0.00 +0.00    +0.069 C  
DOCKED: BRANCH  21  22
DOCKED: ATOM     22  C29 UNL     1      10.330  -7.487  -0.847 +0.00 -0.00    -0.045 A  
DOCKED: ATOM     23  C30 UNL     1      11.560  -6.926  -0.477 +0.00 +0.00    +0.004 A  
DOCKED: ATOM     24  C31 UNL     1      12.599  -6.817  -1.403 +0.00 +0.00    +0.000 A  
DOCKED: ATOM     25  C32 UNL     1      12.425  -7.277  -2.705 +0.00 +0.00    +0.000 A  
DOCKED: ATOM     26  C33 UNL     1      11.206  -7.841  -3.084 +0.00 +0.00    +0.000 A  
DOCKED: ATOM     27  C34 UNL     1      10.163  -7.944  -2.161 +0.00 +0.00    +0.004 A  
DOCKED: ENDBRANCH  21  22
DOCKED: ENDBRANCH  16  21
DOCKED: ENDBRANCH  14  16
DOCKED: ENDBRANCH  11  12
DOCKED: BRANCH  11  28
DOCKED: ATOM     28  C23 UNL     1       4.245  -6.406  -1.667 +0.00 +0.00    +0.043 C  
DOCKED: BRANCH  28  29
DOCKED: ATOM     29  C24 UNL     1       4.215  -5.749  -0.286 +0.00 +0.00    +0.123 C  
DOCKED: BRANCH  29  30
DOCKED: ATOM     30  C25 UNL     1       4.962  -4.446  -0.263 +0.00 +0.00    +0.305 C  
DOCKED: ATOM     31  O6  UNL     1       4.945  -3.626   0.643 +0.00 -0.00    -0.251 OA 
DOCKED: BRANCH  30  32
DOCKED: ATOM     32  O7  UNL     1       5.727  -4.257  -1.352 +0.00 -0.00    -0.481 OA 
DOCKED: ATOM     33  H34 UNL     1       6.637  -4.166  -1.001 +0.00 +0.00    +0.295 HD 
DOCKED: ENDBRANCH  30  32
DOCKED: ENDBRANCH  29  30
DOCKED: ENDBRANCH  28  29
DOCKED: ENDBRANCH  11  28
DOCKED: ENDBRANCH   9  11
DOCKED: ENDBRANCH   5   7
DOCKED: ENDBRANCH   3   5
DOCKED: BRANCH   1  34
DOCKED: ATOM     34  C17 UNL     1      10.117  -4.303  -2.456 +0.00 +0.00    +0.161 C  
DOCKED: BRANCH  34  37
DOCKED: ATOM     35  C16 UNL     1      10.284  -3.365  -0.157 +0.00 +0.00    +0.216 C  
DOCKED: ATOM     36  O3  UNL     1      11.282  -4.022   0.129 +0.00 -0.00    -0.276 OA 
DOCKED: ATOM     37  N2  UNL     1       9.665  -3.420  -1.378 +0.00 -0.00    -0.304 N  
DOCKED: ATOM     38  H21 UNL     1       8.744  -3.004  -1.503 +0.00 +0.00    +0.149 HD 
DOCKED: BRANCH  35  39
DOCKED: ATOM     39  C15 UNL     1       9.682  -2.343   0.785 +0.00 +0.00    +0.129 C  
DOCKED: BRANCH  39  40
DOCKED: ATOM     40  C14 UNL     1       8.149  -2.277   0.704 +0.00 +0.00    +0.143 C  
DOCKED: BRANCH  40  41
DOCKED: ATOM     41  O2  UNL     1       7.639  -3.505   0.199 +0.00 -0.00    -0.389 OA 
DOCKED: ATOM     42  H18 UNL     1       6.708  -3.574   0.509 +0.00 +0.00    +0.210 HD 
DOCKED: ENDBRANCH  40  41
DOCKED: BRANCH  40  43
DOCKED: ATOM     43  C5  UNL     1       7.635  -1.032  -0.072 +0.00 +0.00    +0.102 C  
DOCKED: BRANCH  43  44
DOCKED: ATOM     44  N1  UNL     1       6.242  -1.279  -0.491 +0.00 -0.00    -0.310 N  
DOCKED: ATOM     45  C6  UNL     1       5.486  -0.313  -1.126 +0.00 +0.00    +0.218 C  
DOCKED: ATOM     46  O1  UNL     1       5.880   0.835  -1.305 +0.00 -0.00    -0.275 OA 
DOCKED: ATOM     47  H11 UNL     1       5.953  -2.242  -0.589 +0.00 +0.00    +0.149 HD 
DOCKED: BRANCH  45  48
DOCKED: ATOM     48  C7  UNL     1       4.135  -0.813  -1.614 +0.00 +0.00    +0.133 C  
DOCKED: BRANCH  48  49
DOCKED: ATOM     49  C8  UNL     1       4.244  -1.906  -2.644 +0.00 -0.00    -0.003 A  
DOCKED: ATOM     50  C9  UNL     1       5.365  -2.009  -3.479 +0.00 +0.00    +0.010 A  
DOCKED: ATOM     51  C10 UNL     1       5.443  -3.034  -4.424 +0.00 +0.00    +0.039 A  
DOCKED: ATOM     52  C11 UNL     1       4.401  -3.951  -4.533 +0.00 +0.00    +0.126 A  
DOCKED: ATOM     53  F1  UNL     1       4.489  -4.936  -5.437 +0.00 -0.00    -0.205 F  
DOCKED: ATOM     54  C12 UNL     1       3.280  -3.862  -3.721 +0.00 +0.00    +0.077 A  
DOCKED: ATOM     55  C13 UNL     1       3.211  -2.840  -2.783 +0.00 +0.00    +0.130 A  
DOCKED: ATOM     56  F2  UNL     1       2.138  -2.759  -1.981 +0.00 -0.00    -0.205 F  
DOCKED: ENDBRANCH  48  49
DOCKED: ENDBRANCH  45  48
DOCKED: ENDBRANCH  43  44
DOCKED: BRANCH  43  57
DOCKED: ATOM     57  C4  UNL     1       8.458  -0.691  -1.343 +0.00 +0.00    +0.028 C  
DOCKED: BRANCH  57  59
DOCKED: ATOM     58  C1  UNL     1      10.823   0.352  -1.198 +0.00 +0.00    +0.007 C  
DOCKED: ATOM     59  C2  UNL     1       9.327   0.590  -1.378 +0.00 -0.00    -0.015 C  
DOCKED: ATOM     60  C3  UNL     1       9.062   1.482  -2.591 +0.00 +0.00    +0.007 C  
DOCKED: ENDBRANCH  57  59
DOCKED: ENDBRANCH  43  57
DOCKED: ENDBRANCH  40  43
DOCKED: ENDBRANCH  39  40
DOCKED: ENDBRANCH  35  39
DOCKED: ENDBRANCH  34  37
DOCKED: BRANCH  34  61
DOCKED: ATOM     61  C36 UNL     1      11.184  -3.584  -3.317 +0.00 +0.00    +0.012 C  
DOCKED: ATOM     62  C37 UNL     1      12.573  -3.577  -2.668 +0.00 +0.00    +0.009 C  
DOCKED: ATOM     63  C38 UNL     1      10.773  -2.163  -3.707 +0.00 +0.00    +0.009 C  
DOCKED: ENDBRANCH  34  61
DOCKED: ENDBRANCH   1  34
DOCKED: TORSDOF 25
DOCKED: TER
DOCKED: ENDMDL
________________________________________________________________________________


    FINAL DOCKED STATE:
    ________________________


Run:   17 / 20
Time taken for this run:   3.410s

DOCKED: MODEL        17
DOCKED: USER    Run = 17
DOCKED: USER
DOCKED: USER    Estimated Free Energy of Binding    =  +7.46 kcal/mol  [=(1)+(2)+(3)-(4)]
DOCKED: USER
DOCKED: USER    (1) Final Intermolecular Energy     =  +0.00 kcal/mol
DOCKED: USER        vdW + Hbond + desolv Energy     =  +0.00 kcal/mol
DOCKED: USER        Electrostatic Energy            =  +0.00 kcal/mol
DOCKED: USER        Moving Ligand-Fixed Receptor    =  +0.00 kcal/mol
DOCKED: USER        Moving Ligand-Moving Receptor   =  +0.00 kcal/mol
DOCKED: USER    (2) Final Total Internal Energy     = -18.91 kcal/mol
DOCKED: USER    (3) Torsional Free Energy           =  +7.46 kcal/mol
DOCKED: USER    (4) Unbound System's Energy         = -18.91 kcal/mol
DOCKED: USER
DOCKED: USER
DOCKED: REMARK  Name = ligands/ligand_30.pdb
DOCKED: REMARK  30 active torsions:
DOCKED: REMARK  status: ('A' for Active; 'I' for Inactive)
DOCKED: REMARK    1  A    between atoms: C1_1  and  C2_2
DOCKED: REMARK    2  A    between atoms: C2_2  and  C3_3
DOCKED: REMARK    3  A    between atoms: C2_2  and  C4_4
DOCKED: REMARK    4  A    between atoms: C4_4  and  C5_5
DOCKED: REMARK    5  A    between atoms: C5_5  and  N1_6
DOCKED: REMARK    6  A    between atoms: C5_5  and  C14_18
DOCKED: REMARK    7  A    between atoms: C6_7  and  C7_9
DOCKED: REMARK    8  A    between atoms: C7_9  and  C8_10
DOCKED: REMARK    9  A    between atoms: C14_18  and  O2_19
DOCKED: REMARK   10  A    between atoms: C14_18  and  C15_20
DOCKED: REMARK   11  A    between atoms: C15_20  and  C16_21
DOCKED: REMARK   12  A    between atoms: N2_23  and  C17_24
DOCKED: REMARK   13  A    between atoms: C17_24  and  C18_25
DOCKED: REMARK   14  A    between atoms: C17_24  and  C36_53
DOCKED: REMARK   15  A    between atoms: N3_27  and  C19_28
DOCKED: REMARK   16  A    between atoms: C19_28  and  C20_29
DOCKED: REMARK   17  A    between atoms: C19_28  and  C21_30
DOCKED: REMARK   18  A    between atoms: N4_32  and  C22_33
DOCKED: REMARK   19  A    between atoms: C22_33  and  C23_34
DOCKED: REMARK   20  A    between atoms: C22_33  and  C26_39
DOCKED: REMARK   21  A    between atoms: C23_34  and  C24_35
DOCKED: REMARK   22  A    between atoms: C24_35  and  C25_36
DOCKED: REMARK   23  A    between atoms: C25_36  and  O7_38
DOCKED: REMARK   24  A    between atoms: N5_41  and  C27_42
DOCKED: REMARK   25  A    between atoms: C27_42  and  C28_43
DOCKED: REMARK   26  A    between atoms: C27_42  and  C35_50
DOCKED: REMARK   27  A    between atoms: C28_43  and  C29_44
DOCKED: REMARK   28  A    between atoms: C35_50  and  O10_52
DOCKED: REMARK   29  A    between atoms: C36_53  and  C37_54
DOCKED: REMARK   30  A    between atoms: C36_53  and  C38_55
DOCKED: REMARK                            x       y       z     vdW  Elec       q    Type
DOCKED: REMARK                         _______ _______ _______ _____ _____    ______ ____
DOCKED: USER                              x       y       z     vdW  Elec       q    Type
DOCKED: USER                           _______ _______ _______ _____ _____    ______ ____
DOCKED: ROOT
DOCKED: ATOM      1  C18 UNL     1      12.625  -7.208  -1.905 +0.00 +0.00    +0.234 C  
DOCKED: ATOM      2  O4  UNL     1      12.799  -7.558  -3.072 +0.00 -0.00    -0.274 OA 
DOCKED: ATOM      3  N3  UNL     1      13.501  -7.488  -0.880 +0.00 -0.00    -0.303 N  
DOCKED: ATOM      4  H23 UNL     1      13.097  -7.421   0.051 +0.00 +0.00    +0.149 HD 
DOCKED: ENDROOT
DOCKED: BRANCH   3   5
DOCKED: ATOM      5  C19 UNL     1      14.558  -8.508  -0.946 +0.00 +0.00    +0.156 C  
DOCKED: ATOM      6  C20 UNL     1      14.221  -9.759  -1.741 +0.00 +0.00    +0.038 C  
DOCKED: BRANCH   5   7
DOCKED: ATOM      7  C21 UNL     1      15.040  -8.723   0.507 +0.00 +0.00    +0.234 C  
DOCKED: ATOM      8  O5  UNL     1      14.784  -7.887   1.381 +0.00 -0.00    -0.274 OA 
DOCKED: ATOM      9  N4  UNL     1      15.872  -9.793   0.747 +0.00 -0.00    -0.302 N  
DOCKED: ATOM     10  H28 UNL     1      15.723 -10.615   0.160 +0.00 +0.00    +0.150 HD 
DOCKED: BRANCH   9  11
DOCKED: ATOM     11  C22 UNL     1      16.307 -10.061   2.114 +0.00 +0.00    +0.159 C  
DOCKED: BRANCH  11  12
DOCKED: ATOM     12  C26 UNL     1      17.425  -9.083   2.531 +0.00 +0.00    +0.234 C  
DOCKED: ATOM     13  O8  UNL     1      18.590  -9.437   2.696 +0.00 -0.00    -0.274 OA 
DOCKED: ATOM     14  N5  UNL     1      17.012  -7.772   2.641 +0.00 -0.00    -0.301 N  
DOCKED: ATOM     15  H35 UNL     1      16.134  -7.520   2.206 +0.00 +0.00    +0.150 HD 
DOCKED: BRANCH  14  16
DOCKED: ATOM     16  C27 UNL     1      17.981  -6.680   2.814 +0.00 +0.00    +0.186 C  
DOCKED: BRANCH  16  17
DOCKED: ATOM     17  C35 UNL     1      17.288  -5.414   2.305 +0.00 +0.00    +0.326 C  
DOCKED: ATOM     18  O9  UNL     1      17.747  -4.277   2.366 +0.00 -0.00    -0.249 OA 
DOCKED: BRANCH  17  19
DOCKED: ATOM     19  O10 UNL     1      16.094  -5.637   1.729 +0.00 -0.00    -0.479 OA 
DOCKED: ATOM     20  H44 UNL     1      15.567  -6.103   2.411 +0.00 +0.00    +0.295 HD 
DOCKED: ENDBRANCH  17  19
DOCKED: ENDBRANCH  16  17
DOCKED: BRANCH  16  21
DOCKED: ATOM     21  C28 UNL     1      18.338  -6.535   4.298 +0.00 +0.00    +0.069 C  
DOCKED: BRANCH  21  22
DOCKED: ATOM     22  C29 UNL     1      17.155  -6.223   5.182 +0.00 -0.00    -0.045 A  
DOCKED: ATOM     23  C30 UNL     1      16.472  -5.008   5.039 +0.00 +0.00    +0.004 A  
DOCKED: ATOM     24  C31 UNL     1      15.394  -4.697   5.869 +0.00 +0.00    +0.000 A  
DOCKED: ATOM     25  C32 UNL     1      14.978  -5.601   6.842 +0.00 +0.00    +0.000 A  
DOCKED: ATOM     26  C33 UNL     1      15.647  -6.817   6.990 +0.00 +0.00    +0.000 A  
DOCKED: ATOM     27  C34 UNL     1      16.731  -7.126   6.166 +0.00 +0.00    +0.004 A  
DOCKED: ENDBRANCH  21  22
DOCKED: ENDBRANCH  16  21
DOCKED: ENDBRANCH  14  16
DOCKED: ENDBRANCH  11  12
DOCKED: BRANCH  11  28
DOCKED: ATOM     28  C23 UNL     1      15.143 -10.038   3.119 +0.00 +0.00    +0.043 C  
DOCKED: BRANCH  28  29
DOCKED: ATOM     29  C24 UNL     1      15.273  -9.052   4.281 +0.00 +0.00    +0.123 C  
DOCKED: BRANCH  29  30
DOCKED: ATOM     30  C25 UNL     1      14.228  -7.974   4.229 +0.00 +0.00    +0.305 C  
DOCKED: ATOM     31  O6  UNL     1      13.102  -8.045   4.697 +0.00 -0.00    -0.251 OA 
DOCKED: BRANCH  30  32
DOCKED: ATOM     32  O7  UNL     1      14.661  -6.847   3.637 +0.00 -0.00    -0.481 OA 
DOCKED: ATOM     33  H34 UNL     1      14.464  -6.978   2.686 +0.00 +0.00    +0.295 HD 
DOCKED: ENDBRANCH  30  32
DOCKED: ENDBRANCH  29  30
DOCKED: ENDBRANCH  28  29
DOCKED: ENDBRANCH  11  28
DOCKED: ENDBRANCH   9  11
DOCKED: ENDBRANCH   5   7
DOCKED: ENDBRANCH   3   5
DOCKED: BRANCH   1  34
DOCKED: ATOM     34  C17 UNL     1      11.383  -6.371  -1.502 +0.00 +0.00    +0.161 C  
DOCKED: BRANCH  34  37
DOCKED: ATOM     35  C16 UNL     1      12.639  -4.428  -0.585 +0.00 +0.00    +0.216 C  
DOCKED: ATOM     36  O3  UNL     1      13.070  -4.082  -1.682 +0.00 -0.00    -0.276 OA 
DOCKED: ATOM     37  N2  UNL     1      11.810  -5.504  -0.402 +0.00 -0.00    -0.304 N  
DOCKED: ATOM     38  H21 UNL     1      11.632  -5.858   0.536 +0.00 +0.00    +0.149 HD 
DOCKED: BRANCH  35  39
DOCKED: ATOM     39  C15 UNL     1      12.904  -3.641   0.681 +0.00 +0.00    +0.129 C  
DOCKED: BRANCH  39  40
DOCKED: ATOM     40  C14 UNL     1      13.609  -4.466   1.768 +0.00 +0.00    +0.143 C  
DOCKED: BRANCH  40  41
DOCKED: ATOM     41  O2  UNL     1      13.597  -5.843   1.414 +0.00 -0.00    -0.389 OA 
DOCKED: ATOM     42  H18 UNL     1      14.514  -6.177   1.538 +0.00 +0.00    +0.210 HD 
DOCKED: ENDBRANCH  40  41
DOCKED: BRANCH  40  43
DOCKED: ATOM     43  C5  UNL     1      13.055  -4.193   3.195 +0.00 +0.00    +0.102 C  
DOCKED: BRANCH  43  44
DOCKED: ATOM     44  N1  UNL     1      12.256  -5.358   3.622 +0.00 -0.00    -0.310 N  
DOCKED: ATOM     45  C6  UNL     1      11.072  -5.703   2.999 +0.00 +0.00    +0.218 C  
DOCKED: ATOM     46  O1  UNL     1      10.558  -5.023   2.116 +0.00 -0.00    -0.275 OA 
DOCKED: ATOM     47  H11 UNL     1      12.730  -6.071   4.159 +0.00 +0.00    +0.149 HD 
DOCKED: BRANCH  45  48
DOCKED: ATOM     48  C7  UNL     1      10.485  -7.020   3.482 +0.00 +0.00    +0.133 C  
DOCKED: BRANCH  48  49
DOCKED: ATOM     49  C8  UNL     1      10.605  -8.130   2.472 +0.00 -0.00    -0.003 A  
DOCKED: ATOM     50  C9  UNL     1      11.854  -8.527   1.975 +0.00 +0.00    +0.010 A  
DOCKED: ATOM     51  C10 UNL     1      11.939  -9.561   1.041 +0.00 +0.00    +0.039 A  
DOCKED: ATOM     52  C11 UNL     1      10.777 -10.194   0.606 +0.00 +0.00    +0.126 A  
DOCKED: ATOM     53  F1  UNL     1      10.870 -11.191  -0.285 +0.00 -0.00    -0.205 F  
DOCKED: ATOM     54  C12 UNL     1       9.531  -9.810   1.080 +0.00 +0.00    +0.077 A  
DOCKED: ATOM     55  C13 UNL     1       9.456  -8.781   2.010 +0.00 +0.00    +0.130 A  
DOCKED: ATOM     56  F2  UNL     1       8.256  -8.417   2.487 +0.00 -0.00    -0.205 F  
DOCKED: ENDBRANCH  48  49
DOCKED: ENDBRANCH  45  48
DOCKED: ENDBRANCH  43  44
DOCKED: BRANCH  43  57
DOCKED: ATOM     57  C4  UNL     1      12.151  -2.936   3.295 +0.00 +0.00    +0.028 C  
DOCKED: BRANCH  57  59
DOCKED: ATOM     58  C1  UNL     1      10.045  -2.878   4.799 +0.00 +0.00    +0.007 C  
DOCKED: ATOM     59  C2  UNL     1      11.526  -2.541   4.655 +0.00 -0.00    -0.015 C  
DOCKED: ATOM     60  C3  UNL     1      12.316  -3.038   5.865 +0.00 +0.00    +0.007 C  
DOCKED: ENDBRANCH  57  59
DOCKED: ENDBRANCH  43  57
DOCKED: ENDBRANCH  40  43
DOCKED: ENDBRANCH  39  40
DOCKED: ENDBRANCH  35  39
DOCKED: ENDBRANCH  34  37
DOCKED: BRANCH  34  61
DOCKED: ATOM     61  C36 UNL     1      10.148  -7.201  -1.075 +0.00 +0.00    +0.012 C  
DOCKED: ATOM     62  C37 UNL     1       9.612  -8.100  -2.196 +0.00 +0.00    +0.009 C  
DOCKED: ATOM     63  C38 UNL     1       9.022  -6.337  -0.504 +0.00 +0.00    +0.009 C  
DOCKED: ENDBRANCH  34  61
DOCKED: ENDBRANCH   1  34
DOCKED: TORSDOF 25
DOCKED: TER
DOCKED: ENDMDL
________________________________________________________________________________


    FINAL DOCKED STATE:
    ________________________


Run:   18 / 20
Time taken for this run:   3.410s

DOCKED: MODEL        18
DOCKED: USER    Run = 18
DOCKED: USER
DOCKED: USER    Estimated Free Energy of Binding    =  +7.46 kcal/mol  [=(1)+(2)+(3)-(4)]
DOCKED: USER
DOCKED: USER    (1) Final Intermolecular Energy     =  +0.00 kcal/mol
DOCKED: USER        vdW + Hbond + desolv Energy     =  +0.00 kcal/mol
DOCKED: USER        Electrostatic Energy            =  +0.00 kcal/mol
DOCKED: USER        Moving Ligand-Fixed Receptor    =  +0.00 kcal/mol
DOCKED: USER        Moving Ligand-Moving Receptor   =  +0.00 kcal/mol
DOCKED: USER    (2) Final Total Internal Energy     = -19.28 kcal/mol
DOCKED: USER    (3) Torsional Free Energy           =  +7.46 kcal/mol
DOCKED: USER    (4) Unbound System's Energy         = -19.28 kcal/mol
DOCKED: USER
DOCKED: USER
DOCKED: REMARK  Name = ligands/ligand_30.pdb
DOCKED: REMARK  30 active torsions:
DOCKED: REMARK  status: ('A' for Active; 'I' for Inactive)
DOCKED: REMARK    1  A    between atoms: C1_1  and  C2_2
DOCKED: REMARK    2  A    between atoms: C2_2  and  C3_3
DOCKED: REMARK    3  A    between atoms: C2_2  and  C4_4
DOCKED: REMARK    4  A    between atoms: C4_4  and  C5_5
DOCKED: REMARK    5  A    between atoms: C5_5  and  N1_6
DOCKED: REMARK    6  A    between atoms: C5_5  and  C14_18
DOCKED: REMARK    7  A    between atoms: C6_7  and  C7_9
DOCKED: REMARK    8  A    between atoms: C7_9  and  C8_10
DOCKED: REMARK    9  A    between atoms: C14_18  and  O2_19
DOCKED: REMARK   10  A    between atoms: C14_18  and  C15_20
DOCKED: REMARK   11  A    between atoms: C15_20  and  C16_21
DOCKED: REMARK   12  A    between atoms: N2_23  and  C17_24
DOCKED: REMARK   13  A    between atoms: C17_24  and  C18_25
DOCKED: REMARK   14  A    between atoms: C17_24  and  C36_53
DOCKED: REMARK   15  A    between atoms: N3_27  and  C19_28
DOCKED: REMARK   16  A    between atoms: C19_28  and  C20_29
DOCKED: REMARK   17  A    between atoms: C19_28  and  C21_30
DOCKED: REMARK   18  A    between atoms: N4_32  and  C22_33
DOCKED: REMARK   19  A    between atoms: C22_33  and  C23_34
DOCKED: REMARK   20  A    between atoms: C22_33  and  C26_39
DOCKED: REMARK   21  A    between atoms: C23_34  and  C24_35
DOCKED: REMARK   22  A    between atoms: C24_35  and  C25_36
DOCKED: REMARK   23  A    between atoms: C25_36  and  O7_38
DOCKED: REMARK   24  A    between atoms: N5_41  and  C27_42
DOCKED: REMARK   25  A    between atoms: C27_42  and  C28_43
DOCKED: REMARK   26  A    between atoms: C27_42  and  C35_50
DOCKED: REMARK   27  A    between atoms: C28_43  and  C29_44
DOCKED: REMARK   28  A    between atoms: C35_50  and  O10_52
DOCKED: REMARK   29  A    between atoms: C36_53  and  C37_54
DOCKED: REMARK   30  A    between atoms: C36_53  and  C38_55
DOCKED: REMARK                            x       y       z     vdW  Elec       q    Type
DOCKED: REMARK                         _______ _______ _______ _____ _____    ______ ____
DOCKED: USER                              x       y       z     vdW  Elec       q    Type
DOCKED: USER                           _______ _______ _______ _____ _____    ______ ____
DOCKED: ROOT
DOCKED: ATOM      1  C18 UNL     1       9.933  -3.702   1.550 +0.00 +0.00    +0.234 C  
DOCKED: ATOM      2  O4  UNL     1      10.929  -2.978   1.547 +0.00 -0.00    -0.274 OA 
DOCKED: ATOM      3  N3  UNL     1       9.976  -5.068   1.724 +0.00 -0.00    -0.303 N  
DOCKED: ATOM      4  H23 UNL     1       9.149  -5.561   1.399 +0.00 +0.00    +0.149 HD 
DOCKED: ENDROOT
DOCKED: BRANCH   3   5
DOCKED: ATOM      5  C19 UNL     1      11.191  -5.884   1.585 +0.00 +0.00    +0.156 C  
DOCKED: ATOM      6  C20 UNL     1      12.241  -5.700   2.670 +0.00 +0.00    +0.038 C  
DOCKED: BRANCH   5   7
DOCKED: ATOM      7  C21 UNL     1      11.668  -5.701   0.126 +0.00 +0.00    +0.234 C  
DOCKED: ATOM      8  O5  UNL     1      11.388  -6.544  -0.734 +0.00 -0.00    -0.274 OA 
DOCKED: ATOM      9  N4  UNL     1      12.523  -4.654  -0.136 +0.00 -0.00    -0.302 N  
DOCKED: ATOM     10  H28 UNL     1      12.396  -3.821   0.441 +0.00 +0.00    +0.150 HD 
DOCKED: BRANCH   9  11
DOCKED: ATOM     11  C22 UNL     1      12.954  -4.415  -1.508 +0.00 +0.00    +0.159 C  
DOCKED: BRANCH  11  12
DOCKED: ATOM     12  C26 UNL     1      11.813  -3.787  -2.336 +0.00 +0.00    +0.234 C  
DOCKED: ATOM     13  O8  UNL     1      11.740  -3.897  -3.557 +0.00 -0.00    -0.274 OA 
DOCKED: ATOM     14  N5  UNL     1      10.855  -3.147  -1.577 +0.00 -0.00    -0.301 N  
DOCKED: ATOM     15  H35 UNL     1      10.827  -3.355  -0.587 +0.00 +0.00    +0.150 HD 
DOCKED: BRANCH  14  16
DOCKED: ATOM     16  C27 UNL     1       9.595  -2.684  -2.174 +0.00 +0.00    +0.186 C  
DOCKED: BRANCH  16  17
DOCKED: ATOM     17  C35 UNL     1       9.976  -1.596  -3.180 +0.00 +0.00    +0.326 C  
DOCKED: ATOM     18  O9  UNL     1       9.410  -1.381  -4.247 +0.00 -0.00    -0.249 OA 
DOCKED: BRANCH  17  19
DOCKED: ATOM     19  O10 UNL     1      11.008  -0.827  -2.790 +0.00 -0.00    -0.479 OA 
DOCKED: ATOM     20  H44 UNL     1      11.429  -1.322  -2.055 +0.00 +0.00    +0.295 HD 
DOCKED: ENDBRANCH  17  19
DOCKED: ENDBRANCH  16  17
DOCKED: BRANCH  16  21
DOCKED: ATOM     21  C28 UNL     1       8.900  -3.850  -2.886 +0.00 +0.00    +0.069 C  
DOCKED: BRANCH  21  22
DOCKED: ATOM     22  C29 UNL     1       8.155  -4.775  -1.954 +0.00 -0.00    -0.045 A  
DOCKED: ATOM     23  C30 UNL     1       6.984  -4.340  -1.319 +0.00 +0.00    +0.004 A  
DOCKED: ATOM     24  C31 UNL     1       6.301  -5.176  -0.435 +0.00 +0.00    +0.000 A  
DOCKED: ATOM     25  C32 UNL     1       6.774  -6.461  -0.184 +0.00 +0.00    +0.000 A  
DOCKED: ATOM     26  C33 UNL     1       7.936  -6.908  -0.814 +0.00 +0.00    +0.000 A  
DOCKED: ATOM     27  C34 UNL     1       8.625  -6.069  -1.692 +0.00 +0.00    +0.004 A  
DOCKED: ENDBRANCH  21  22
DOCKED: ENDBRANCH  16  21
DOCKED: ENDBRANCH  14  16
DOCKED: ENDBRANCH  11  12
DOCKED: BRANCH  11  28
DOCKED: ATOM     28  C23 UNL     1      14.232  -3.563  -1.585 +0.00 +0.00    +0.043 C  
DOCKED: BRANCH  28  29
DOCKED: ATOM     29  C24 UNL     1      14.351  -2.429  -0.565 +0.00 +0.00    +0.123 C  
DOCKED: BRANCH  29  30
DOCKED: ATOM     30  C25 UNL     1      13.250  -1.417  -0.711 +0.00 +0.00    +0.305 C  
DOCKED: ATOM     31  O6  UNL     1      13.285  -0.419  -1.414 +0.00 -0.00    -0.251 OA 
DOCKED: BRANCH  30  32
DOCKED: ATOM     32  O7  UNL     1      12.148  -1.731  -0.008 +0.00 -0.00    -0.481 OA 
DOCKED: ATOM     33  H34 UNL     1      11.404  -1.499  -0.601 +0.00 +0.00    +0.295 HD 
DOCKED: ENDBRANCH  30  32
DOCKED: ENDBRANCH  29  30
DOCKED: ENDBRANCH  28  29
DOCKED: ENDBRANCH  11  28
DOCKED: ENDBRANCH   9  11
DOCKED: ENDBRANCH   5   7
DOCKED: ENDBRANCH   3   5
DOCKED: BRANCH   1  34
DOCKED: ATOM     34  C17 UNL     1       8.513  -3.102   1.385 +0.00 +0.00    +0.161 C  
DOCKED: BRANCH  34  37
DOCKED: ATOM     35  C16 UNL     1       7.763  -0.948   0.390 +0.00 +0.00    +0.216 C  
DOCKED: ATOM     36  O3  UNL     1       6.682  -1.399   0.019 +0.00 -0.00    -0.276 OA 
DOCKED: ATOM     37  N2  UNL     1       8.700  -1.684   1.067 +0.00 -0.00    -0.304 N  
DOCKED: ATOM     38  H21 UNL     1       9.645  -1.324   1.186 +0.00 +0.00    +0.149 HD 
DOCKED: BRANCH  35  39
DOCKED: ATOM     39  C15 UNL     1       8.141   0.509   0.219 +0.00 +0.00    +0.129 C  
DOCKED: BRANCH  39  40
DOCKED: ATOM     40  C14 UNL     1       9.660   0.736   0.174 +0.00 +0.00    +0.143 C  
DOCKED: BRANCH  40  41
DOCKED: ATOM     41  O2  UNL     1      10.284  -0.310  -0.560 +0.00 -0.00    -0.389 OA 
DOCKED: ATOM     42  H18 UNL     1      11.181   0.010  -0.804 +0.00 +0.00    +0.210 HD 
DOCKED: ENDBRANCH  40  41
DOCKED: BRANCH  40  43
DOCKED: ATOM     43  C5  UNL     1      10.284   0.958   1.580 +0.00 +0.00    +0.102 C  
DOCKED: BRANCH  43  44
DOCKED: ATOM     44  N1  UNL     1      11.405   0.015   1.754 +0.00 -0.00    -0.310 N  
DOCKED: ATOM     45  C6  UNL     1      12.294   0.119   2.806 +0.00 +0.00    +0.218 C  
DOCKED: ATOM     46  O1  UNL     1      12.271   1.044   3.612 +0.00 -0.00    -0.275 OA 
DOCKED: ATOM     47  H11 UNL     1      11.336  -0.876   1.283 +0.00 +0.00    +0.149 HD 
DOCKED: BRANCH  45  48
DOCKED: ATOM     48  C7  UNL     1      13.279  -1.036   2.894 +0.00 +0.00    +0.133 C  
DOCKED: BRANCH  48  49
DOCKED: ATOM     49  C8  UNL     1      12.856  -2.104   3.867 +0.00 -0.00    -0.003 A  
DOCKED: ATOM     50  C9  UNL     1      11.543  -2.166   4.353 +0.00 +0.00    +0.010 A  
DOCKED: ATOM     51  C10 UNL     1      11.175  -3.168   5.252 +0.00 +0.00    +0.039 A  
DOCKED: ATOM     52  C11 UNL     1      12.120  -4.103   5.666 +0.00 +0.00    +0.126 A  
DOCKED: ATOM     53  F1  UNL     1      11.754  -5.066   6.524 +0.00 -0.00    -0.205 F  
DOCKED: ATOM     54  C12 UNL     1      13.427  -4.055   5.204 +0.00 +0.00    +0.077 A  
DOCKED: ATOM     55  C13 UNL     1      13.784  -3.055   4.307 +0.00 +0.00    +0.130 A  
DOCKED: ATOM     56  F2  UNL     1      15.041  -3.013   3.842 +0.00 -0.00    -0.205 F  
DOCKED: ENDBRANCH  48  49
DOCKED: ENDBRANCH  45  48
DOCKED: ENDBRANCH  43  44
DOCKED: BRANCH  43  57
DOCKED: ATOM     57  C4  UNL     1       9.294   0.738   2.756 +0.00 +0.00    +0.028 C  
DOCKED: BRANCH  57  59
DOCKED: ATOM     58  C1  UNL     1       8.310   2.643   4.206 +0.00 +0.00    +0.007 C  
DOCKED: ATOM     59  C2  UNL     1       9.411   1.602   4.035 +0.00 -0.00    -0.015 C  
DOCKED: ATOM     60  C3  UNL     1       9.591   0.786   5.316 +0.00 +0.00    +0.007 C  
DOCKED: ENDBRANCH  57  59
DOCKED: ENDBRANCH  43  57
DOCKED: ENDBRANCH  40  43
DOCKED: ENDBRANCH  39  40
DOCKED: ENDBRANCH  35  39
DOCKED: ENDBRANCH  34  37
DOCKED: BRANCH  34  61
DOCKED: ATOM     61  C36 UNL     1       7.594  -3.251   2.622 +0.00 +0.00    +0.012 C  
DOCKED: ATOM     62  C37 UNL     1       8.119  -2.504   3.853 +0.00 +0.00    +0.009 C  
DOCKED: ATOM     63  C38 UNL     1       7.304  -4.712   2.973 +0.00 +0.00    +0.009 C  
DOCKED: ENDBRANCH  34  61
DOCKED: ENDBRANCH   1  34
DOCKED: TORSDOF 25
DOCKED: TER
DOCKED: ENDMDL
________________________________________________________________________________


    FINAL DOCKED STATE:
    ________________________


Run:   19 / 20
Time taken for this run:   3.410s

DOCKED: MODEL        19
DOCKED: USER    Run = 19
DOCKED: USER
DOCKED: USER    Estimated Free Energy of Binding    =  +7.46 kcal/mol  [=(1)+(2)+(3)-(4)]
DOCKED: USER
DOCKED: USER    (1) Final Intermolecular Energy     =  +0.00 kcal/mol
DOCKED: USER        vdW + Hbond + desolv Energy     =  +0.00 kcal/mol
DOCKED: USER        Electrostatic Energy            =  +0.00 kcal/mol
DOCKED: USER        Moving Ligand-Fixed Receptor    =  +0.00 kcal/mol
DOCKED: USER        Moving Ligand-Moving Receptor   =  +0.00 kcal/mol
DOCKED: USER    (2) Final Total Internal Energy     = -19.34 kcal/mol
DOCKED: USER    (3) Torsional Free Energy           =  +7.46 kcal/mol
DOCKED: USER    (4) Unbound System's Energy         = -19.34 kcal/mol
DOCKED: USER
DOCKED: USER
DOCKED: REMARK  Name = ligands/ligand_30.pdb
DOCKED: REMARK  30 active torsions:
DOCKED: REMARK  status: ('A' for Active; 'I' for Inactive)
DOCKED: REMARK    1  A    between atoms: C1_1  and  C2_2
DOCKED: REMARK    2  A    between atoms: C2_2  and  C3_3
DOCKED: REMARK    3  A    between atoms: C2_2  and  C4_4
DOCKED: REMARK    4  A    between atoms: C4_4  and  C5_5
DOCKED: REMARK    5  A    between atoms: C5_5  and  N1_6
DOCKED: REMARK    6  A    between atoms: C5_5  and  C14_18
DOCKED: REMARK    7  A    between atoms: C6_7  and  C7_9
DOCKED: REMARK    8  A    between atoms: C7_9  and  C8_10
DOCKED: REMARK    9  A    between atoms: C14_18  and  O2_19
DOCKED: REMARK   10  A    between atoms: C14_18  and  C15_20
DOCKED: REMARK   11  A    between atoms: C15_20  and  C16_21
DOCKED: REMARK   12  A    between atoms: N2_23  and  C17_24
DOCKED: REMARK   13  A    between atoms: C17_24  and  C18_25
DOCKED: REMARK   14  A    between atoms: C17_24  and  C36_53
DOCKED: REMARK   15  A    between atoms: N3_27  and  C19_28
DOCKED: REMARK   16  A    between atoms: C19_28  and  C20_29
DOCKED: REMARK   17  A    between atoms: C19_28  and  C21_30
DOCKED: REMARK   18  A    between atoms: N4_32  and  C22_33
DOCKED: REMARK   19  A    between atoms: C22_33  and  C23_34
DOCKED: REMARK   20  A    between atoms: C22_33  and  C26_39
DOCKED: REMARK   21  A    between atoms: C23_34  and  C24_35
DOCKED: REMARK   22  A    between atoms: C24_35  and  C25_36
DOCKED: REMARK   23  A    between atoms: C25_36  and  O7_38
DOCKED: REMARK   24  A    between atoms: N5_41  and  C27_42
DOCKED: REMARK   25  A    between atoms: C27_42  and  C28_43
DOCKED: REMARK   26  A    between atoms: C27_42  and  C35_50
DOCKED: REMARK   27  A    between atoms: C28_43  and  C29_44
DOCKED: REMARK   28  A    between atoms: C35_50  and  O10_52
DOCKED: REMARK   29  A    between atoms: C36_53  and  C37_54
DOCKED: REMARK   30  A    between atoms: C36_53  and  C38_55
DOCKED: REMARK                            x       y       z     vdW  Elec       q    Type
DOCKED: REMARK                         _______ _______ _______ _____ _____    ______ ____
DOCKED: USER                              x       y       z     vdW  Elec       q    Type
DOCKED: USER                           _______ _______ _______ _____ _____    ______ ____
DOCKED: ROOT
DOCKED: ATOM      1  C18 UNL     1       7.454   0.035   2.353 +0.00 +0.00    +0.234 C  
DOCKED: ATOM      2  O4  UNL     1       8.610  -0.381   2.430 +0.00 -0.00    -0.274 OA 
DOCKED: ATOM      3  N3  UNL     1       6.745   0.537   3.422 +0.00 -0.00    -0.303 N  
DOCKED: ATOM      4  H23 UNL     1       5.737   0.547   3.292 +0.00 +0.00    +0.149 HD 
DOCKED: ENDROOT
DOCKED: BRANCH   3   5
DOCKED: ATOM      5  C19 UNL     1       7.114   0.336   4.831 +0.00 +0.00    +0.156 C  
DOCKED: ATOM      6  C20 UNL     1       8.219   1.235   5.361 +0.00 +0.00    +0.038 C  
DOCKED: BRANCH   5   7
DOCKED: ATOM      7  C21 UNL     1       7.318  -1.186   5.009 +0.00 +0.00    +0.234 C  
DOCKED: ATOM      8  O5  UNL     1       6.451  -1.873   5.560 +0.00 -0.00    -0.274 OA 
DOCKED: ATOM      9  N4  UNL     1       8.545  -1.707   4.664 +0.00 -0.00    -0.302 N  
DOCKED: ATOM     10  H28 UNL     1       9.026  -1.241   3.893 +0.00 +0.00    +0.150 HD 
DOCKED: BRANCH   9  11
DOCKED: ATOM     11  C22 UNL     1       8.761  -3.146   4.767 +0.00 +0.00    +0.159 C  
DOCKED: BRANCH  11  12
DOCKED: ATOM     12  C26 UNL     1       7.932  -3.898   3.705 +0.00 +0.00    +0.234 C  
DOCKED: ATOM     13  O8  UNL     1       7.351  -4.955   3.941 +0.00 -0.00    -0.274 OA 
DOCKED: ATOM     14  N5  UNL     1       7.850  -3.248   2.492 +0.00 -0.00    -0.301 N  
DOCKED: ATOM     15  H35 UNL     1       8.093  -2.265   2.470 +0.00 +0.00    +0.150 HD 
DOCKED: BRANCH  14  16
DOCKED: ATOM     16  C27 UNL     1       6.930  -3.706   1.442 +0.00 +0.00    +0.186 C  
DOCKED: BRANCH  16  17
DOCKED: ATOM     17  C35 UNL     1       7.525  -5.005   0.893 +0.00 +0.00    +0.326 C  
DOCKED: ATOM     18  O9  UNL     1       6.882  -5.965   0.479 +0.00 -0.00    -0.249 OA 
DOCKED: BRANCH  17  19
DOCKED: ATOM     19  O10 UNL     1       8.869  -5.020   0.860 +0.00 -0.00    -0.479 OA 
DOCKED: ATOM     20  H44 UNL     1       9.140  -4.128   1.168 +0.00 +0.00    +0.295 HD 
DOCKED: ENDBRANCH  17  19
DOCKED: ENDBRANCH  16  17
DOCKED: BRANCH  16  21
DOCKED: ATOM     21  C28 UNL     1       5.545  -3.966   2.045 +0.00 +0.00    +0.069 C  
DOCKED: BRANCH  21  22
DOCKED: ATOM     22  C29 UNL     1       4.661  -2.743   2.091 +0.00 -0.00    -0.045 A  
DOCKED: ATOM     23  C30 UNL     1       4.434  -2.085   3.308 +0.00 +0.00    +0.004 A  
DOCKED: ATOM     24  C31 UNL     1       3.597  -0.970   3.368 +0.00 +0.00    +0.000 A  
DOCKED: ATOM     25  C32 UNL     1       2.988  -0.492   2.212 +0.00 +0.00    +0.000 A  
DOCKED: ATOM     26  C33 UNL     1       3.209  -1.136   0.993 +0.00 +0.00    +0.000 A  
DOCKED: ATOM     27  C34 UNL     1       4.040  -2.257   0.933 +0.00 +0.00    +0.004 A  
DOCKED: ENDBRANCH  21  22
DOCKED: ENDBRANCH  16  21
DOCKED: ENDBRANCH  14  16
DOCKED: ENDBRANCH  11  12
DOCKED: BRANCH  11  28
DOCKED: ATOM     28  C23 UNL     1      10.249  -3.526   4.683 +0.00 +0.00    +0.043 C  
DOCKED: BRANCH  28  29
DOCKED: ATOM     29  C24 UNL     1      10.674  -4.329   3.453 +0.00 +0.00    +0.123 C  
DOCKED: BRANCH  29  30
DOCKED: ATOM     30  C25 UNL     1      10.810  -3.465   2.232 +0.00 +0.00    +0.305 C  
DOCKED: ATOM     31  O6  UNL     1      11.327  -3.794   1.176 +0.00 -0.00    -0.251 OA 
DOCKED: BRANCH  30  32
DOCKED: ATOM     32  O7  UNL     1      10.251  -2.250   2.380 +0.00 -0.00    -0.481 OA 
DOCKED: ATOM     33  H34 UNL     1       9.563  -2.210   1.685 +0.00 +0.00    +0.295 HD 
DOCKED: ENDBRANCH  30  32
DOCKED: ENDBRANCH  29  30
DOCKED: ENDBRANCH  28  29
DOCKED: ENDBRANCH  11  28
DOCKED: ENDBRANCH   9  11
DOCKED: ENDBRANCH   5   7
DOCKED: ENDBRANCH   3   5
DOCKED: BRANCH   1  34
DOCKED: ATOM     34  C17 UNL     1       6.705   0.053   0.996 +0.00 +0.00    +0.161 C  
DOCKED: BRANCH  34  37
DOCKED: ATOM     35  C16 UNL     1       7.141  -1.217  -1.099 +0.00 +0.00    +0.216 C  
DOCKED: ATOM     36  O3  UNL     1       5.952  -1.290  -1.402 +0.00 -0.00    -0.276 OA 
DOCKED: ATOM     37  N2  UNL     1       7.600  -0.578   0.023 +0.00 -0.00    -0.304 N  
DOCKED: ATOM     38  H21 UNL     1       8.564  -0.703   0.324 +0.00 +0.00    +0.149 HD 
DOCKED: BRANCH  35  39
DOCKED: ATOM     39  C15 UNL     1       8.244  -1.747  -1.992 +0.00 +0.00    +0.129 C  
DOCKED: BRANCH  39  40
DOCKED: ATOM     40  C14 UNL     1       9.505  -2.153  -1.214 +0.00 +0.00    +0.143 C  
DOCKED: BRANCH  40  41
DOCKED: ATOM     41  O2  UNL     1       9.148  -2.605   0.086 +0.00 -0.00    -0.389 OA 
DOCKED: ATOM     42  H18 UNL     1       9.893  -3.158   0.409 +0.00 +0.00    +0.210 HD 
DOCKED: ENDBRANCH  40  41
DOCKED: BRANCH  40  43
DOCKED: ATOM     43  C5  UNL     1      10.595  -1.044  -1.202 +0.00 +0.00    +0.102 C  
DOCKED: BRANCH  43  44
DOCKED: ATOM     44  N1  UNL     1      10.779  -0.578   0.185 +0.00 -0.00    -0.310 N  
DOCKED: ATOM     45  C6  UNL     1      11.718   0.378   0.518 +0.00 +0.00    +0.218 C  
DOCKED: ATOM     46  O1  UNL     1      12.520   0.838  -0.288 +0.00 -0.00    -0.275 OA 
DOCKED: ATOM     47  H11 UNL     1      10.015  -0.731   0.829 +0.00 +0.00    +0.149 HD 
DOCKED: BRANCH  45  48
DOCKED: ATOM     48  C7  UNL     1      11.642   0.835   1.967 +0.00 +0.00    +0.133 C  
DOCKED: BRANCH  48  49
DOCKED: ATOM     49  C8  UNL     1      12.277  -0.134   2.929 +0.00 -0.00    -0.003 A  
DOCKED: ATOM     50  C9  UNL     1      13.266  -1.033   2.507 +0.00 +0.00    +0.010 A  
DOCKED: ATOM     51  C10 UNL     1      13.841  -1.920   3.419 +0.00 +0.00    +0.039 A  
DOCKED: ATOM     52  C11 UNL     1      13.426  -1.907   4.748 +0.00 +0.00    +0.126 A  
DOCKED: ATOM     53  F1  UNL     1      13.990  -2.757   5.617 +0.00 -0.00    -0.205 F  
DOCKED: ATOM     54  C12 UNL     1      12.443  -1.031   5.184 +0.00 +0.00    +0.077 A  
DOCKED: ATOM     55  C13 UNL     1      11.877  -0.151   4.269 +0.00 +0.00    +0.130 A  
DOCKED: ATOM     56  F2  UNL     1      10.939   0.712   4.688 +0.00 -0.00    -0.205 F  
DOCKED: ENDBRANCH  48  49
DOCKED: ENDBRANCH  45  48
DOCKED: ENDBRANCH  43  44
DOCKED: BRANCH  43  57
DOCKED: ATOM     57  C4  UNL     1      10.253   0.192  -2.077 +0.00 +0.00    +0.028 C  
DOCKED: BRANCH  57  59
DOCKED: ATOM     58  C1  UNL     1      10.104   2.582  -1.095 +0.00 +0.00    +0.007 C  
DOCKED: ATOM     59  C2  UNL     1       9.357   1.317  -1.505 +0.00 -0.00    -0.015 C  
DOCKED: ATOM     60  C3  UNL     1       8.156   1.658  -2.388 +0.00 +0.00    +0.007 C  
DOCKED: ENDBRANCH  57  59
DOCKED: ENDBRANCH  43  57
DOCKED: ENDBRANCH  40  43
DOCKED: ENDBRANCH  39  40
DOCKED: ENDBRANCH  35  39
DOCKED: ENDBRANCH  34  37
DOCKED: BRANCH  34  61
DOCKED: ATOM     61  C36 UNL     1       6.288   1.459   0.499 +0.00 +0.00    +0.012 C  
DOCKED: ATOM     62  C37 UNL     1       7.257   2.563   0.940 +0.00 +0.00    +0.009 C  
DOCKED: ATOM     63  C38 UNL     1       4.855   1.825   0.890 +0.00 +0.00    +0.009 C  
DOCKED: ENDBRANCH  34  61
DOCKED: ENDBRANCH   1  34
DOCKED: TORSDOF 25
DOCKED: TER
DOCKED: ENDMDL
________________________________________________________________________________


    FINAL DOCKED STATE:
    ________________________


Run:   20 / 20
Time taken for this run:   3.410s

DOCKED: MODEL        20
DOCKED: USER    Run = 20
DOCKED: USER
DOCKED: USER    Estimated Free Energy of Binding    =  +7.46 kcal/mol  [=(1)+(2)+(3)-(4)]
DOCKED: USER
DOCKED: USER    (1) Final Intermolecular Energy     =  +0.00 kcal/mol
DOCKED: USER        vdW + Hbond + desolv Energy     =  +0.00 kcal/mol
DOCKED: USER        Electrostatic Energy            =  +0.00 kcal/mol
DOCKED: USER        Moving Ligand-Fixed Receptor    =  +0.00 kcal/mol
DOCKED: USER        Moving Ligand-Moving Receptor   =  +0.00 kcal/mol
DOCKED: USER    (2) Final Total Internal Energy     = -19.64 kcal/mol
DOCKED: USER    (3) Torsional Free Energy           =  +7.46 kcal/mol
DOCKED: USER    (4) Unbound System's Energy         = -19.64 kcal/mol
DOCKED: USER
DOCKED: USER
DOCKED: REMARK  Name = ligands/ligand_30.pdb
DOCKED: REMARK  30 active torsions:
DOCKED: REMARK  status: ('A' for Active; 'I' for Inactive)
DOCKED: REMARK    1  A    between atoms: C1_1  and  C2_2
DOCKED: REMARK    2  A    between atoms: C2_2  and  C3_3
DOCKED: REMARK    3  A    between atoms: C2_2  and  C4_4
DOCKED: REMARK    4  A    between atoms: C4_4  and  C5_5
DOCKED: REMARK    5  A    between atoms: C5_5  and  N1_6
DOCKED: REMARK    6  A    between atoms: C5_5  and  C14_18
DOCKED: REMARK    7  A    between atoms: C6_7  and  C7_9
DOCKED: REMARK    8  A    between atoms: C7_9  and  C8_10
DOCKED: REMARK    9  A    between atoms: C14_18  and  O2_19
DOCKED: REMARK   10  A    between atoms: C14_18  and  C15_20
DOCKED: REMARK   11  A    between atoms: C15_20  and  C16_21
DOCKED: REMARK   12  A    between atoms: N2_23  and  C17_24
DOCKED: REMARK   13  A    between atoms: C17_24  and  C18_25
DOCKED: REMARK   14  A    between atoms: C17_24  and  C36_53
DOCKED: REMARK   15  A    between atoms: N3_27  and  C19_28
DOCKED: REMARK   16  A    between atoms: C19_28  and  C20_29
DOCKED: REMARK   17  A    between atoms: C19_28  and  C21_30
DOCKED: REMARK   18  A    between atoms: N4_32  and  C22_33
DOCKED: REMARK   19  A    between atoms: C22_33  and  C23_34
DOCKED: REMARK   20  A    between atoms: C22_33  and  C26_39
DOCKED: REMARK   21  A    between atoms: C23_34  and  C24_35
DOCKED: REMARK   22  A    between atoms: C24_35  and  C25_36
DOCKED: REMARK   23  A    between atoms: C25_36  and  O7_38
DOCKED: REMARK   24  A    between atoms: N5_41  and  C27_42
DOCKED: REMARK   25  A    between atoms: C27_42  and  C28_43
DOCKED: REMARK   26  A    between atoms: C27_42  and  C35_50
DOCKED: REMARK   27  A    between atoms: C28_43  and  C29_44
DOCKED: REMARK   28  A    between atoms: C35_50  and  O10_52
DOCKED: REMARK   29  A    between atoms: C36_53  and  C37_54
DOCKED: REMARK   30  A    between atoms: C36_53  and  C38_55
DOCKED: REMARK                            x       y       z     vdW  Elec       q    Type
DOCKED: REMARK                         _______ _______ _______ _____ _____    ______ ____
DOCKED: USER                              x       y       z     vdW  Elec       q    Type
DOCKED: USER                           _______ _______ _______ _____ _____    ______ ____
DOCKED: ROOT
DOCKED: ATOM      1  C18 UNL     1      14.017  -8.852   4.491 +0.00 +0.00    +0.234 C  
DOCKED: ATOM      2  O4  UNL     1      12.859  -9.258   4.586 +0.00 -0.00    -0.274 OA 
DOCKED: ATOM      3  N3  UNL     1      14.762  -8.398   5.557 +0.00 -0.00    -0.303 N  
DOCKED: ATOM      4  H23 UNL     1      15.557  -7.818   5.299 +0.00 +0.00    +0.149 HD 
DOCKED: ENDROOT
DOCKED: BRANCH   3   5
DOCKED: ATOM      5  C19 UNL     1      14.199  -8.010   6.858 +0.00 +0.00    +0.156 C  
DOCKED: ATOM      6  C20 UNL     1      13.960  -9.144   7.841 +0.00 +0.00    +0.038 C  
DOCKED: BRANCH   5   7
DOCKED: ATOM      7  C21 UNL     1      12.990  -7.098   6.549 +0.00 +0.00    +0.234 C  
DOCKED: ATOM      8  O5  UNL     1      13.145  -5.880   6.402 +0.00 -0.00    -0.274 OA 
DOCKED: ATOM      9  N4  UNL     1      11.738  -7.670   6.587 +0.00 -0.00    -0.302 N  
DOCKED: ATOM     10  H28 UNL     1      11.688  -8.651   6.310 +0.00 +0.00    +0.150 HD 
DOCKED: BRANCH   9  11
DOCKED: ATOM     11  C22 UNL     1      10.575  -6.857   6.249 +0.00 +0.00    +0.159 C  
DOCKED: BRANCH  11  12
DOCKED: ATOM     12  C26 UNL     1      10.558  -6.530   4.741 +0.00 +0.00    +0.234 C  
DOCKED: ATOM     13  O8  UNL     1      10.648  -5.384   4.309 +0.00 -0.00    -0.274 OA 
DOCKED: ATOM     14  N5  UNL     1      10.498  -7.641   3.926 +0.00 -0.00    -0.301 N  
DOCKED: ATOM     15  H35 UNL     1      10.727  -8.537   4.338 +0.00 +0.00    +0.150 HD 
DOCKED: BRANCH  14  16
DOCKED: ATOM     16  C27 UNL     1      10.692  -7.532   2.474 +0.00 +0.00    +0.186 C  
DOCKED: BRANCH  16  17
DOCKED: ATOM     17  C35 UNL     1      11.333  -8.849   2.031 +0.00 +0.00    +0.326 C  
DOCKED: ATOM     18  O9  UNL     1      12.167  -8.972   1.139 +0.00 -0.00    -0.249 OA 
DOCKED: BRANCH  17  19
DOCKED: ATOM     19  O10 UNL     1      10.927  -9.920   2.736 +0.00 -0.00    -0.479 OA 
DOCKED: ATOM     20  H44 UNL     1      10.947  -9.628   3.673 +0.00 +0.00    +0.295 HD 
DOCKED: ENDBRANCH  17  19
DOCKED: ENDBRANCH  16  17
DOCKED: BRANCH  16  21
DOCKED: ATOM     21  C28 UNL     1       9.338  -7.337   1.783 +0.00 +0.00    +0.069 C  
DOCKED: BRANCH  21  22
DOCKED: ATOM     22  C29 UNL     1       8.330  -6.585   2.619 +0.00 -0.00    -0.045 A  
DOCKED: ATOM     23  C30 UNL     1       8.203  -5.196   2.485 +0.00 +0.00    +0.004 A  
DOCKED: ATOM     24  C31 UNL     1       7.294  -4.487   3.273 +0.00 +0.00    +0.000 A  
DOCKED: ATOM     25  C32 UNL     1       6.494  -5.159   4.192 +0.00 +0.00    +0.000 A  
DOCKED: ATOM     26  C33 UNL     1       6.608  -6.544   4.330 +0.00 +0.00    +0.000 A  
DOCKED: ATOM     27  C34 UNL     1       7.523  -7.253   3.550 +0.00 +0.00    +0.004 A  
DOCKED: ENDBRANCH  21  22
DOCKED: ENDBRANCH  16  21
DOCKED: ENDBRANCH  14  16
DOCKED: ENDBRANCH  11  12
DOCKED: BRANCH  11  28
DOCKED: ATOM     28  C23 UNL     1       9.253  -7.507   6.692 +0.00 +0.00    +0.043 C  
DOCKED: BRANCH  28  29
DOCKED: ATOM     29  C24 UNL     1       9.280  -9.022   6.899 +0.00 +0.00    +0.123 C  
DOCKED: BRANCH  29  30
DOCKED: ATOM     30  C25 UNL     1       9.685  -9.757   5.653 +0.00 +0.00    +0.305 C  
DOCKED: ATOM     31  O6  UNL     1       9.014  -9.869   4.638 +0.00 -0.00    -0.251 OA 
DOCKED: BRANCH  30  32
DOCKED: ATOM     32  O7  UNL     1      10.925 -10.273   5.724 +0.00 -0.00    -0.481 OA 
DOCKED: ATOM     33  H34 UNL     1      11.133 -10.538   4.805 +0.00 +0.00    +0.295 HD 
DOCKED: ENDBRANCH  30  32
DOCKED: ENDBRANCH  29  30
DOCKED: ENDBRANCH  28  29
DOCKED: ENDBRANCH  11  28
DOCKED: ENDBRANCH   9  11
DOCKED: ENDBRANCH   5   7
DOCKED: ENDBRANCH   3   5
DOCKED: BRANCH   1  34
DOCKED: ATOM     34  C17 UNL     1      14.751  -8.857   3.126 +0.00 +0.00    +0.161 C  
DOCKED: BRANCH  34  37
DOCKED: ATOM     35  C16 UNL     1      14.365  -6.402   2.978 +0.00 +0.00    +0.216 C  
DOCKED: ATOM     36  O3  UNL     1      14.811  -6.180   4.101 +0.00 -0.00    -0.276 OA 
DOCKED: ATOM     37  N2  UNL     1      14.312  -7.652   2.418 +0.00 -0.00    -0.304 N  
DOCKED: ATOM     38  H21 UNL     1      13.769  -7.809   1.571 +0.00 +0.00    +0.149 HD 
DOCKED: BRANCH  35  39
DOCKED: ATOM     39  C15 UNL     1      13.912  -5.297   2.047 +0.00 +0.00    +0.129 C  
DOCKED: BRANCH  39  40
DOCKED: ATOM     40  C14 UNL     1      13.344  -4.078   2.790 +0.00 +0.00    +0.143 C  
DOCKED: BRANCH  40  41
DOCKED: ATOM     41  O2  UNL     1      13.196  -4.380   4.172 +0.00 -0.00    -0.389 OA 
DOCKED: ATOM     42  H18 UNL     1      12.830  -5.291   4.225 +0.00 +0.00    +0.210 HD 
DOCKED: ENDBRANCH  40  41
DOCKED: BRANCH  40  43
DOCKED: ATOM     43  C5  UNL     1      12.048  -3.519   2.140 +0.00 +0.00    +0.102 C  
DOCKED: BRANCH  43  44
DOCKED: ATOM     44  N1  UNL     1      11.198  -2.944   3.200 +0.00 -0.00    -0.310 N  
DOCKED: ATOM     45  C6  UNL     1      10.109  -2.144   2.912 +0.00 +0.00    +0.218 C  
DOCKED: ATOM     46  O1  UNL     1       9.826  -1.782   1.774 +0.00 -0.00    -0.275 OA 
DOCKED: ATOM     47  H11 UNL     1      11.229  -3.386   4.108 +0.00 +0.00    +0.149 HD 
DOCKED: BRANCH  45  48
DOCKED: ATOM     48  C7  UNL     1       9.274  -1.783   4.131 +0.00 +0.00    +0.133 C  
DOCKED: BRANCH  48  49
DOCKED: ATOM     49  C8  UNL     1       9.756  -2.440   5.397 +0.00 -0.00    -0.003 A  
DOCKED: ATOM     50  C9  UNL     1       9.013  -3.453   6.018 +0.00 +0.00    +0.010 A  
DOCKED: ATOM     51  C10 UNL     1       9.484  -4.048   7.190 +0.00 +0.00    +0.039 A  
DOCKED: ATOM     52  C11 UNL     1      10.693  -3.628   7.738 +0.00 +0.00    +0.126 A  
DOCKED: ATOM     53  F1  UNL     1      11.140  -4.212   8.859 +0.00 -0.00    -0.205 F  
DOCKED: ATOM     54  C12 UNL     1      11.439  -2.622   7.143 +0.00 +0.00    +0.077 A  
DOCKED: ATOM     55  C13 UNL     1      10.964  -2.036   5.976 +0.00 +0.00    +0.130 A  
DOCKED: ATOM     56  F2  UNL     1      11.690  -1.075   5.385 +0.00 -0.00    -0.205 F  
DOCKED: ENDBRANCH  48  49
DOCKED: ENDBRANCH  45  48
DOCKED: ENDBRANCH  43  44
DOCKED: BRANCH  43  57
DOCKED: ATOM     57  C4  UNL     1      11.208  -4.582   1.383 +0.00 +0.00    +0.028 C  
DOCKED: BRANCH  57  59
DOCKED: ATOM     58  C1  UNL     1      11.862  -6.118  -0.596 +0.00 +0.00    +0.007 C  
DOCKED: ATOM     59  C2  UNL     1      11.368  -4.746  -0.148 +0.00 -0.00    -0.015 C  
DOCKED: ATOM     60  C3  UNL     1      10.134  -4.327  -0.946 +0.00 +0.00    +0.007 C  
DOCKED: ENDBRANCH  57  59
DOCKED: ENDBRANCH  43  57
DOCKED: ENDBRANCH  40  43
DOCKED: ENDBRANCH  39  40
DOCKED: ENDBRANCH  35  39
DOCKED: ENDBRANCH  34  37
DOCKED: BRANCH  34  61
DOCKED: ATOM     61  C36 UNL     1      14.496 -10.108   2.251 +0.00 +0.00    +0.012 C  
DOCKED: ATOM     62  C37 UNL     1      14.573 -11.419   3.043 +0.00 +0.00    +0.009 C  
DOCKED: ATOM     63  C38 UNL     1      15.412 -10.173   1.027 +0.00 +0.00    +0.009 C  
DOCKED: ENDBRANCH  34  61
DOCKED: ENDBRANCH   1  34
DOCKED: TORSDOF 25
DOCKED: TER
DOCKED: ENDMDL
________________________________________________________________________________


    CLUSTERING HISTOGRAM
    ____________________


________________________________________________________________________________
     |           |     |           |     |
Clus | Lowest    | Run | Mean      | Num | Histogram
-ter | Binding   |     | Binding   | in  |
Rank | Energy    |     | Energy    | Clus|    5    10   15   20   25   30   35
_____|___________|_____|___________|_____|____:____|____:____|____:____|____:___
   1 |     +7.46 |   1 |     +7.46 |   1 |#
   2 |     +7.46 |   2 |     +7.46 |   1 |#
   3 |     +7.46 |   3 |     +7.46 |   1 |#
   4 |     +7.46 |   4 |     +7.46 |   1 |#
   5 |     +7.46 |   5 |     +7.46 |   1 |#
   6 |     +7.46 |   6 |     +7.46 |   1 |#
   7 |     +7.46 |   7 |     +7.46 |   1 |#
   8 |     +7.46 |   8 |     +7.46 |   1 |#
   9 |     +7.46 |   9 |     +7.46 |   1 |#
  10 |     +7.46 |  10 |     +7.46 |   1 |#
  11 |     +7.46 |  11 |     +7.46 |   1 |#
  12 |     +7.46 |  12 |     +7.46 |   1 |#
  13 |     +7.46 |  13 |     +7.46 |   1 |#
  14 |     +7.46 |  14 |     +7.46 |   1 |#
  15 |     +7.46 |  15 |     +7.46 |   1 |#
  16 |     +7.46 |  16 |     +7.46 |   1 |#
  17 |     +7.46 |  17 |     +7.46 |   1 |#
  18 |     +7.46 |  18 |     +7.46 |   1 |#
  19 |     +7.46 |  19 |     +7.46 |   1 |#
  20 |     +7.46 |  20 |     +7.46 |   1 |#
_____|___________|_____|___________|_____|______________________________________


    RMSD TABLE
    __________


_______________________________________________________________________
     |      |      |           |         |                 |
Rank | Sub- | Run  | Binding   | Cluster | Reference       | Grep
     | Rank |      | Energy    | RMSD    | RMSD            | Pattern
_____|______|______|___________|_________|_________________|___________
   1      1      1       +7.46      0.00      6.95           RANKING
   2      1      2       +7.46      0.00     10.77           RANKING
   3      1      3       +7.46      0.00     11.46           RANKING
   4      1      4       +7.46      0.00     10.53           RANKING
   5      1      5       +7.46      0.00      6.51           RANKING
   6      1      6       +7.46      0.00      6.22           RANKING
   7      1      7       +7.46      0.00      9.19           RANKING
   8      1      8       +7.46      0.00      6.76           RANKING
   9      1      9       +7.46      0.00     13.11           RANKING
  10      1     10       +7.46      0.00      8.81           RANKING
  11      1     11       +7.46      0.00     12.70           RANKING
  12      1     12       +7.46      0.00      5.45           RANKING
  13      1     13       +7.46      0.00      7.64           RANKING
  14      1     14       +7.46      0.00      7.13           RANKING
  15      1     15       +7.46      0.00      8.53           RANKING
  16      1     16       +7.46      0.00      7.44           RANKING
  17      1     17       +7.46      0.00     13.15           RANKING
  18      1     18       +7.46      0.00      8.73           RANKING
  19      1     19       +7.46      0.00      7.14           RANKING
  20      1     20       +7.46      0.00     11.48           RANKING

Run time 68.714 sec
Idle time 0.291 sec
