REMARK  Name = ligands/ligand_2.pdb
REMARK  21 active torsions:
REMARK  status: ('A' for Active; 'I' for Inactive)
REMARK    1  A    between atoms: C1_1  and  C2_2
REMARK    2  A    between atoms: C2_2  and  C3_3
REMARK    3  A    between atoms: C2_2  and  C4_4
REMARK    4  A    between atoms: C4_4  and  N1_5
REMARK    5  A    between atoms: C4_4  and  C30_38
REMARK    6  A    between atoms: C5_6  and  C6_8
REMARK    7  A    between atoms: C6_8  and  C7_9
REMARK    8  A    between atoms: C7_9  and  O2_10
REMARK    9  A    between atoms: C7_9  and  C8_11
REMARK   10  A    between atoms: C8_11  and  C9_12
REMARK   11  A    between atoms: C8_11  and  N2_21
REMARK   12  A    between atoms: C9_12  and  C10_13
REMARK   13  A    between atoms: C16_22  and  C17_24
REMARK   14  A    between atoms: C17_24  and  O4_25
REMARK   15  A    between atoms: C17_24  and  C18_26
REMARK   16  A    between atoms: C23_31  and  C24_32
REMARK   17  A    between atoms: N3_40  and  C31_41
REMARK   18  A    between atoms: C33_43  and  C34_44
REMARK   19  A    between atoms: C34_44  and  O7_46
REMARK   20  A    between atoms: C36_48  and  C37_49
REMARK   21  A    between atoms: C37_49  and  O9_51
REMARK                            x       y       z     vdW  Elec       q    Type
REMARK                         _______ _______ _______ _____ _____    ______ ____
ROOT
ATOM      1  C7  UNL     1       0.012   2.602   1.070  0.00  0.00    +0.144 C 
ENDROOT
BRANCH   1   2
ATOM      2  O2  UNL     1      -0.252   4.014   1.067  0.00  0.00    -0.389 OA
ATOM      3  H13 UNL     1       0.446   4.433   0.527  0.00  0.00    +0.210 HD
ENDBRANCH   1   2
BRANCH   1   4
ATOM      4  C8  UNL     1      -0.092   2.039  -0.385  0.00  0.00    +0.106 C 
BRANCH   4   5
ATOM      5  N2  UNL     1       0.851   0.932  -0.576  0.00  0.00    -0.307 N 
ATOM      6  C16 UNL     1       2.129   1.144  -1.073  0.00  0.00    +0.247 C 
ATOM      7  O3  UNL     1       2.502   2.240  -1.483  0.00  0.00    -0.273 OA
ATOM      8  H20 UNL     1       0.771   0.145   0.078  0.00  0.00    +0.149 HD
BRANCH   6   9
ATOM      9  C17 UNL     1       3.011  -0.136  -1.064  0.00  0.00    +0.230 C 
BRANCH   9  10
ATOM     10  C18 UNL     1       3.746  -0.338  -2.382  0.00  0.00    -0.003 A 
ATOM     11  C19 UNL     1       3.039  -0.803  -3.513  0.00  0.00    +0.007 A 
ATOM     12  C20 UNL     1       3.680  -0.996  -4.738  0.00  0.00    +0.000 A 
ATOM     13  C21 UNL     1       5.035  -0.717  -4.866  0.00  0.00    +0.001 A 
ATOM     14  C22 UNL     1       5.747  -0.240  -3.765  0.00  0.00    +0.009 A 
ATOM     15  C23 UNL     1       5.123  -0.035  -2.519  0.00  0.00    -0.012 A 
BRANCH  15  16
ATOM     16  C24 UNL     1       5.932   0.511  -1.421  0.00  0.00    -0.018 A 
ATOM     17  C25 UNL     1       5.883   1.877  -1.111  0.00  0.00    +0.008 A 
ATOM     18  C26 UNL     1       6.655   2.401  -0.072  0.00  0.00    +0.001 A 
ATOM     19  C27 UNL     1       7.488   1.563   0.667  0.00  0.00    +0.000 A 
ATOM     20  C28 UNL     1       7.552   0.204   0.366  0.00  0.00    +0.001 A 
ATOM     21  C29 UNL     1       6.778  -0.320  -0.671  0.00  0.00    +0.008 A 
ENDBRANCH  15  16
ENDBRANCH   9  10
BRANCH   9  22
ATOM     22  O4  UNL     1       2.255  -1.315  -0.754  0.00  0.00    -0.378 OA
ATOM     23  H22 UNL     1       1.507  -1.331  -1.375  0.00  0.00    +0.211 HD
ENDBRANCH   9  22
ENDBRANCH   6   9
ENDBRANCH   4   5
BRANCH   4  24
ATOM     24  C9  UNL     1      -1.496   1.606  -0.863  0.00  0.00    +0.060 C 
BRANCH  24  25
ATOM     25  C10 UNL     1      -2.517   2.712  -1.007  0.00  0.00    -0.040 A 
ATOM     26  C11 UNL     1      -2.279   3.819  -1.835  0.00  0.00    +0.042 A 
ATOM     27  C12 UNL     1      -3.242   4.818  -1.971  0.00  0.00    +0.126 A 
ATOM     28  F1  UNL     1      -2.994   5.865  -2.769  0.00  0.00    -0.205 F 
ATOM     29  C13 UNL     1      -4.455   4.745  -1.301  0.00  0.00    +0.076 A 
ATOM     30  C14 UNL     1      -4.702   3.640  -0.500  0.00  0.00    +0.126 A 
ATOM     31  F2  UNL     1      -5.872   3.544   0.150  0.00  0.00    -0.205 F 
ATOM     32  C15 UNL     1      -3.757   2.624  -0.355  0.00  0.00    +0.042 A 
ENDBRANCH  24  25
ENDBRANCH   4  24
ENDBRANCH   1   4
BRANCH   1  33
ATOM     33  C6  UNL     1      -0.914   1.979   2.117  0.00  0.00    +0.129 C 
BRANCH  33  35
ATOM     34  N1  UNL     1      -1.758  -0.116   2.980  0.00  0.00    -0.304 N 
ATOM     35  C5  UNL     1      -0.731   0.488   2.284  0.00  0.00    +0.216 C 
ATOM     36  O1  UNL     1       0.238  -0.128   1.851  0.00  0.00    -0.276 OA
ATOM     37  H9  UNL     1      -2.646   0.373   2.964  0.00  0.00    +0.149 HD
BRANCH  34  38
ATOM     38  C4  UNL     1      -1.843  -1.573   3.009  0.00  0.00    +0.162 C 
BRANCH  38  39
ATOM     39  C30 UNL     1      -2.502  -2.060   1.691  0.00  0.00    +0.238 C 
ATOM     40  O5  UNL     1      -3.218  -1.314   1.025  0.00  0.00    -0.273 OA
ATOM     41  N3  UNL     1      -2.207  -3.385   1.402  0.00  0.00    -0.284 N 
ATOM     42  H32 UNL     1      -1.508  -3.829   1.988  0.00  0.00    +0.155 HD
BRANCH  41  43
ATOM     43  C31 UNL     1      -2.661  -4.148   0.305  0.00  0.00    +0.035 A 
ATOM     44  C32 UNL     1      -3.637  -3.719  -0.597  0.00  0.00    +0.038 A 
ATOM     45  C33 UNL     1      -4.022  -4.539  -1.671  0.00  0.00    +0.061 A 
ATOM     46  C35 UNL     1      -3.429  -5.793  -1.841  0.00  0.00    +0.030 A 
ATOM     47  C36 UNL     1      -2.459  -6.235  -0.937  0.00  0.00    +0.061 A 
ATOM     48  C38 UNL     1      -2.083  -5.414   0.135  0.00  0.00    +0.038 A 
BRANCH  47  49
ATOM     49  C37 UNL     1      -1.850  -7.569  -1.155  0.00  0.00    +0.337 C 
ATOM     50  O8  UNL     1      -2.065  -8.307  -2.097  0.00  0.00    -0.245 OA
BRANCH  49  51
ATOM     51  O9  UNL     1      -0.994  -7.914  -0.178  0.00  0.00    -0.477 OA
ATOM     52  H36 UNL     1      -0.668  -8.796  -0.458  0.00  0.00    +0.295 HD
ENDBRANCH  49  51
ENDBRANCH  47  49
BRANCH  45  53
ATOM     53  C34 UNL     1      -5.054  -4.118  -2.654  0.00  0.00    +0.337 C 
ATOM     54  O6  UNL     1      -5.368  -4.727  -3.659  0.00  0.00    -0.245 OA
BRANCH  53  55
ATOM     55  O7  UNL     1      -5.655  -2.966  -2.314  0.00  0.00    -0.477 OA
ATOM     56  H34 UNL     1      -6.304  -2.810  -3.032  0.00  0.00    +0.295 HD
ENDBRANCH  53  55
ENDBRANCH  45  53
ENDBRANCH  41  43
ENDBRANCH  38  39
BRANCH  38  58
ATOM     57  C1  UNL     1      -4.034  -1.577   4.357  0.00  0.00    +0.009 C 
ATOM     58  C2  UNL     1      -2.603  -2.110   4.242  0.00  0.00    +0.012 C 
ATOM     59  C3  UNL     1      -1.835  -1.813   5.532  0.00  0.00    +0.009 C 
ENDBRANCH  38  58
ENDBRANCH  34  38
ENDBRANCH  33  35
ENDBRANCH   1  33
TORSDOF 19
