REMARK  Name = ligands/ligand_23.pdb
REMARK  32 active torsions:
REMARK  status: ('A' for Active; 'I' for Inactive)
REMARK    1  A    between atoms: C1_1  and  S1_2
REMARK    2  A    between atoms: S1_2  and  C2_3
REMARK    3  A    between atoms: C2_3  and  C3_4
REMARK    4  A    between atoms: C3_4  and  C4_5
REMARK    5  A    between atoms: C4_5  and  N1_6
REMARK    6  A    between atoms: C4_5  and  C15_21
REMARK    7  A    between atoms: C5_7  and  C6_9
REMARK    8  A    between atoms: C6_9  and  N2_10
REMARK    9  A    between atoms: C6_9  and  C12_18
REMARK   10  A    between atoms: C7_11  and  O3_13
REMARK   11  A    between atoms: O3_13  and  C8_14
REMARK   12  A    between atoms: C8_14  and  C9_15
REMARK   13  A    between atoms: C8_14  and  C10_16
REMARK   14  A    between atoms: C8_14  and  C11_17
REMARK   15  A    between atoms: C12_18  and  C13_19
REMARK   16  A    between atoms: C12_18  and  C14_20
REMARK   17  A    between atoms: N3_23  and  C16_24
REMARK   18  A    between atoms: C16_24  and  C17_25
REMARK   19  A    between atoms: C16_24  and  C24_32
REMARK   20  A    between atoms: C17_25  and  C18_26
REMARK   21  A    between atoms: C24_32  and  O5_33
REMARK   22  A    between atoms: C24_32  and  C25_34
REMARK   23  A    between atoms: C25_34  and  C26_35
REMARK   24  A    between atoms: C26_35  and  C27_36
REMARK   25  A    between atoms: C26_35  and  C28_37
REMARK   26  A    between atoms: N4_39  and  C29_40
REMARK   27  A    between atoms: C29_40  and  C30_41
REMARK   28  A    between atoms: C29_40  and  C37_51
REMARK   29  A    between atoms: N5_43  and  C31_44
REMARK   30  A    between atoms: C31_44  and  C32_45
REMARK   31  A    between atoms: C37_51  and  C38_52
REMARK   32  A    between atoms: C37_51  and  C39_53
REMARK                            x       y       z     vdW  Elec       q    Type
REMARK                         _______ _______ _______ _____ _____    ______ ____
ROOT
ATOM      1  C16 UNL     1      -0.822  -2.177  -1.437  0.00  0.00    +0.106 C 
ENDROOT
BRANCH   1   4
ATOM      2  C15 UNL     1      -0.143   0.091  -2.225  0.00  0.00    +0.234 C 
ATOM      3  O4  UNL     1      -1.287   0.526  -2.239  0.00  0.00    -0.274 OA
ATOM      4  N3  UNL     1       0.156  -1.226  -1.980  0.00  0.00    -0.308 N 
ATOM      5  H28 UNL     1       1.131  -1.450  -1.831  0.00  0.00    +0.149 HD
BRANCH   2   6
ATOM      6  C4  UNL     1       1.071   0.963  -2.619  0.00  0.00    +0.160 C 
BRANCH   6   7
ATOM      7  N1  UNL     1       2.350   0.453  -2.079  0.00  0.00    -0.302 N 
ATOM      8  C5  UNL     1       2.592   0.478  -0.721  0.00  0.00    +0.234 C 
ATOM      9  O1  UNL     1       1.655   0.507   0.083  0.00  0.00    -0.274 OA
ATOM     10  H9  UNL     1       3.139   0.541  -2.699  0.00  0.00    +0.150 HD
BRANCH   8  11
ATOM     11  C6  UNL     1       4.049   0.236  -0.251  0.00  0.00    +0.165 C 
BRANCH  11  12
ATOM     12  N2  UNL     1       4.216  -1.202  -0.083  0.00  0.00    -0.270 N 
ATOM     13  C7  UNL     1       4.244  -1.784   1.147  0.00  0.00    +0.401 C 
ATOM     14  O2  UNL     1       4.356  -1.185   2.203  0.00  0.00    -0.226 OA
ATOM     15  H11 UNL     1       4.003  -1.838  -0.839  0.00  0.00    +0.153 HD
BRANCH  13  16
ATOM     16  O3  UNL     1       4.142  -3.119   0.987  0.00  0.00    -0.445 OA
BRANCH  16  17
ATOM     17  C8  UNL     1       4.148  -4.002   2.136  0.00  0.00    +0.107 C 
ATOM     18  C9  UNL     1       5.484  -3.938   2.883  0.00  0.00    +0.055 C 
ATOM     19  C10 UNL     1       3.977  -5.412   1.546  0.00  0.00    +0.055 C 
ATOM     20  C11 UNL     1       2.969  -3.709   3.080  0.00  0.00    +0.055 C 
ENDBRANCH  16  17
ENDBRANCH  13  16
ENDBRANCH  11  12
BRANCH  11  21
ATOM     21  C12 UNL     1       5.222   0.872  -1.034  0.00  0.00    +0.012 C 
ATOM     22  C13 UNL     1       5.725   0.065  -2.238  0.00  0.00    +0.009 C 
ATOM     23  C14 UNL     1       4.963   2.333  -1.417  0.00  0.00    +0.009 C 
ENDBRANCH  11  21
ENDBRANCH   8  11
ENDBRANCH   6   7
BRANCH   6  24
ATOM     24  C3  UNL     1       1.185   1.049  -4.148  0.00  0.00    +0.042 C 
BRANCH  24  25
ATOM     25  C2  UNL     1       0.022   1.819  -4.774  0.00  0.00    +0.071 C 
BRANCH  25  27
ATOM     26  C1  UNL     1       1.438   3.542  -6.431  0.00  0.00    +0.084 C 
ATOM     27  S1  UNL     1       0.321   2.120  -6.547  0.00  0.00    -0.164 S 
ENDBRANCH  25  27
ENDBRANCH  24  25
ENDBRANCH   6  24
ENDBRANCH   2   6
ENDBRANCH   1   4
BRANCH   1  28
ATOM     28  C17 UNL     1      -0.477  -3.604  -1.922  0.00  0.00    +0.060 C 
BRANCH  28  29
ATOM     29  C18 UNL     1      -0.372  -3.735  -3.426  0.00  0.00    -0.046 A 
ATOM     30  C19 UNL     1      -1.450  -3.393  -4.256  0.00  0.00    +0.004 A 
ATOM     31  C20 UNL     1      -1.339  -3.506  -5.644  0.00  0.00    +0.000 A 
ATOM     32  C21 UNL     1      -0.156  -3.971  -6.219  0.00  0.00    +0.000 A 
ATOM     33  C22 UNL     1       0.917  -4.334  -5.408  0.00  0.00    +0.000 A 
ATOM     34  C23 UNL     1       0.808  -4.218  -4.019  0.00  0.00    +0.004 A 
ENDBRANCH  28  29
ENDBRANCH   1  28
BRANCH   1  35
ATOM     35  C24 UNL     1      -0.817  -2.140   0.122  0.00  0.00    +0.136 C 
BRANCH  35  36
ATOM     36  O5  UNL     1       0.545  -2.184   0.571  0.00  0.00    -0.390 OA
ATOM     37  H38 UNL     1       0.891  -1.267   0.500  0.00  0.00    +0.210 HD
ENDBRANCH  35  36
BRANCH  35  38
ATOM     38  C25 UNL     1      -1.536  -0.908   0.699  0.00  0.00    +0.045 C 
BRANCH  38  39
ATOM     39  C26 UNL     1      -1.737  -0.946   2.232  0.00  0.00    +0.074 C 
ATOM     40  C27 UNL     1      -0.435  -0.886   3.041  0.00  0.00    +0.017 C 
BRANCH  39  41
ATOM     41  C28 UNL     1      -2.645   0.186   2.720  0.00  0.00    +0.217 C 
ATOM     42  O6  UNL     1      -3.620  -0.013   3.443  0.00  0.00    -0.276 OA
ATOM     43  N4  UNL     1      -2.245   1.452   2.363  0.00  0.00    -0.304 N 
ATOM     44  H45 UNL     1      -1.693   1.551   1.515  0.00  0.00    +0.149 HD
BRANCH  43  45
ATOM     45  C29 UNL     1      -2.970   2.636   2.798  0.00  0.00    +0.161 C 
BRANCH  45  46
ATOM     46  C30 UNL     1      -4.258   2.782   1.950  0.00  0.00    +0.234 C 
ATOM     47  O7  UNL     1      -4.297   3.319   0.846  0.00  0.00    -0.274 OA
ATOM     48  N5  UNL     1      -5.347   2.182   2.547  0.00  0.00    -0.310 N 
ATOM     49  H47 UNL     1      -5.123   1.480   3.256  0.00  0.00    +0.149 HD
BRANCH  48  50
ATOM     50  C31 UNL     1      -6.644   2.093   1.926  0.00  0.00    +0.139 C 
BRANCH  50  51
ATOM     51  C32 UNL     1      -6.897   0.766   1.258  0.00  0.00    -0.027 A 
ATOM     52  C33 UNL     1      -7.386   0.711  -0.055  0.00  0.00    +0.025 A 
ATOM     53  C34 UNL     1      -7.660  -0.532  -0.614  0.00  0.00    +0.111 A 
ATOM     54  N6  UNL     1      -7.512  -1.703   0.041  0.00  0.00    -0.263 NA
ATOM     55  C35 UNL     1      -7.036  -1.626   1.302  0.00  0.00    +0.111 A 
ATOM     56  C36 UNL     1      -6.719  -0.439   1.944  0.00  0.00    +0.025 A 
ENDBRANCH  50  51
ENDBRANCH  48  50
ENDBRANCH  45  46
BRANCH  45  57
ATOM     57  C37 UNL     1      -2.102   3.919   2.770  0.00  0.00    +0.012 C 
ATOM     58  C38 UNL     1      -1.182   3.974   3.997  0.00  0.00    +0.009 C 
ATOM     59  C39 UNL     1      -1.267   4.094   1.500  0.00  0.00    +0.009 C 
ENDBRANCH  45  57
ENDBRANCH  43  45
ENDBRANCH  39  41
ENDBRANCH  38  39
ENDBRANCH  35  38
ENDBRANCH   1  35
TORSDOF 23
