REMARK  Name = ligands/ligand_8.pdb
REMARK  25 active torsions:
REMARK  status: ('A' for Active; 'I' for Inactive)
REMARK    1  A    between atoms: C1_1  and  C2_2
REMARK    2  A    between atoms: C2_2  and  C3_3
REMARK    3  A    between atoms: C3_3  and  C4_4
REMARK    4  A    between atoms: C3_3  and  C5_5
REMARK    5  A    between atoms: C5_5  and  O1_6
REMARK    6  A    between atoms: C5_5  and  C6_7
REMARK    7  A    between atoms: N1_9  and  C7_10
REMARK    8  A    between atoms: C7_10  and  C8_11
REMARK    9  A    between atoms: C7_10  and  C9_12
REMARK   10  A    between atoms: N2_14  and  C10_15
REMARK   11  A    between atoms: C10_15  and  C11_16
REMARK   12  A    between atoms: C10_15  and  C18_23
REMARK   13  A    between atoms: C11_16  and  C12_17
REMARK   14  A    between atoms: C18_23  and  O4_24
REMARK   15  A    between atoms: C18_23  and  C19_25
REMARK   16  A    between atoms: C19_25  and  C20_26
REMARK   17  A    between atoms: C20_26  and  C21_27
REMARK   18  A    between atoms: C20_26  and  C22_28
REMARK   19  A    between atoms: N3_30  and  C23_31
REMARK   20  A    between atoms: C23_31  and  C24_32
REMARK   21  A    between atoms: C23_31  and  C31_42
REMARK   22  A    between atoms: N4_34  and  C25_35
REMARK   23  A    between atoms: C25_35  and  C26_36
REMARK   24  A    between atoms: C31_42  and  C32_43
REMARK   25  A    between atoms: C31_42  and  C33_44
REMARK                            x       y       z     vdW  Elec       q    Type
REMARK                         _______ _______ _______ _____ _____    ______ ____
ROOT
ATOM      1  C10 UNL     1      -0.878  -1.622  -0.166  0.00  0.00    +0.106 C 
ENDROOT
BRANCH   1   4
ATOM      2  C9  UNL     1       0.681  -3.518   0.208  0.00  0.00    +0.233 C 
ATOM      3  O3  UNL     1       0.144  -4.204  -0.661  0.00  0.00    -0.274 OA
ATOM      4  N2  UNL     1       0.278  -2.231   0.499  0.00  0.00    -0.308 N 
ATOM      5  H17 UNL     1       0.813  -1.676   1.157  0.00  0.00    +0.149 HD
BRANCH   2   6
ATOM      6  C7  UNL     1       1.855  -4.043   1.053  0.00  0.00    +0.156 C 
ATOM      7  C8  UNL     1       3.169  -3.411   0.620  0.00  0.00    +0.038 C 
BRANCH   6  10
ATOM      8  C6  UNL     1       2.356  -6.315   1.892  0.00  0.00    +0.242 C 
ATOM      9  O2  UNL     1       2.895  -5.889   2.915  0.00  0.00    -0.273 OA
ATOM     10  N1  UNL     1       1.891  -5.491   0.901  0.00  0.00    -0.302 N 
ATOM     11  H12 UNL     1       1.411  -5.870   0.089  0.00  0.00    +0.150 HD
BRANCH   8  12
ATOM     12  C5  UNL     1       2.217  -7.831   1.639  0.00  0.00    +0.203 C 
BRANCH  12  13
ATOM     13  C3  UNL     1       0.775  -8.303   1.346  0.00  0.00    +0.023 C 
ATOM     14  C4  UNL     1       0.822  -9.698   0.702  0.00  0.00    +0.010 C 
BRANCH  13  16
ATOM     15  C1  UNL     1      -0.428  -7.030   3.240  0.00  0.00    +0.004 C 
ATOM     16  C2  UNL     1      -0.151  -8.372   2.580  0.00  0.00    +0.003 C 
ENDBRANCH  13  16
ENDBRANCH  12  13
BRANCH  12  17
ATOM     17  O1  UNL     1       2.754  -8.575   2.734  0.00  0.00    -0.382 OA
ATOM     18  H11 UNL     1       3.237  -7.928   3.287  0.00  0.00    +0.210 HD
ENDBRANCH  12  17
ENDBRANCH   8  12
ENDBRANCH   6  10
ENDBRANCH   2   6
ENDBRANCH   1   4
BRANCH   1  19
ATOM     19  C18 UNL     1      -0.543  -1.073  -1.594  0.00  0.00    +0.136 C 
BRANCH  19  20
ATOM     20  O4  UNL     1      -1.491  -0.103  -2.036  0.00  0.00    -0.390 OA
ATOM     21  H27 UNL     1      -2.374  -0.520  -1.986  0.00  0.00    +0.210 HD
ENDBRANCH  19  20
BRANCH  19  22
ATOM     22  C19 UNL     1       0.878  -0.509  -1.821  0.00  0.00    +0.045 C 
BRANCH  22  23
ATOM     23  C20 UNL     1       1.242   0.767  -1.039  0.00  0.00    +0.074 C 
ATOM     24  C21 UNL     1       2.704   0.695  -0.580  0.00  0.00    +0.017 C 
BRANCH  23  25
ATOM     25  C22 UNL     1       1.033   2.065  -1.830  0.00  0.00    +0.217 C 
ATOM     26  O5  UNL     1       1.880   2.955  -1.881  0.00  0.00    -0.276 OA
ATOM     27  N3  UNL     1      -0.208   2.213  -2.404  0.00  0.00    -0.304 N 
ATOM     28  H34 UNL     1      -0.918   1.525  -2.144  0.00  0.00    +0.149 HD
BRANCH  27  29
ATOM     29  C23 UNL     1      -0.666   3.532  -2.827  0.00  0.00    +0.161 C 
BRANCH  29  30
ATOM     30  C24 UNL     1      -1.127   4.281  -1.555  0.00  0.00    +0.234 C 
ATOM     31  O6  UNL     1      -1.714   3.717  -0.632  0.00  0.00    -0.274 OA
ATOM     32  N4  UNL     1      -0.837   5.630  -1.549  0.00  0.00    -0.310 N 
ATOM     33  H36 UNL     1      -0.196   5.986  -2.247  0.00  0.00    +0.149 HD
BRANCH  32  34
ATOM     34  C25 UNL     1      -1.020   6.435  -0.361  0.00  0.00    +0.139 C 
BRANCH  34  35
ATOM     35  C26 UNL     1       0.291   6.806   0.288  0.00  0.00    -0.027 A 
ATOM     36  C27 UNL     1       0.436   8.055   0.903  0.00  0.00    +0.025 A 
ATOM     37  C28 UNL     1       1.638   8.362   1.522  0.00  0.00    +0.111 A 
ATOM     38  N5  UNL     1       2.692   7.520   1.576  0.00  0.00    -0.263 NA
ATOM     39  C29 UNL     1       2.531   6.313   0.994  0.00  0.00    +0.111 A 
ATOM     40  C30 UNL     1       1.367   5.914   0.356  0.00  0.00    +0.025 A 
ENDBRANCH  34  35
ENDBRANCH  32  34
ENDBRANCH  29  30
BRANCH  29  41
ATOM     41  C31 UNL     1      -1.756   3.449  -3.917  0.00  0.00    +0.012 C 
ATOM     42  C32 UNL     1      -3.103   2.920  -3.416  0.00  0.00    +0.009 C 
ATOM     43  C33 UNL     1      -1.959   4.800  -4.609  0.00  0.00    +0.009 C 
ENDBRANCH  29  41
ENDBRANCH  27  29
ENDBRANCH  23  25
ENDBRANCH  22  23
ENDBRANCH  19  22
ENDBRANCH   1  19
BRANCH   1  44
ATOM     44  C11 UNL     1      -1.607  -0.647   0.795  0.00  0.00    +0.060 C 
BRANCH  44  45
ATOM     45  C12 UNL     1      -3.094  -0.513   0.545  0.00  0.00    -0.046 A 
ATOM     46  C13 UNL     1      -3.950  -1.612   0.707  0.00  0.00    +0.004 A 
ATOM     47  C14 UNL     1      -5.317  -1.490   0.455  0.00  0.00    +0.000 A 
ATOM     48  C15 UNL     1      -5.844  -0.267   0.049  0.00  0.00    +0.000 A 
ATOM     49  C16 UNL     1      -5.007   0.837  -0.098  0.00  0.00    +0.000 A 
ATOM     50  C17 UNL     1      -3.640   0.717   0.156  0.00  0.00    +0.004 A 
ENDBRANCH  44  45
ENDBRANCH   1  44
TORSDOF 19
