REMARK  Name = ligands/ligand_24.pdb
REMARK  28 active torsions:
REMARK  status: ('A' for Active; 'I' for Inactive)
REMARK    1  A    between atoms: C1_1  and  C2_2
REMARK    2  A    between atoms: C2_2  and  C3_3
REMARK    3  A    between atoms: C3_3  and  N1_4
REMARK    4  A    between atoms: C3_3  and  C9_12
REMARK    5  A    between atoms: C4_5  and  O2_7
REMARK    6  A    between atoms: O2_7  and  C5_8
REMARK    7  A    between atoms: C5_8  and  C6_9
REMARK    8  A    between atoms: C5_8  and  C7_10
REMARK    9  A    between atoms: C5_8  and  C8_11
REMARK   10  A    between atoms: N2_14  and  C10_15
REMARK   11  A    between atoms: C10_15  and  C11_16
REMARK   12  A    between atoms: C10_15  and  C12_17
REMARK   13  A    between atoms: N3_19  and  C13_20
REMARK   14  A    between atoms: C13_20  and  C14_21
REMARK   15  A    between atoms: C13_20  and  C21_28
REMARK   16  A    between atoms: C14_21  and  C15_22
REMARK   17  A    between atoms: C21_28  and  O5_29
REMARK   18  A    between atoms: C21_28  and  C22_30
REMARK   19  A    between atoms: C22_30  and  C23_31
REMARK   20  A    between atoms: C23_31  and  C24_32
REMARK   21  A    between atoms: C23_31  and  C25_33
REMARK   22  A    between atoms: N4_35  and  C26_36
REMARK   23  A    between atoms: C26_36  and  C27_37
REMARK   24  A    between atoms: C26_36  and  C34_47
REMARK   25  A    between atoms: N5_39  and  C28_40
REMARK   26  A    between atoms: C28_40  and  C29_41
REMARK   27  A    between atoms: C34_47  and  C35_48
REMARK   28  A    between atoms: C34_47  and  C36_49
REMARK                            x       y       z     vdW  Elec       q    Type
REMARK                         _______ _______ _______ _____ _____    ______ ____
ROOT
ATOM      1  C13 UNL     1      -2.117  -4.050   1.070  0.00  0.00    +0.106 C 
ENDROOT
BRANCH   1   4
ATOM      2  C12 UNL     1       0.070  -2.893   0.833  0.00  0.00    +0.233 C 
ATOM      3  O4  UNL     1       0.245  -3.337  -0.301  0.00  0.00    -0.274 OA
ATOM      4  N3  UNL     1      -0.996  -3.276   1.623  0.00  0.00    -0.308 N 
ATOM      5  H22 UNL     1      -1.172  -2.751   2.470  0.00  0.00    +0.149 HD
BRANCH   2   6
ATOM      6  C10 UNL     1       1.054  -1.894   1.481  0.00  0.00    +0.156 C 
ATOM      7  C11 UNL     1       0.380  -0.590   1.886  0.00  0.00    +0.038 C 
BRANCH   6  10
ATOM      8  C9  UNL     1       3.327  -1.101   0.855  0.00  0.00    +0.234 C 
ATOM      9  O3  UNL     1       3.642  -0.841   2.014  0.00  0.00    -0.274 OA
ATOM     10  N2  UNL     1       2.112  -1.645   0.515  0.00  0.00    -0.303 N 
ATOM     11  H17 UNL     1       1.896  -1.862  -0.453  0.00  0.00    +0.149 HD
BRANCH   8  12
ATOM     12  C3  UNL     1       4.277  -0.878  -0.337  0.00  0.00    +0.162 C 
BRANCH  12  13
ATOM     13  N1  UNL     1       5.316   0.057   0.058  0.00  0.00    -0.270 N 
ATOM     14  C4  UNL     1       5.137   1.398  -0.103  0.00  0.00    +0.401 C 
ATOM     15  O1  UNL     1       4.261   1.912  -0.779  0.00  0.00    -0.226 OA
ATOM     16  H7  UNL     1       5.821  -0.159   0.906  0.00  0.00    +0.153 HD
BRANCH  14  17
ATOM     17  O2  UNL     1       6.079   2.046   0.613  0.00  0.00    -0.445 OA
BRANCH  17  18
ATOM     18  C5  UNL     1       6.154   3.495   0.597  0.00  0.00    +0.107 C 
ATOM     19  C6  UNL     1       4.882   4.126   1.172  0.00  0.00    +0.055 C 
ATOM     20  C7  UNL     1       6.466   4.016  -0.810  0.00  0.00    +0.055 C 
ATOM     21  C8  UNL     1       7.339   3.825   1.516  0.00  0.00    +0.055 C 
ENDBRANCH  17  18
ENDBRANCH  14  17
ENDBRANCH  12  13
BRANCH  12  23
ATOM     22  C1  UNL     1       5.661  -2.990   0.175  0.00  0.00    +0.006 C 
ATOM     23  C2  UNL     1       4.866  -2.195  -0.854  0.00  0.00    +0.028 C 
ENDBRANCH  12  23
ENDBRANCH   8  12
ENDBRANCH   6  10
ENDBRANCH   2   6
ENDBRANCH   1   4
BRANCH   1  24
ATOM     24  C14 UNL     1      -2.934  -4.679   2.221  0.00  0.00    +0.060 C 
BRANCH  24  25
ATOM     25  C15 UNL     1      -3.760  -5.878   1.816  0.00  0.00    -0.046 A 
ATOM     26  C16 UNL     1      -3.139  -7.100   1.519  0.00  0.00    +0.004 A 
ATOM     27  C17 UNL     1      -3.901  -8.203   1.130  0.00  0.00    +0.000 A 
ATOM     28  C18 UNL     1      -5.288  -8.097   1.031  0.00  0.00    +0.000 A 
ATOM     29  C19 UNL     1      -5.913  -6.888   1.326  0.00  0.00    +0.000 A 
ATOM     30  C20 UNL     1      -5.155  -5.785   1.720  0.00  0.00    +0.004 A 
ENDBRANCH  24  25
ENDBRANCH   1  24
BRANCH   1  31
ATOM     31  C21 UNL     1      -2.956  -3.190   0.071  0.00  0.00    +0.136 C 
BRANCH  31  32
ATOM     32  O5  UNL     1      -4.030  -3.920  -0.526  0.00  0.00    -0.390 OA
ATOM     33  H32 UNL     1      -3.685  -4.787  -0.803  0.00  0.00    +0.210 HD
ENDBRANCH  31  32
BRANCH  31  34
ATOM     34  C22 UNL     1      -3.565  -1.925   0.707  0.00  0.00    +0.045 C 
BRANCH  34  35
ATOM     35  C23 UNL     1      -4.124  -0.942  -0.342  0.00  0.00    +0.074 C 
ATOM     36  C24 UNL     1      -4.862   0.204   0.351  0.00  0.00    +0.017 C 
BRANCH  35  37
ATOM     37  C25 UNL     1      -3.005  -0.365  -1.202  0.00  0.00    +0.217 C 
ATOM     38  O6  UNL     1      -1.825  -0.373  -0.865  0.00  0.00    -0.276 OA
ATOM     39  N4  UNL     1      -3.431   0.194  -2.388  0.00  0.00    -0.304 N 
ATOM     40  H39 UNL     1      -4.402   0.477  -2.439  0.00  0.00    +0.149 HD
BRANCH  39  41
ATOM     41  C26 UNL     1      -2.500   0.957  -3.214  0.00  0.00    +0.161 C 
BRANCH  41  42
ATOM     42  C27 UNL     1      -2.500   2.374  -2.604  0.00  0.00    +0.234 C 
ATOM     43  O7  UNL     1      -3.535   3.029  -2.479  0.00  0.00    -0.274 OA
ATOM     44  N5  UNL     1      -1.263   2.807  -2.171  0.00  0.00    -0.310 N 
ATOM     45  H41 UNL     1      -0.558   2.093  -2.018  0.00  0.00    +0.149 HD
BRANCH  44  46
ATOM     46  C28 UNL     1      -1.123   4.014  -1.393  0.00  0.00    +0.139 C 
BRANCH  46  47
ATOM     47  C29 UNL     1      -1.157   3.705   0.079  0.00  0.00    -0.027 A 
ATOM     48  C30 UNL     1       0.019   3.410   0.770  0.00  0.00    +0.025 A 
ATOM     49  C31 UNL     1      -0.067   3.101   2.117  0.00  0.00    +0.111 A 
ATOM     50  N6  UNL     1      -1.227   3.054   2.808  0.00  0.00    -0.263 NA
ATOM     51  C32 UNL     1      -2.351   3.334   2.118  0.00  0.00    +0.111 A 
ATOM     52  C33 UNL     1      -2.369   3.656   0.772  0.00  0.00    +0.025 A 
ENDBRANCH  46  47
ENDBRANCH  44  46
ENDBRANCH  41  42
BRANCH  41  53
ATOM     53  C34 UNL     1      -2.943   0.989  -4.691  0.00  0.00    +0.012 C 
ATOM     54  C35 UNL     1      -3.068  -0.432  -5.255  0.00  0.00    +0.009 C 
ATOM     55  C36 UNL     1      -1.961   1.792  -5.550  0.00  0.00    +0.009 C 
ENDBRANCH  41  53
ENDBRANCH  39  41
ENDBRANCH  35  37
ENDBRANCH  34  35
ENDBRANCH  31  34
ENDBRANCH   1  31
TORSDOF 20
