REMARK  Name = ligands/ligand_43.pdb
REMARK  79 active torsions:
REMARK  status: ('A' for Active; 'I' for Inactive)
REMARK    1  A    between atoms: C1_1  and  C2_2
REMARK    2  A    between atoms: C2_2  and  C3_3
REMARK    3  A    between atoms: C3_3  and  C4_4
REMARK    4  A    between atoms: C3_3  and  C5_5
REMARK    5  A    between atoms: C5_5  and  N1_6
REMARK    6  A    between atoms: C5_5  and  C26_41
REMARK    7  A    between atoms: C6_7  and  C7_9
REMARK    8  A    between atoms: C7_9  and  C8_10
REMARK    9  A    between atoms: C7_9  and  N2_15
REMARK   10  A    between atoms: C8_10  and  C9_11
REMARK   11  A    between atoms: C9_11  and  C10_12
REMARK   12  A    between atoms: C10_12  and  O3_14
REMARK   13  A    between atoms: C11_16  and  C12_18
REMARK   14  A    between atoms: C12_18  and  C13_19
REMARK   15  A    between atoms: C12_18  and  N3_24
REMARK   16  A    between atoms: C13_19  and  C14_20
REMARK   17  A    between atoms: C14_20  and  C15_21
REMARK   18  A    between atoms: C15_21  and  O6_23
REMARK   19  A    between atoms: C16_25  and  C17_27
REMARK   20  A    between atoms: C17_27  and  N4_28
REMARK   21  A    between atoms: C17_27  and  C24_38
REMARK   22  A    between atoms: C18_29  and  C19_31
REMARK   23  A    between atoms: C19_31  and  N5_32
REMARK   24  A    between atoms: C19_31  and  C20_33
REMARK   25  A    between atoms: C20_33  and  C21_34
REMARK   26  A    between atoms: C21_34  and  C22_35
REMARK   27  A    between atoms: C22_35  and  C23_36
REMARK   28  A    between atoms: C23_36  and  N6_37
REMARK   29  A    between atoms: C24_38  and  C25_39
REMARK   30  A    between atoms: C24_38  and  O9_40
REMARK   31  A    between atoms: N7_43  and  C27_44
REMARK   32  A    between atoms: C27_44  and  C28_45
REMARK   33  A    between atoms: C27_44  and  C29_47
REMARK   34  A    between atoms: C28_45  and  O11_46
REMARK   35  A    between atoms: N8_49  and  C30_50
REMARK   36  A    between atoms: C30_50  and  C31_51
REMARK   37  A    between atoms: C30_50  and  C34_56
REMARK   38  A    between atoms: C31_51  and  C32_52
REMARK   39  A    between atoms: C32_52  and  C33_53
REMARK   40  A    between atoms: C33_53  and  O14_55
REMARK   41  A    between atoms: N9_58  and  C35_59
REMARK   42  A    between atoms: C35_59  and  C36_60
REMARK   43  A    between atoms: C35_59  and  C72_118
REMARK   44  A    between atoms: N10_62  and  C37_63
REMARK   45  A    between atoms: C37_63  and  C38_64
REMARK   46  A    between atoms: C37_63  and  C40_68
REMARK   47  A    between atoms: C38_64  and  C39_65
REMARK   48  A    between atoms: N12_70  and  C41_71
REMARK   49  A    between atoms: C41_71  and  C42_72
REMARK   50  A    between atoms: C41_71  and  C46_76
REMARK   51  A    between atoms: C42_72  and  C43_73
REMARK   52  A    between atoms: C43_73  and  C44_74
REMARK   53  A    between atoms: C43_73  and  C45_75
REMARK   54  A    between atoms: C46_76  and  C47_77
REMARK   55  A    between atoms: C46_76  and  O29_114
REMARK   56  A    between atoms: C47_77  and  C48_78
REMARK   57  A    between atoms: N13_80  and  C49_81
REMARK   58  A    between atoms: C49_81  and  C50_82
REMARK   59  A    between atoms: C49_81  and  C52_86
REMARK   60  A    between atoms: C50_82  and  C51_83
REMARK   61  A    between atoms: C51_83  and  O21_85
REMARK   62  A    between atoms: N14_88  and  C53_89
REMARK   63  A    between atoms: C53_89  and  C54_90
REMARK   64  A    between atoms: C53_89  and  C55_91
REMARK   65  A    between atoms: N15_93  and  C56_94
REMARK   66  A    between atoms: C56_94  and  C57_95
REMARK   67  A    between atoms: C56_94  and  C60_100
REMARK   68  A    between atoms: C57_95  and  C58_96
REMARK   69  A    between atoms: C58_96  and  C59_97
REMARK   70  A    between atoms: C59_97  and  O25_99
REMARK   71  A    between atoms: N16_102  and  C61_103
REMARK   72  A    between atoms: C61_103  and  C62_104
REMARK   73  A    between atoms: C61_103  and  C69_111
REMARK   74  A    between atoms: C62_104  and  C63_105
REMARK   75  A    between atoms: C69_111  and  O28_113
REMARK   76  A    between atoms: O29_114  and  C70_115
REMARK   77  A    between atoms: C70_115  and  C71_116
REMARK   78  A    between atoms: C72_118  and  C73_119
REMARK   79  A    between atoms: C72_118  and  C74_120
REMARK                            x       y       z     vdW  Elec       q    Type
REMARK                         _______ _______ _______ _____ _____    ______ ____
ROOT
ATOM      1  C34 UNL     1      -0.838  -2.652  -0.438  0.00  0.00    +0.234 C 
ATOM      2  O15 UNL     1       0.061  -1.905  -0.830  0.00  0.00    -0.274 OA
ATOM      3  N9  UNL     1      -0.947  -3.962  -0.854  0.00  0.00    -0.302 N 
ATOM      4  H58 UNL     1      -1.831  -4.441  -0.726  0.00  0.00    +0.150 HD
ENDROOT
BRANCH   1   5
ATOM      5  C30 UNL     1      -1.906  -2.185   0.581  0.00  0.00    +0.159 C 
BRANCH   5   8
ATOM      6  C29 UNL     1      -0.517  -1.757   2.593  0.00  0.00    +0.236 C 
ATOM      7  O12 UNL     1      -0.763  -2.852   3.104  0.00  0.00    -0.274 OA
ATOM      8  N8  UNL     1      -1.192  -1.284   1.484  0.00  0.00    -0.302 N 
ATOM      9  H51 UNL     1      -0.752  -0.487   1.016  0.00  0.00    +0.150 HD
BRANCH   6  10
ATOM     10  C27 UNL     1       0.497  -0.742   3.175  0.00  0.00    +0.184 C 
BRANCH  10  13
ATOM     11  C26 UNL     1       2.207  -2.183   4.250  0.00  0.00    +0.234 C 
ATOM     12  O10 UNL     1       2.746  -2.465   3.180  0.00  0.00    -0.274 OA
ATOM     13  N7  UNL     1       1.178  -1.276   4.359  0.00  0.00    -0.301 N 
ATOM     14  H46 UNL     1       0.636  -1.306   5.217  0.00  0.00    +0.150 HD
BRANCH  11  15
ATOM     15  C5  UNL     1       2.701  -2.805   5.579  0.00  0.00    +0.162 C 
BRANCH  15  16
ATOM     16  N1  UNL     1       3.334  -4.073   5.194  0.00  0.00    -0.302 N 
ATOM     17  C6  UNL     1       2.841  -5.275   5.643  0.00  0.00    +0.234 C 
ATOM     18  O1  UNL     1       2.047  -5.343   6.586  0.00  0.00    -0.274 OA
ATOM     19  H11 UNL     1       3.714  -4.047   4.252  0.00  0.00    +0.150 HD
BRANCH  17  20
ATOM     20  C7  UNL     1       3.361  -6.569   4.963  0.00  0.00    +0.159 C 
BRANCH  20  21
ATOM     21  N2  UNL     1       2.183  -7.438   4.840  0.00  0.00    -0.302 N 
ATOM     22  C11 UNL     1       1.203  -7.154   3.909  0.00  0.00    +0.234 C 
ATOM     23  O4  UNL     1       1.342  -6.351   2.985  0.00  0.00    -0.274 OA
ATOM     24  H18 UNL     1       1.828  -7.765   5.733  0.00  0.00    +0.150 HD
BRANCH  22  25
ATOM     25  C12 UNL     1      -0.104  -7.943   4.083  0.00  0.00    +0.159 C 
BRANCH  25  26
ATOM     26  N3  UNL     1      -1.164  -7.059   3.592  0.00  0.00    -0.302 N 
ATOM     27  C16 UNL     1      -2.200  -6.640   4.399  0.00  0.00    +0.236 C 
ATOM     28  O7  UNL     1      -2.250  -6.948   5.591  0.00  0.00    -0.274 OA
ATOM     29  H25 UNL     1      -0.864  -6.436   2.849  0.00  0.00    +0.150 HD
BRANCH  27  30
ATOM     30  C17 UNL     1      -3.245  -5.708   3.747  0.00  0.00    +0.187 C 
BRANCH  30  31
ATOM     31  N4  UNL     1      -2.988  -4.305   4.081  0.00  0.00    -0.301 N 
ATOM     32  C18 UNL     1      -3.755  -3.626   5.006  0.00  0.00    +0.231 C 
ATOM     33  O8  UNL     1      -4.664  -4.150   5.645  0.00  0.00    -0.274 OA
ATOM     34  H27 UNL     1      -2.153  -3.840   3.713  0.00  0.00    +0.150 HD
BRANCH  32  35
ATOM     35  C19 UNL     1      -3.474  -2.105   5.050  0.00  0.00    +0.138 C 
BRANCH  35  36
ATOM     36  N5  UNL     1      -4.118  -1.515   3.855  0.00  0.00    -0.320 NA
ATOM     37  H29 UNL     1      -3.979  -0.507   3.846  0.00  0.00    +0.119 HD
ATOM     38  H30 UNL     1      -5.128  -1.652   3.946  0.00  0.00    +0.119 HD
ENDBRANCH  35  36
BRANCH  35  39
ATOM     39  C20 UNL     1      -3.999  -1.492   6.358  0.00  0.00    +0.028 C 
BRANCH  39  40
ATOM     40  C21 UNL     1      -3.879   0.031   6.488  0.00  0.00    +0.003 C 
BRANCH  40  41
ATOM     41  C22 UNL     1      -2.498   0.634   6.216  0.00  0.00    +0.015 C 
BRANCH  41  42
ATOM     42  C23 UNL     1      -1.409   0.096   7.140  0.00  0.00    +0.077 C 
BRANCH  42  43
ATOM     43  N6  UNL     1      -0.143   0.778   6.892  0.00  0.00    -0.330 NA
ATOM     44  H39 UNL     1      -0.001   0.924   5.891  0.00  0.00    +0.118 HD
ATOM     45  H40 UNL     1      -0.184   1.718   7.293  0.00  0.00    +0.118 HD
ENDBRANCH  42  43
ENDBRANCH  41  42
ENDBRANCH  40  41
ENDBRANCH  39  40
ENDBRANCH  35  39
ENDBRANCH  32  35
ENDBRANCH  30  31
BRANCH  30  46
ATOM     46  C24 UNL     1      -3.384  -5.850   2.215  0.00  0.00    +0.141 C 
ATOM     47  C25 UNL     1      -3.959  -7.191   1.785  0.00  0.00    +0.040 C 
BRANCH  46  48
ATOM     48  O9  UNL     1      -4.254  -4.826   1.701  0.00  0.00    -0.390 OA
ATOM     49  H45 UNL     1      -4.196  -4.078   2.333  0.00  0.00    +0.210 HD
ENDBRANCH  46  48
ENDBRANCH  30  46
ENDBRANCH  27  30
ENDBRANCH  25  26
BRANCH  25  50
ATOM     50  C13 UNL     1      -0.097  -9.230   3.260  0.00  0.00    +0.043 C 
BRANCH  50  51
ATOM     51  C14 UNL     1       0.805 -10.311   3.842  0.00  0.00    +0.123 C 
BRANCH  51  52
ATOM     52  C15 UNL     1       0.686 -11.564   3.019  0.00  0.00    +0.305 C 
ATOM     53  O5  UNL     1      -0.132 -12.454   3.171  0.00  0.00    -0.251 OA
BRANCH  52  54
ATOM     54  O6  UNL     1       1.583 -11.612   2.017  0.00  0.00    -0.481 OA
ATOM     55  H24 UNL     1       1.377 -12.449   1.549  0.00  0.00    +0.295 HD
ENDBRANCH  52  54
ENDBRANCH  51  52
ENDBRANCH  50  51
ENDBRANCH  25  50
ENDBRANCH  22  25
ENDBRANCH  20  21
BRANCH  20  56
ATOM     56  C8  UNL     1       4.169  -6.441   3.667  0.00  0.00    +0.043 C 
BRANCH  56  57
ATOM     57  C9  UNL     1       5.631  -6.081   3.934  0.00  0.00    +0.123 C 
BRANCH  57  58
ATOM     58  C10 UNL     1       6.326  -5.702   2.655  0.00  0.00    +0.305 C 
ATOM     59  O2  UNL     1       6.228  -6.254   1.574  0.00  0.00    -0.251 OA
BRANCH  58  60
ATOM     60  O3  UNL     1       7.146  -4.645   2.817  0.00  0.00    -0.481 OA
ATOM     61  H17 UNL     1       7.520  -4.481   1.927  0.00  0.00    +0.295 HD
ENDBRANCH  58  60
ENDBRANCH  57  58
ENDBRANCH  56  57
ENDBRANCH  20  56
ENDBRANCH  17  20
ENDBRANCH  15  16
BRANCH  15  62
ATOM     62  C3  UNL     1       3.693  -1.918   6.364  0.00  0.00    +0.015 C 
ATOM     63  C4  UNL     1       4.835  -1.390   5.486  0.00  0.00    +0.010 C 
BRANCH  62  65
ATOM     64  C1  UNL     1       3.818  -0.053   8.120  0.00  0.00    +0.004 C 
ATOM     65  C2  UNL     1       2.959  -0.774   7.090  0.00  0.00    +0.002 C 
ENDBRANCH  62  65
ENDBRANCH  15  62
ENDBRANCH  11  15
ENDBRANCH  10  13
BRANCH  10  66
ATOM     66  C28 UNL     1       1.448  -0.230   2.075  0.00  0.00    +0.187 C 
BRANCH  66  67
ATOM     67  O11 UNL     1       0.771   0.734   1.258  0.00  0.00    -0.393 OA
ATOM     68  H50 UNL     1       1.354   0.880   0.483  0.00  0.00    +0.209 HD
ENDBRANCH  66  67
ENDBRANCH  10  66
ENDBRANCH   6  10
ENDBRANCH   5   8
BRANCH   5  69
ATOM     69  C31 UNL     1      -3.049  -1.430  -0.094  0.00  0.00    +0.043 C 
BRANCH  69  70
ATOM     70  C32 UNL     1      -4.047  -2.351  -0.785  0.00  0.00    +0.123 C 
BRANCH  70  71
ATOM     71  C33 UNL     1      -5.234  -1.590  -1.319  0.00  0.00    +0.305 C 
ATOM     72  O13 UNL     1      -5.452  -0.386  -1.257  0.00  0.00    -0.251 OA
BRANCH  71  73
ATOM     73  O14 UNL     1      -6.131  -2.416  -1.898  0.00  0.00    -0.481 OA
ATOM     74  H57 UNL     1      -6.869  -1.848  -2.185  0.00  0.00    +0.295 HD
ENDBRANCH  71  73
ENDBRANCH  70  71
ENDBRANCH  69  70
ENDBRANCH   5  69
ENDBRANCH   1   5
BRANCH   3  75
ATOM     75  C35 UNL     1       0.015  -4.547  -1.796  0.00  0.00    +0.161 C 
BRANCH  75  76
ATOM     76  C36 UNL     1      -0.580  -4.458  -3.214  0.00  0.00    +0.234 C 
ATOM     77  O16 UNL     1      -1.231  -5.358  -3.743  0.00  0.00    -0.274 OA
ATOM     78  N10 UNL     1      -0.407  -3.233  -3.817  0.00  0.00    -0.302 N 
ATOM     79  H60 UNL     1      -0.062  -2.453  -3.253  0.00  0.00    +0.150 HD
BRANCH  78  80
ATOM     80  C37 UNL     1      -0.893  -2.908  -5.154  0.00  0.00    +0.168 C 
BRANCH  80  81
ATOM     81  C40 UNL     1      -0.250  -1.577  -5.615  0.00  0.00    +0.234 C 
ATOM     82  O18 UNL     1       0.531  -0.943  -4.904  0.00  0.00    -0.274 OA
ATOM     83  N12 UNL     1      -0.569  -1.175  -6.898  0.00  0.00    -0.307 N 
ATOM     84  H66 UNL     1      -1.068  -1.808  -7.510  0.00  0.00    +0.149 HD
BRANCH  83  85
ATOM     85  C41 UNL     1       0.119  -0.055  -7.558  0.00  0.00    +0.114 C 
BRANCH  85  86
ATOM     86  C42 UNL     1       1.491  -0.558  -8.074  0.00  0.00    +0.029 C 
BRANCH  86  87
ATOM     87  C43 UNL     1       2.435   0.512  -8.652  0.00  0.00    -0.015 C 
ATOM     88  C44 UNL     1       2.897   1.514  -7.592  0.00  0.00    +0.007 C 
ATOM     89  C45 UNL     1       3.654  -0.171  -9.283  0.00  0.00    +0.007 C 
ENDBRANCH  86  87
ENDBRANCH  85  86
BRANCH  85  90
ATOM     90  C46 UNL     1      -0.737   0.559  -8.716  0.00  0.00    +0.205 C 
BRANCH  90  91
ATOM     91  O29 UNL     1      -2.015  -0.120  -8.793  0.00  0.00    -0.459 OA
BRANCH  91  92
ATOM     92  C70 UNL     1      -2.669  -0.036  -9.988  0.00  0.00    +0.304 C 
ATOM     93  C71 UNL     1      -4.004  -0.708  -9.882  0.00  0.00    +0.136 C 
ATOM     94  O30 UNL     1      -2.237   0.497 -10.998  0.00  0.00    -0.251 OA
ENDBRANCH  91  92
ENDBRANCH  90  91
BRANCH  90  95
ATOM     95  C47 UNL     1      -0.929   2.079  -8.588  0.00  0.00    +0.142 C 
BRANCH  95  96
ATOM     96  C48 UNL     1      -1.939   2.462  -7.534  0.00  0.00    +0.217 C 
ATOM     97  O19 UNL     1      -3.146   2.491  -7.770  0.00  0.00    -0.276 OA
ATOM     98  N13 UNL     1      -1.412   2.734  -6.302  0.00  0.00    -0.303 N 
ATOM     99  H80 UNL     1      -0.407   2.691  -6.138  0.00  0.00    +0.149 HD
BRANCH  98 100
ATOM    100  C49 UNL     1      -2.224   3.010  -5.108  0.00  0.00    +0.169 C 
BRANCH 100 101
ATOM    101  C52 UNL     1      -1.193   3.373  -4.015  0.00  0.00    +0.234 C 
ATOM    102  O22 UNL     1      -0.004   3.074  -4.137  0.00  0.00    -0.274 OA
ATOM    103  N14 UNL     1      -1.698   4.008  -2.909  0.00  0.00    -0.303 N 
ATOM    104  H85 UNL     1      -2.713   4.115  -2.836  0.00  0.00    +0.149 HD
BRANCH 103 105
ATOM    105  C53 UNL     1      -0.923   4.223  -1.696  0.00  0.00    +0.156 C 
ATOM    106  C54 UNL     1      -0.433   2.902  -1.101  0.00  0.00    +0.038 C 
BRANCH 105 107
ATOM    107  C55 UNL     1       0.223   5.258  -1.854  0.00  0.00    +0.234 C 
ATOM    108  O23 UNL     1       0.433   5.909  -2.875  0.00  0.00    -0.274 OA
ATOM    109  N15 UNL     1       0.959   5.452  -0.690  0.00  0.00    -0.302 N 
ATOM    110  H90 UNL     1       0.455   5.273   0.169  0.00  0.00    +0.150 HD
BRANCH 109 111
ATOM    111  C56 UNL     1       1.987   6.493  -0.604  0.00  0.00    +0.159 C 
BRANCH 111 112
ATOM    112  C60 UNL     1       1.263   7.868  -0.579  0.00  0.00    +0.234 C 
ATOM    113  O26 UNL     1       0.127   7.983  -0.118  0.00  0.00    -0.274 OA
ATOM    114  N16 UNL     1       1.990   8.968  -0.968  0.00  0.00    -0.301 N 
ATOM    115  H97 UNL     1       2.907   8.864  -1.388  0.00  0.00    +0.150 HD
BRANCH 114 116
ATOM    116  C61 UNL     1       1.342  10.276  -1.147  0.00  0.00    +0.186 C 
BRANCH 116 117
ATOM    117  C69 UNL     1       2.236  11.086  -2.078  0.00  0.00    +0.326 C 
ATOM    118  O27 UNL     1       3.456  10.976  -2.161  0.00  0.00    -0.249 OA
BRANCH 117 119
ATOM    119  O28 UNL     1       1.569  11.953  -2.856  0.00  0.00    -0.479 OA
ATOM    120  HA6 UNL     1       2.256  12.396  -3.399  0.00  0.00    +0.295 HD
ENDBRANCH 117 119
ENDBRANCH 116 117
BRANCH 116 121
ATOM    121  C62 UNL     1       1.154  11.009   0.192  0.00  0.00    +0.069 C 
BRANCH 121 122
ATOM    122  C63 UNL     1       0.220  12.197   0.117  0.00  0.00    -0.045 A 
ATOM    123  C64 UNL     1       0.664  13.476   0.472  0.00  0.00    +0.004 A 
ATOM    124  C65 UNL     1      -0.201  14.572   0.401  0.00  0.00    +0.000 A 
ATOM    125  C66 UNL     1      -1.517  14.397  -0.019  0.00  0.00    +0.000 A 
ATOM    126  C67 UNL     1      -1.974  13.127  -0.358  0.00  0.00    +0.000 A 
ATOM    127  C68 UNL     1      -1.113  12.030  -0.281  0.00  0.00    +0.004 A 
ENDBRANCH 121 122
ENDBRANCH 116 121
ENDBRANCH 114 116
ENDBRANCH 111 112
BRANCH 111 128
ATOM    128  C57 UNL     1       3.110   6.300  -1.634  0.00  0.00    +0.043 C 
BRANCH 128 129
ATOM    129  C58 UNL     1       4.485   6.506  -0.996  0.00  0.00    +0.123 C 
BRANCH 129 130
ATOM    130  C59 UNL     1       5.598   6.267  -1.983  0.00  0.00    +0.305 C 
ATOM    131  O24 UNL     1       5.653   5.391  -2.828  0.00  0.00    -0.251 OA
BRANCH 130 132
ATOM    132  O25 UNL     1       6.621   7.130  -1.816  0.00  0.00    -0.481 OA
ATOM    133  H96 UNL     1       7.274   6.845  -2.492  0.00  0.00    +0.295 HD
ENDBRANCH 130 132
ENDBRANCH 129 130
ENDBRANCH 128 129
ENDBRANCH 111 128
ENDBRANCH 109 111
ENDBRANCH 105 107
ENDBRANCH 103 105
ENDBRANCH 100 101
BRANCH 100 134
ATOM    134  C50 UNL     1      -3.018   1.769  -4.706  0.00  0.00    +0.152 C 
BRANCH 134 135
ATOM    135  C51 UNL     1      -4.072   2.035  -3.669  0.00  0.00    +0.307 C 
ATOM    136  O20 UNL     1      -4.223   3.055  -3.019  0.00  0.00    -0.251 OA
BRANCH 135 137
ATOM    137  O21 UNL     1      -4.855   0.949  -3.479  0.00  0.00    -0.481 OA
ATOM    138  H84 UNL     1      -5.278   1.051  -2.591  0.00  0.00    +0.295 HD
ENDBRANCH 135 137
ENDBRANCH 134 135
ENDBRANCH 100 134
ENDBRANCH  98 100
ENDBRANCH  95  96
ENDBRANCH  90  95
ENDBRANCH  85  90
ENDBRANCH  83  85
ENDBRANCH  80  81
BRANCH  80 139
ATOM    139  C38 UNL     1      -2.418  -2.901  -5.277  0.00  0.00    +0.127 C 
BRANCH 139 140
ATOM    140  C39 UNL     1      -3.065  -1.829  -4.441  0.00  0.00    +0.213 C 
ATOM    141  N11 UNL     1      -4.331  -1.496  -4.821  0.00  0.00    -0.329 N 
ATOM    142  O17 UNL     1      -2.556  -1.290  -3.464  0.00  0.00    -0.276 OA
ATOM    143  H64 UNL     1      -4.771  -0.720  -4.324  0.00  0.00    +0.145 HD
ATOM    144  H65 UNL     1      -4.788  -1.848  -5.651  0.00  0.00    +0.145 HD
ENDBRANCH 139 140
ENDBRANCH  80 139
ENDBRANCH  78  80
ENDBRANCH  75  76
BRANCH  75 145
ATOM    145  C72 UNL     1       0.460  -5.961  -1.347  0.00  0.00    +0.012 C 
ATOM    146  C73 UNL     1       1.506  -6.542  -2.307  0.00  0.00    +0.009 C 
ATOM    147  C74 UNL     1      -0.675  -6.964  -1.131  0.00  0.00    +0.009 C 
ENDBRANCH  75 145
ENDBRANCH   3  75
TORSDOF 70
