AutoDock-GPU version: v1.6

**********************************************************
**    AutoDock-GPU AUTODOCKTOOLS-COMPATIBLE DLG FILE    **
**********************************************************


    DOCKING PARAMETERS
    ________________________


Ligand file:                               ligands/ligand_15.pdbqt
Grid fld file:                             protein.maps.fld

Random seed:                               1770972230, 25992
Number of runs:                            20
Number of energy evaluations:              11915671
Number of generations:                     42000
Size of population:                        150
Rate of crossover:                         80.000000%
Tournament selection probability limit:    60.000000%
Rate of mutation:                          2.000000%
Maximal allowed delta movement:            +/- 6.000000A
Maximal allowed delta angle:               +/- 90.000000

Rate of local search:                      100.000000%
Maximal number of local search iterations: 300
Rho lower bound:                           0.010000
Spread of local search delta movement:     2.000000A
Spread of local search delta angle:        74.999999
Limit of consecutive successes/failures:   4

Handle symmetry during clustering:         YES
RMSD tolerance:                            2.000000A

Program call in command line was:          ./autodock-gpu --ffile protein.maps.fld --lfile ligands/ligand_15.pdbqt --nrun 20 


    GRID PARAMETERS
    ________________________


Receptor name:                             #MACROMOLECULE
Number of grid points (x, y, z):           61, 61, 61
Grid center (x, y, z):                     10.261000, -3.492000, -0.127000A
Grid size (x, y, z):                       22.500000, 22.500000, 22.500000A
Grid spacing:                              0.375000A


    LIGAND PARAMETERS
    ________________________


Ligand name:                               ligands/ligand_15
Number of atoms:                           83
Number of rotatable bonds:                 36
Number of atom types:                      6


    DUMMY DATA (only for ADT-compatibility)
    ________________________


DPF> outlev 1
DPF> ga_run 20
DPF> fld protein.maps.fld
DPF> move ligands/ligand_15.pdbqt


    COUNTER STATES
    ________________________


Number of energy evaluations performed:    11926190
Number of generations used:                697


    INPUT LIGAND PDBQT FILE:
    ________________________


INPUT-LIGAND-PDBQT: REMARK  Name = ligands/ligand_15.pdb
INPUT-LIGAND-PDBQT: REMARK  43 active torsions:
INPUT-LIGAND-PDBQT: REMARK  status: ('A' for Active; 'I' for Inactive)
INPUT-LIGAND-PDBQT: REMARK    1  A    between atoms: C1_1  and  C2_2
INPUT-LIGAND-PDBQT: REMARK    2  A    between atoms: C2_2  and  C3_3
INPUT-LIGAND-PDBQT: REMARK    3  A    between atoms: C2_2  and  C4_4
INPUT-LIGAND-PDBQT: REMARK    4  A    between atoms: C4_4  and  C5_5
INPUT-LIGAND-PDBQT: REMARK    5  A    between atoms: C5_5  and  N1_6
INPUT-LIGAND-PDBQT: REMARK    6  A    between atoms: C5_5  and  C20_31
INPUT-LIGAND-PDBQT: REMARK    7  A    between atoms: C6_7  and  C7_9
INPUT-LIGAND-PDBQT: REMARK    8  A    between atoms: C7_9  and  C8_10
INPUT-LIGAND-PDBQT: REMARK    9  A    between atoms: C7_9  and  N3_14
INPUT-LIGAND-PDBQT: REMARK   10  A    between atoms: C8_10  and  C9_11
INPUT-LIGAND-PDBQT: REMARK   11  A    between atoms: C10_15  and  C11_17
INPUT-LIGAND-PDBQT: REMARK   12  A    between atoms: C11_17  and  N4_18
INPUT-LIGAND-PDBQT: REMARK   13  A    between atoms: C11_17  and  C17_28
INPUT-LIGAND-PDBQT: REMARK   14  A    between atoms: C12_19  and  C13_21
INPUT-LIGAND-PDBQT: REMARK   15  A    between atoms: C13_21  and  N5_22
INPUT-LIGAND-PDBQT: REMARK   16  A    between atoms: C13_21  and  C14_23
INPUT-LIGAND-PDBQT: REMARK   17  A    between atoms: C14_23  and  C15_24
INPUT-LIGAND-PDBQT: REMARK   18  A    between atoms: C15_24  and  C16_25
INPUT-LIGAND-PDBQT: REMARK   19  A    between atoms: C16_25  and  O6_27
INPUT-LIGAND-PDBQT: REMARK   20  A    between atoms: C17_28  and  C18_29
INPUT-LIGAND-PDBQT: REMARK   21  A    between atoms: C17_28  and  C19_30
INPUT-LIGAND-PDBQT: REMARK   22  A    between atoms: C20_31  and  O7_32
INPUT-LIGAND-PDBQT: REMARK   23  A    between atoms: C20_31  and  C21_33
INPUT-LIGAND-PDBQT: REMARK   24  A    between atoms: C21_33  and  C22_34
INPUT-LIGAND-PDBQT: REMARK   25  A    between atoms: N6_36  and  C23_37
INPUT-LIGAND-PDBQT: REMARK   26  A    between atoms: C23_37  and  C24_38
INPUT-LIGAND-PDBQT: REMARK   27  A    between atoms: C23_37  and  C42_66
INPUT-LIGAND-PDBQT: REMARK   28  A    between atoms: N7_40  and  C25_41
INPUT-LIGAND-PDBQT: REMARK   29  A    between atoms: C25_41  and  C26_42
INPUT-LIGAND-PDBQT: REMARK   30  A    between atoms: C25_41  and  C27_43
INPUT-LIGAND-PDBQT: REMARK   31  A    between atoms: N8_45  and  C28_46
INPUT-LIGAND-PDBQT: REMARK   32  A    between atoms: C28_46  and  C29_47
INPUT-LIGAND-PDBQT: REMARK   33  A    between atoms: C28_46  and  C32_52
INPUT-LIGAND-PDBQT: REMARK   34  A    between atoms: C29_47  and  C30_48
INPUT-LIGAND-PDBQT: REMARK   35  A    between atoms: C30_48  and  C31_49
INPUT-LIGAND-PDBQT: REMARK   36  A    between atoms: C31_49  and  O12_51
INPUT-LIGAND-PDBQT: REMARK   37  A    between atoms: N9_54  and  C33_55
INPUT-LIGAND-PDBQT: REMARK   38  A    between atoms: C33_55  and  C34_56
INPUT-LIGAND-PDBQT: REMARK   39  A    between atoms: C33_55  and  C41_63
INPUT-LIGAND-PDBQT: REMARK   40  A    between atoms: C34_56  and  C35_57
INPUT-LIGAND-PDBQT: REMARK   41  A    between atoms: C41_63  and  O15_65
INPUT-LIGAND-PDBQT: REMARK   42  A    between atoms: C42_66  and  C43_67
INPUT-LIGAND-PDBQT: REMARK   43  A    between atoms: C42_66  and  C44_68
INPUT-LIGAND-PDBQT: REMARK                            x       y       z     vdW  Elec       q    Type
INPUT-LIGAND-PDBQT: REMARK                         _______ _______ _______ _____ _____    ______ ____
INPUT-LIGAND-PDBQT: ROOT
INPUT-LIGAND-PDBQT: ATOM      1  C21 UNL     1       2.226  -0.705   2.279  0.00  0.00    +0.129 C 
INPUT-LIGAND-PDBQT: ENDROOT
INPUT-LIGAND-PDBQT: BRANCH   1   2
INPUT-LIGAND-PDBQT: ATOM      2  C22 UNL     1       1.162  -1.582   2.898  0.00  0.00    +0.216 C 
INPUT-LIGAND-PDBQT: ATOM      3  O8  UNL     1       1.405  -2.424   3.760  0.00  0.00    -0.276 OA
INPUT-LIGAND-PDBQT: ATOM      4  N6  UNL     1      -0.092  -1.323   2.412  0.00  0.00    -0.304 N 
INPUT-LIGAND-PDBQT: ATOM      5  H39 UNL     1      -0.209  -0.646   1.658  0.00  0.00    +0.149 HD
INPUT-LIGAND-PDBQT: BRANCH   4   6
INPUT-LIGAND-PDBQT: ATOM      6  C23 UNL     1      -1.263  -2.161   2.680  0.00  0.00    +0.161 C 
INPUT-LIGAND-PDBQT: BRANCH   6   7
INPUT-LIGAND-PDBQT: ATOM      7  C24 UNL     1      -2.097  -2.088   1.382  0.00  0.00    +0.234 C 
INPUT-LIGAND-PDBQT: ATOM      8  O9  UNL     1      -1.900  -1.203   0.544  0.00  0.00    -0.274 OA
INPUT-LIGAND-PDBQT: ATOM      9  N7  UNL     1      -3.053  -3.056   1.209  0.00  0.00    -0.303 N 
INPUT-LIGAND-PDBQT: ATOM     10  H41 UNL     1      -3.275  -3.700   1.960  0.00  0.00    +0.149 HD
INPUT-LIGAND-PDBQT: BRANCH   9  11
INPUT-LIGAND-PDBQT: ATOM     11  C25 UNL     1      -3.988  -3.019   0.090  0.00  0.00    +0.156 C 
INPUT-LIGAND-PDBQT: ATOM     12  C26 UNL     1      -3.638  -4.082  -0.943  0.00  0.00    +0.038 C 
INPUT-LIGAND-PDBQT: BRANCH  11  13
INPUT-LIGAND-PDBQT: ATOM     13  C27 UNL     1      -5.411  -3.231   0.630  0.00  0.00    +0.234 C 
INPUT-LIGAND-PDBQT: ATOM     14  O10 UNL     1      -5.630  -3.730   1.735  0.00  0.00    -0.274 OA
INPUT-LIGAND-PDBQT: ATOM     15  N8  UNL     1      -6.410  -2.840  -0.229  0.00  0.00    -0.302 N 
INPUT-LIGAND-PDBQT: ATOM     16  H46 UNL     1      -6.189  -2.455  -1.144  0.00  0.00    +0.150 HD
INPUT-LIGAND-PDBQT: BRANCH  15  17
INPUT-LIGAND-PDBQT: ATOM     17  C28 UNL     1      -7.831  -2.949   0.103  0.00  0.00    +0.159 C 
INPUT-LIGAND-PDBQT: BRANCH  17  18
INPUT-LIGAND-PDBQT: ATOM     18  C32 UNL     1      -8.583  -2.913  -1.242  0.00  0.00    +0.234 C 
INPUT-LIGAND-PDBQT: ATOM     19  O13 UNL     1      -8.050  -2.480  -2.268  0.00  0.00    -0.274 OA
INPUT-LIGAND-PDBQT: ATOM     20  N9  UNL     1      -9.877  -3.373  -1.215  0.00  0.00    -0.301 N 
INPUT-LIGAND-PDBQT: ATOM     21  H53 UNL     1     -10.222  -3.865  -0.388  0.00  0.00    +0.150 HD
INPUT-LIGAND-PDBQT: BRANCH  20  22
INPUT-LIGAND-PDBQT: ATOM     22  C33 UNL     1     -10.686  -3.463  -2.438  0.00  0.00    +0.186 C 
INPUT-LIGAND-PDBQT: BRANCH  22  23
INPUT-LIGAND-PDBQT: ATOM     23  C41 UNL     1     -12.151  -3.339  -2.035  0.00  0.00    +0.326 C 
INPUT-LIGAND-PDBQT: ATOM     24  O14 UNL     1     -12.631  -3.649  -0.953  0.00  0.00    -0.249 OA
INPUT-LIGAND-PDBQT: BRANCH  23  25
INPUT-LIGAND-PDBQT: ATOM     25  O15 UNL     1     -12.939  -2.837  -3.005  0.00  0.00    -0.479 OA
INPUT-LIGAND-PDBQT: ATOM     26  H62 UNL     1     -13.838  -2.809  -2.614  0.00  0.00    +0.295 HD
INPUT-LIGAND-PDBQT: ENDBRANCH  23  25
INPUT-LIGAND-PDBQT: ENDBRANCH  22  23
INPUT-LIGAND-PDBQT: BRANCH  22  27
INPUT-LIGAND-PDBQT: ATOM     27  C34 UNL     1     -10.437  -4.798  -3.153  0.00  0.00    +0.069 C 
INPUT-LIGAND-PDBQT: BRANCH  27  28
INPUT-LIGAND-PDBQT: ATOM     28  C35 UNL     1     -10.717  -4.748  -4.636  0.00  0.00    -0.045 A 
INPUT-LIGAND-PDBQT: ATOM     29  C36 UNL     1      -9.816  -4.104  -5.497  0.00  0.00    +0.004 A 
INPUT-LIGAND-PDBQT: ATOM     30  C37 UNL     1     -10.055  -4.062  -6.870  0.00  0.00    +0.000 A 
INPUT-LIGAND-PDBQT: ATOM     31  C38 UNL     1     -11.196  -4.662  -7.398  0.00  0.00    +0.000 A 
INPUT-LIGAND-PDBQT: ATOM     32  C39 UNL     1     -12.102  -5.299  -6.551  0.00  0.00    +0.000 A 
INPUT-LIGAND-PDBQT: ATOM     33  C40 UNL     1     -11.865  -5.341  -5.176  0.00  0.00    +0.004 A 
INPUT-LIGAND-PDBQT: ENDBRANCH  27  28
INPUT-LIGAND-PDBQT: ENDBRANCH  22  27
INPUT-LIGAND-PDBQT: ENDBRANCH  20  22
INPUT-LIGAND-PDBQT: ENDBRANCH  17  18
INPUT-LIGAND-PDBQT: BRANCH  17  34
INPUT-LIGAND-PDBQT: ATOM     34  C29 UNL     1      -8.242  -1.801   1.044  0.00  0.00    +0.043 C 
INPUT-LIGAND-PDBQT: BRANCH  34  35
INPUT-LIGAND-PDBQT: ATOM     35  C30 UNL     1      -9.674  -1.839   1.573  0.00  0.00    +0.123 C 
INPUT-LIGAND-PDBQT: BRANCH  35  36
INPUT-LIGAND-PDBQT: ATOM     36  C31 UNL     1     -10.001  -3.163   2.201  0.00  0.00    +0.305 C 
INPUT-LIGAND-PDBQT: ATOM     37  O11 UNL     1     -10.251  -4.182   1.573  0.00  0.00    -0.251 OA
INPUT-LIGAND-PDBQT: BRANCH  36  38
INPUT-LIGAND-PDBQT: ATOM     38  O12 UNL     1      -9.933  -3.150   3.541  0.00  0.00    -0.481 OA
INPUT-LIGAND-PDBQT: ATOM     39  H52 UNL     1     -10.121  -4.072   3.818  0.00  0.00    +0.295 HD
INPUT-LIGAND-PDBQT: ENDBRANCH  36  38
INPUT-LIGAND-PDBQT: ENDBRANCH  35  36
INPUT-LIGAND-PDBQT: ENDBRANCH  34  35
INPUT-LIGAND-PDBQT: ENDBRANCH  17  34
INPUT-LIGAND-PDBQT: ENDBRANCH  15  17
INPUT-LIGAND-PDBQT: ENDBRANCH  11  13
INPUT-LIGAND-PDBQT: ENDBRANCH   9  11
INPUT-LIGAND-PDBQT: ENDBRANCH   6   7
INPUT-LIGAND-PDBQT: BRANCH   6  40
INPUT-LIGAND-PDBQT: ATOM     40  C42 UNL     1      -1.997  -1.690   3.955  0.00  0.00    +0.012 C 
INPUT-LIGAND-PDBQT: ATOM     41  C43 UNL     1      -2.967  -2.743   4.500  0.00  0.00    +0.009 C 
INPUT-LIGAND-PDBQT: ATOM     42  C44 UNL     1      -2.726  -0.357   3.768  0.00  0.00    +0.009 C 
INPUT-LIGAND-PDBQT: ENDBRANCH   6  40
INPUT-LIGAND-PDBQT: ENDBRANCH   4   6
INPUT-LIGAND-PDBQT: ENDBRANCH   1   2
INPUT-LIGAND-PDBQT: BRANCH   1  43
INPUT-LIGAND-PDBQT: ATOM     43  C20 UNL     1       3.608  -1.365   2.363  0.00  0.00    +0.143 C 
INPUT-LIGAND-PDBQT: BRANCH  43  44
INPUT-LIGAND-PDBQT: ATOM     44  O7  UNL     1       4.155  -1.176   3.683  0.00  0.00    -0.389 OA
INPUT-LIGAND-PDBQT: ATOM     45  H36 UNL     1       3.521  -1.621   4.284  0.00  0.00    +0.210 HD
INPUT-LIGAND-PDBQT: ENDBRANCH  43  44
INPUT-LIGAND-PDBQT: BRANCH  43  46
INPUT-LIGAND-PDBQT: ATOM     46  C5  UNL     1       4.548  -0.782   1.260  0.00  0.00    +0.102 C 
INPUT-LIGAND-PDBQT: BRANCH  46  47
INPUT-LIGAND-PDBQT: ATOM     47  N1  UNL     1       5.794  -0.266   1.802  0.00  0.00    -0.308 N 
INPUT-LIGAND-PDBQT: ATOM     48  C6  UNL     1       5.936   1.074   2.097  0.00  0.00    +0.234 C 
INPUT-LIGAND-PDBQT: ATOM     49  O1  UNL     1       5.033   1.896   1.935  0.00  0.00    -0.274 OA
INPUT-LIGAND-PDBQT: ATOM     50  H11 UNL     1       6.425  -0.927   2.229  0.00  0.00    +0.149 HD
INPUT-LIGAND-PDBQT: BRANCH  48  51
INPUT-LIGAND-PDBQT: ATOM     51  C7  UNL     1       7.331   1.456   2.631  0.00  0.00    +0.168 C 
INPUT-LIGAND-PDBQT: BRANCH  51  52
INPUT-LIGAND-PDBQT: ATOM     52  N3  UNL     1       7.599   2.857   2.316  0.00  0.00    -0.302 N 
INPUT-LIGAND-PDBQT: ATOM     53  C10 UNL     1       7.853   3.211   1.005  0.00  0.00    +0.234 C 
INPUT-LIGAND-PDBQT: ATOM     54  O3  UNL     1       8.133   2.376   0.142  0.00  0.00    -0.274 OA
INPUT-LIGAND-PDBQT: ATOM     55  H17 UNL     1       7.082   3.521   2.893  0.00  0.00    +0.150 HD
INPUT-LIGAND-PDBQT: BRANCH  53  56
INPUT-LIGAND-PDBQT: ATOM     56  C11 UNL     1       7.761   4.724   0.680  0.00  0.00    +0.161 C 
INPUT-LIGAND-PDBQT: BRANCH  56  57
INPUT-LIGAND-PDBQT: ATOM     57  N4  UNL     1       8.107   4.869  -0.739  0.00  0.00    -0.302 N 
INPUT-LIGAND-PDBQT: ATOM     58  C12 UNL     1       9.342   5.321  -1.152  0.00  0.00    +0.230 C 
INPUT-LIGAND-PDBQT: ATOM     59  O4  UNL     1      10.168   5.822  -0.394  0.00  0.00    -0.274 OA
INPUT-LIGAND-PDBQT: ATOM     60  H19 UNL     1       7.688   4.162  -1.331  0.00  0.00    +0.150 HD
INPUT-LIGAND-PDBQT: BRANCH  58  61
INPUT-LIGAND-PDBQT: ATOM     61  C13 UNL     1       9.617   5.123  -2.661  0.00  0.00    +0.138 C 
INPUT-LIGAND-PDBQT: BRANCH  61  62
INPUT-LIGAND-PDBQT: ATOM     62  N5  UNL     1       9.792   3.688  -2.943  0.00  0.00    -0.320 NA
INPUT-LIGAND-PDBQT: ATOM     63  H21 UNL     1      10.482   3.312  -2.289  0.00  0.00    +0.119 HD
INPUT-LIGAND-PDBQT: ATOM     64  H22 UNL     1       8.931   3.173  -2.749  0.00  0.00    +0.119 HD
INPUT-LIGAND-PDBQT: ENDBRANCH  61  62
INPUT-LIGAND-PDBQT: BRANCH  61  65
INPUT-LIGAND-PDBQT: ATOM     65  C14 UNL     1       8.507   5.755  -3.520  0.00  0.00    +0.039 C 
INPUT-LIGAND-PDBQT: BRANCH  65  66
INPUT-LIGAND-PDBQT: ATOM     66  C15 UNL     1       8.772   5.663  -5.023  0.00  0.00    +0.122 C 
INPUT-LIGAND-PDBQT: BRANCH  66  67
INPUT-LIGAND-PDBQT: ATOM     67  C16 UNL     1       8.429   4.308  -5.580  0.00  0.00    +0.305 C 
INPUT-LIGAND-PDBQT: ATOM     68  O5  UNL     1       7.528   3.569  -5.216  0.00  0.00    -0.251 OA
INPUT-LIGAND-PDBQT: BRANCH  67  69
INPUT-LIGAND-PDBQT: ATOM     69  O6  UNL     1       9.203   3.976  -6.634  0.00  0.00    -0.481 OA
INPUT-LIGAND-PDBQT: ATOM     70  H27 UNL     1       8.888   3.082  -6.879  0.00  0.00    +0.295 HD
INPUT-LIGAND-PDBQT: ENDBRANCH  67  69
INPUT-LIGAND-PDBQT: ENDBRANCH  66  67
INPUT-LIGAND-PDBQT: ENDBRANCH  65  66
INPUT-LIGAND-PDBQT: ENDBRANCH  61  65
INPUT-LIGAND-PDBQT: ENDBRANCH  58  61
INPUT-LIGAND-PDBQT: ENDBRANCH  56  57
INPUT-LIGAND-PDBQT: BRANCH  56  71
INPUT-LIGAND-PDBQT: ATOM     71  C17 UNL     1       6.367   5.327   0.965  0.00  0.00    +0.012 C 
INPUT-LIGAND-PDBQT: ATOM     72  C18 UNL     1       5.273   4.789   0.036  0.00  0.00    +0.009 C 
INPUT-LIGAND-PDBQT: ATOM     73  C19 UNL     1       6.414   6.857   0.873  0.00  0.00    +0.009 C 
INPUT-LIGAND-PDBQT: ENDBRANCH  56  71
INPUT-LIGAND-PDBQT: ENDBRANCH  53  56
INPUT-LIGAND-PDBQT: ENDBRANCH  51  52
INPUT-LIGAND-PDBQT: BRANCH  51  74
INPUT-LIGAND-PDBQT: ATOM     74  C8  UNL     1       7.425   1.128   4.120  0.00  0.00    +0.127 C 
INPUT-LIGAND-PDBQT: BRANCH  74  75
INPUT-LIGAND-PDBQT: ATOM     75  C9  UNL     1       6.501   1.989   4.955  0.00  0.00    +0.213 C 
INPUT-LIGAND-PDBQT: ATOM     76  N2  UNL     1       5.983   1.383   6.064  0.00  0.00    -0.329 N 
INPUT-LIGAND-PDBQT: ATOM     77  O2  UNL     1       6.288   3.176   4.730  0.00  0.00    -0.276 OA
INPUT-LIGAND-PDBQT: ATOM     78  H15 UNL     1       5.896   0.370   6.115  0.00  0.00    +0.145 HD
INPUT-LIGAND-PDBQT: ATOM     79  H16 UNL     1       5.288   1.919   6.565  0.00  0.00    +0.145 HD
INPUT-LIGAND-PDBQT: ENDBRANCH  74  75
INPUT-LIGAND-PDBQT: ENDBRANCH  51  74
INPUT-LIGAND-PDBQT: ENDBRANCH  48  51
INPUT-LIGAND-PDBQT: ENDBRANCH  46  47
INPUT-LIGAND-PDBQT: BRANCH  46  80
INPUT-LIGAND-PDBQT: ATOM     80  C4  UNL     1       4.831  -1.837   0.176  0.00  0.00    +0.028 C 
INPUT-LIGAND-PDBQT: BRANCH  80  82
INPUT-LIGAND-PDBQT: ATOM     81  C1  UNL     1       5.978  -2.496  -1.962  0.00  0.00    +0.007 C 
INPUT-LIGAND-PDBQT: ATOM     82  C2  UNL     1       5.693  -1.337  -1.005  0.00  0.00    -0.015 C 
INPUT-LIGAND-PDBQT: ATOM     83  C3  UNL     1       5.035  -0.189  -1.771  0.00  0.00    +0.007 C 
INPUT-LIGAND-PDBQT: ENDBRANCH  80  82
INPUT-LIGAND-PDBQT: ENDBRANCH  46  80
INPUT-LIGAND-PDBQT: ENDBRANCH  43  46
INPUT-LIGAND-PDBQT: ENDBRANCH   1  43
INPUT-LIGAND-PDBQT: TORSDOF 36


    FINAL DOCKED STATE:
    ________________________


Run:   1 / 20
Time taken for this run:   7.704s

DOCKED: MODEL        1
DOCKED: USER    Run = 1
DOCKED: USER
DOCKED: USER    Estimated Free Energy of Binding    = +10.74 kcal/mol  [=(1)+(2)+(3)-(4)]
DOCKED: USER
DOCKED: USER    (1) Final Intermolecular Energy     =  +0.00 kcal/mol
DOCKED: USER        vdW + Hbond + desolv Energy     =  +0.00 kcal/mol
DOCKED: USER        Electrostatic Energy            =  +0.00 kcal/mol
DOCKED: USER        Moving Ligand-Fixed Receptor    =  +0.00 kcal/mol
DOCKED: USER        Moving Ligand-Moving Receptor   =  +0.00 kcal/mol
DOCKED: USER    (2) Final Total Internal Energy     = -29.15 kcal/mol
DOCKED: USER    (3) Torsional Free Energy           = +10.74 kcal/mol
DOCKED: USER    (4) Unbound System's Energy         = -29.15 kcal/mol
DOCKED: USER
DOCKED: USER
DOCKED: REMARK  Name = ligands/ligand_15.pdb
DOCKED: REMARK  43 active torsions:
DOCKED: REMARK  status: ('A' for Active; 'I' for Inactive)
DOCKED: REMARK    1  A    between atoms: C1_1  and  C2_2
DOCKED: REMARK    2  A    between atoms: C2_2  and  C3_3
DOCKED: REMARK    3  A    between atoms: C2_2  and  C4_4
DOCKED: REMARK    4  A    between atoms: C4_4  and  C5_5
DOCKED: REMARK    5  A    between atoms: C5_5  and  N1_6
DOCKED: REMARK    6  A    between atoms: C5_5  and  C20_31
DOCKED: REMARK    7  A    between atoms: C6_7  and  C7_9
DOCKED: REMARK    8  A    between atoms: C7_9  and  C8_10
DOCKED: REMARK    9  A    between atoms: C7_9  and  N3_14
DOCKED: REMARK   10  A    between atoms: C8_10  and  C9_11
DOCKED: REMARK   11  A    between atoms: C10_15  and  C11_17
DOCKED: REMARK   12  A    between atoms: C11_17  and  N4_18
DOCKED: REMARK   13  A    between atoms: C11_17  and  C17_28
DOCKED: REMARK   14  A    between atoms: C12_19  and  C13_21
DOCKED: REMARK   15  A    between atoms: C13_21  and  N5_22
DOCKED: REMARK   16  A    between atoms: C13_21  and  C14_23
DOCKED: REMARK   17  A    between atoms: C14_23  and  C15_24
DOCKED: REMARK   18  A    between atoms: C15_24  and  C16_25
DOCKED: REMARK   19  A    between atoms: C16_25  and  O6_27
DOCKED: REMARK   20  A    between atoms: C17_28  and  C18_29
DOCKED: REMARK   21  A    between atoms: C17_28  and  C19_30
DOCKED: REMARK   22  A    between atoms: C20_31  and  O7_32
DOCKED: REMARK   23  A    between atoms: C20_31  and  C21_33
DOCKED: REMARK   24  A    between atoms: C21_33  and  C22_34
DOCKED: REMARK   25  A    between atoms: N6_36  and  C23_37
DOCKED: REMARK   26  A    between atoms: C23_37  and  C24_38
DOCKED: REMARK   27  A    between atoms: C23_37  and  C42_66
DOCKED: REMARK   28  A    between atoms: N7_40  and  C25_41
DOCKED: REMARK   29  A    between atoms: C25_41  and  C26_42
DOCKED: REMARK   30  A    between atoms: C25_41  and  C27_43
DOCKED: REMARK   31  A    between atoms: N8_45  and  C28_46
DOCKED: REMARK   32  A    between atoms: C28_46  and  C29_47
DOCKED: REMARK   33  A    between atoms: C28_46  and  C32_52
DOCKED: REMARK   34  A    between atoms: C29_47  and  C30_48
DOCKED: REMARK   35  A    between atoms: C30_48  and  C31_49
DOCKED: REMARK   36  A    between atoms: C31_49  and  O12_51
DOCKED: REMARK   37  A    between atoms: N9_54  and  C33_55
DOCKED: REMARK   38  A    between atoms: C33_55  and  C34_56
DOCKED: REMARK   39  A    between atoms: C33_55  and  C41_63
DOCKED: REMARK   40  A    between atoms: C34_56  and  C35_57
DOCKED: REMARK   41  A    between atoms: C41_63  and  O15_65
DOCKED: REMARK   42  A    between atoms: C42_66  and  C43_67
DOCKED: REMARK   43  A    between atoms: C42_66  and  C44_68
DOCKED: REMARK                            x       y       z     vdW  Elec       q    Type
DOCKED: REMARK                         _______ _______ _______ _____ _____    ______ ____
DOCKED: USER                              x       y       z     vdW  Elec       q    Type
DOCKED: USER                           _______ _______ _______ _____ _____    ______ ____
DOCKED: ROOT
DOCKED: ATOM      1  C21 UNL     1       9.125  -4.870  -2.413 +0.00 +0.00    +0.129 C  
DOCKED: ENDROOT
DOCKED: BRANCH   1   2
DOCKED: ATOM      2  C22 UNL     1       9.582  -3.822  -3.402 +0.00 +0.00    +0.216 C  
DOCKED: ATOM      3  O8  UNL     1       9.646  -2.625  -3.130 +0.00 -0.00    -0.276 OA 
DOCKED: ATOM      4  N6  UNL     1       9.933  -4.352  -4.616 +0.00 -0.00    -0.304 N  
DOCKED: ATOM      5  H39 UNL     1       9.802  -5.349  -4.786 +0.00 +0.00    +0.149 HD 
DOCKED: BRANCH   4   6
DOCKED: ATOM      6  C23 UNL     1      10.207  -3.549  -5.810 +0.00 +0.00    +0.161 C  
DOCKED: BRANCH   6   7
DOCKED: ATOM      7  C24 UNL     1      11.748  -3.472  -5.880 +0.00 +0.00    +0.234 C  
DOCKED: ATOM      8  O9  UNL     1      12.381  -4.092  -6.740 +0.00 -0.00    -0.274 OA 
DOCKED: ATOM      9  N7  UNL     1      12.368  -2.678  -4.949 +0.00 -0.00    -0.303 N  
DOCKED: ATOM     10  H41 UNL     1      11.839  -2.274  -4.184 +0.00 +0.00    +0.149 HD 
DOCKED: BRANCH   9  11
DOCKED: ATOM     11  C25 UNL     1      13.821  -2.626  -4.831 +0.00 +0.00    +0.156 C  
DOCKED: ATOM     12  C26 UNL     1      14.261  -1.344  -4.136 +0.00 +0.00    +0.038 C  
DOCKED: BRANCH  11  13
DOCKED: ATOM     13  C27 UNL     1      14.297  -3.861  -4.051 +0.00 +0.00    +0.234 C  
DOCKED: ATOM     14  O10 UNL     1      15.462  -4.260  -4.093 +0.00 -0.00    -0.274 OA 
DOCKED: ATOM     15  N8  UNL     1      13.313  -4.490  -3.326 +0.00 -0.00    -0.302 N  
DOCKED: ATOM     16  H46 UNL     1      12.356  -4.145  -3.337 +0.00 +0.00    +0.150 HD 
DOCKED: BRANCH  15  17
DOCKED: ATOM     17  C28 UNL     1      13.565  -5.677  -2.508 +0.00 +0.00    +0.159 C  
DOCKED: BRANCH  17  18
DOCKED: ATOM     18  C32 UNL     1      14.554  -5.232  -1.412 +0.00 +0.00    +0.234 C  
DOCKED: ATOM     19  O13 UNL     1      15.603  -5.847  -1.201 +0.00 -0.00    -0.274 OA 
DOCKED: ATOM     20  N9  UNL     1      14.181  -4.128  -0.684 +0.00 -0.00    -0.301 N  
DOCKED: ATOM     21  H53 UNL     1      13.389  -3.561  -0.995 +0.00 +0.00    +0.150 HD 
DOCKED: BRANCH  20  22
DOCKED: ATOM     22  C33 UNL     1      15.061  -3.551   0.342 +0.00 +0.00    +0.186 C  
DOCKED: BRANCH  22  23
DOCKED: ATOM     23  C41 UNL     1      14.794  -4.289   1.649 +0.00 +0.00    +0.326 C  
DOCKED: ATOM     24  O14 UNL     1      14.582  -3.774   2.738 +0.00 -0.00    -0.249 OA 
DOCKED: BRANCH  23  25
DOCKED: ATOM     25  O15 UNL     1      14.809  -5.630   1.526 +0.00 -0.00    -0.479 OA 
DOCKED: ATOM     26  H62 UNL     1      15.372  -5.809   0.743 +0.00 +0.00    +0.295 HD 
DOCKED: ENDBRANCH  23  25
DOCKED: ENDBRANCH  22  23
DOCKED: BRANCH  22  27
DOCKED: ATOM     27  C34 UNL     1      14.786  -2.051   0.507 +0.00 +0.00    +0.069 C  
DOCKED: BRANCH  27  28
DOCKED: ATOM     28  C35 UNL     1      15.429  -1.200  -0.563 +0.00 -0.00    -0.045 A  
DOCKED: ATOM     29  C36 UNL     1      16.451  -1.734  -1.362 +0.00 +0.00    +0.004 A  
DOCKED: ATOM     30  C37 UNL     1      17.044  -0.965  -2.362 +0.00 +0.00    +0.000 A  
DOCKED: ATOM     31  C38 UNL     1      16.624   0.347  -2.574 +0.00 +0.00    +0.000 A  
DOCKED: ATOM     32  C39 UNL     1      15.614   0.890  -1.782 +0.00 +0.00    +0.000 A  
DOCKED: ATOM     33  C40 UNL     1      15.020   0.122  -0.779 +0.00 +0.00    +0.004 A  
DOCKED: ENDBRANCH  27  28
DOCKED: ENDBRANCH  22  27
DOCKED: ENDBRANCH  20  22
DOCKED: ENDBRANCH  17  18
DOCKED: BRANCH  17  34
DOCKED: ATOM     34  C29 UNL     1      14.123  -6.814  -3.385 +0.00 +0.00    +0.043 C  
DOCKED: BRANCH  34  35
DOCKED: ATOM     35  C30 UNL     1      13.115  -7.542  -4.270 +0.00 +0.00    +0.123 C  
DOCKED: BRANCH  35  36
DOCKED: ATOM     36  C31 UNL     1      11.825  -6.782  -4.388 +0.00 +0.00    +0.305 C  
DOCKED: ATOM     37  O11 UNL     1      11.151  -6.415  -3.437 +0.00 -0.00    -0.251 OA 
DOCKED: BRANCH  36  38
DOCKED: ATOM     38  O12 UNL     1      11.498  -6.477  -5.654 +0.00 -0.00    -0.481 OA 
DOCKED: ATOM     39  H52 UNL     1      12.234  -5.919  -5.983 +0.00 +0.00    +0.295 HD 
DOCKED: ENDBRANCH  36  38
DOCKED: ENDBRANCH  35  36
DOCKED: ENDBRANCH  34  35
DOCKED: ENDBRANCH  17  34
DOCKED: ENDBRANCH  15  17
DOCKED: ENDBRANCH  11  13
DOCKED: ENDBRANCH   9  11
DOCKED: ENDBRANCH   6   7
DOCKED: BRANCH   6  40
DOCKED: ATOM     40  C42 UNL     1       9.488  -2.185  -5.734 +0.00 +0.00    +0.012 C  
DOCKED: ATOM     41  C43 UNL     1       7.977  -2.300  -5.964 +0.00 +0.00    +0.009 C  
DOCKED: ATOM     42  C44 UNL     1      10.081  -1.141  -6.684 +0.00 +0.00    +0.009 C  
DOCKED: ENDBRANCH   6  40
DOCKED: ENDBRANCH   4   6
DOCKED: ENDBRANCH   1   2
DOCKED: BRANCH   1  43
DOCKED: ATOM     43  C20 UNL     1       9.317  -4.391  -0.969 +0.00 +0.00    +0.143 C  
DOCKED: BRANCH  43  44
DOCKED: ATOM     44  O7  UNL     1       8.364  -3.352  -0.672 +0.00 -0.00    -0.389 OA 
DOCKED: ATOM     45  H36 UNL     1       8.639  -2.592  -1.228 +0.00 +0.00    +0.210 HD 
DOCKED: ENDBRANCH  43  44
DOCKED: BRANCH  43  46
DOCKED: ATOM     46  C5  UNL     1      10.786  -3.905  -0.756 +0.00 +0.00    +0.102 C  
DOCKED: BRANCH  46  47
DOCKED: ATOM     47  N1  UNL     1      10.886  -2.459  -0.647 +0.00 -0.00    -0.308 N  
DOCKED: ATOM     48  C6  UNL     1      11.821  -1.757  -1.380 +0.00 +0.00    +0.234 C  
DOCKED: ATOM     49  O1  UNL     1      12.603  -2.298  -2.164 +0.00 -0.00    -0.274 OA 
DOCKED: ATOM     50  H11 UNL     1      10.091  -1.964  -0.274 +0.00 +0.00    +0.149 HD 
DOCKED: BRANCH  48  51
DOCKED: ATOM     51  C7  UNL     1      11.814  -0.238  -1.119 +0.00 +0.00    +0.168 C  
DOCKED: BRANCH  51  52
DOCKED: ATOM     52  N3  UNL     1      10.732   0.376  -1.885 +0.00 -0.00    -0.302 N  
DOCKED: ATOM     53  C10 UNL     1      10.714   0.223  -3.258 +0.00 +0.00    +0.234 C  
DOCKED: ATOM     54  O3  UNL     1      11.700  -0.166  -3.888 +0.00 -0.00    -0.274 OA 
DOCKED: ATOM     55  H17 UNL     1       9.834   0.393  -1.400 +0.00 +0.00    +0.150 HD 
DOCKED: BRANCH  53  56
DOCKED: ATOM     56  C11 UNL     1       9.377   0.567  -3.963 +0.00 +0.00    +0.161 C  
DOCKED: BRANCH  56  57
DOCKED: ATOM     57  N4  UNL     1       8.309  -0.018  -3.142 +0.00 -0.00    -0.302 N  
DOCKED: ATOM     58  C12 UNL     1       7.003  -0.089  -3.577 +0.00 +0.00    +0.230 C  
DOCKED: ATOM     59  O4  UNL     1       6.589   0.497  -4.574 +0.00 -0.00    -0.274 OA 
DOCKED: ATOM     60  H19 UNL     1       8.617  -0.800  -2.577 +0.00 +0.00    +0.150 HD 
DOCKED: BRANCH  58  61
DOCKED: ATOM     61  C13 UNL     1       6.096  -0.995  -2.712 +0.00 +0.00    +0.138 C  
DOCKED: BRANCH  61  62
DOCKED: ATOM     62  N5  UNL     1       6.887  -2.119  -2.184 +0.00 -0.00    -0.320 NA 
DOCKED: ATOM     63  H21 UNL     1       7.879  -1.903  -2.308 +0.00 +0.00    +0.119 HD 
DOCKED: ATOM     64  H22 UNL     1       6.757  -2.211  -1.174 +0.00 +0.00    +0.119 HD 
DOCKED: ENDBRANCH  61  62
DOCKED: BRANCH  61  65
DOCKED: ATOM     65  C14 UNL     1       5.405  -0.192  -1.595 +0.00 +0.00    +0.039 C  
DOCKED: BRANCH  65  66
DOCKED: ATOM     66  C15 UNL     1       6.144  -0.247  -0.258 +0.00 +0.00    +0.122 C  
DOCKED: BRANCH  66  67
DOCKED: ATOM     67  C16 UNL     1       7.591   0.144  -0.391 +0.00 +0.00    +0.305 C  
DOCKED: ATOM     68  O5  UNL     1       8.051   1.274  -0.391 +0.00 -0.00    -0.251 OA 
DOCKED: BRANCH  67  69
DOCKED: ATOM     69  O6  UNL     1       8.409  -0.928  -0.443 +0.00 -0.00    -0.481 OA 
DOCKED: ATOM     70  H27 UNL     1       7.810  -1.684  -0.273 +0.00 +0.00    +0.295 HD 
DOCKED: ENDBRANCH  67  69
DOCKED: ENDBRANCH  66  67
DOCKED: ENDBRANCH  65  66
DOCKED: ENDBRANCH  61  65
DOCKED: ENDBRANCH  58  61
DOCKED: ENDBRANCH  56  57
DOCKED: BRANCH  56  71
DOCKED: ATOM     71  C17 UNL     1       9.154   2.085  -4.145 +0.00 +0.00    +0.012 C  
DOCKED: ATOM     72  C18 UNL     1      10.304   2.782  -4.880 +0.00 +0.00    +0.009 C  
DOCKED: ATOM     73  C19 UNL     1       8.925   2.761  -2.788 +0.00 +0.00    +0.009 C  
DOCKED: ENDBRANCH  56  71
DOCKED: ENDBRANCH  53  56
DOCKED: ENDBRANCH  51  52
DOCKED: BRANCH  51  74
DOCKED: ATOM     74  C8  UNL     1      11.737   0.031   0.383 +0.00 +0.00    +0.127 C  
DOCKED: BRANCH  74  75
DOCKED: ATOM     75  C9  UNL     1      10.984   1.306   0.699 +0.00 +0.00    +0.213 C  
DOCKED: ATOM     76  N2  UNL     1       9.763   1.132   1.285 +0.00 -0.00    -0.329 N  
DOCKED: ATOM     77  O2  UNL     1      11.450   2.429   0.538 +0.00 -0.00    -0.276 OA 
DOCKED: ATOM     78  H15 UNL     1       9.241   0.267   1.162 +0.00 +0.00    +0.145 HD 
DOCKED: ATOM     79  H16 UNL     1       9.216   1.973   1.403 +0.00 +0.00    +0.145 HD 
DOCKED: ENDBRANCH  74  75
DOCKED: ENDBRANCH  51  74
DOCKED: ENDBRANCH  48  51
DOCKED: ENDBRANCH  46  47
DOCKED: BRANCH  46  80
DOCKED: ATOM     80  C4  UNL     1      11.408  -4.580   0.479 +0.00 +0.00    +0.028 C  
DOCKED: BRANCH  80  82
DOCKED: ATOM     81  C1  UNL     1      11.019  -5.122   2.903 +0.00 +0.00    +0.007 C  
DOCKED: ATOM     82  C2  UNL     1      10.912  -4.031   1.835 +0.00 -0.00    -0.015 C  
DOCKED: ATOM     83  C3  UNL     1      11.685  -2.792   2.288 +0.00 +0.00    +0.007 C  
DOCKED: ENDBRANCH  80  82
DOCKED: ENDBRANCH  46  80
DOCKED: ENDBRANCH  43  46
DOCKED: ENDBRANCH   1  43
DOCKED: TORSDOF 36
DOCKED: TER
DOCKED: ENDMDL
________________________________________________________________________________


    FINAL DOCKED STATE:
    ________________________


Run:   2 / 20
Time taken for this run:   7.704s

DOCKED: MODEL        2
DOCKED: USER    Run = 2
DOCKED: USER
DOCKED: USER    Estimated Free Energy of Binding    = +10.74 kcal/mol  [=(1)+(2)+(3)-(4)]
DOCKED: USER
DOCKED: USER    (1) Final Intermolecular Energy     =  +0.00 kcal/mol
DOCKED: USER        vdW + Hbond + desolv Energy     =  +0.00 kcal/mol
DOCKED: USER        Electrostatic Energy            =  +0.00 kcal/mol
DOCKED: USER        Moving Ligand-Fixed Receptor    =  +0.00 kcal/mol
DOCKED: USER        Moving Ligand-Moving Receptor   =  +0.00 kcal/mol
DOCKED: USER    (2) Final Total Internal Energy     = -32.81 kcal/mol
DOCKED: USER    (3) Torsional Free Energy           = +10.74 kcal/mol
DOCKED: USER    (4) Unbound System's Energy         = -32.81 kcal/mol
DOCKED: USER
DOCKED: USER
DOCKED: REMARK  Name = ligands/ligand_15.pdb
DOCKED: REMARK  43 active torsions:
DOCKED: REMARK  status: ('A' for Active; 'I' for Inactive)
DOCKED: REMARK    1  A    between atoms: C1_1  and  C2_2
DOCKED: REMARK    2  A    between atoms: C2_2  and  C3_3
DOCKED: REMARK    3  A    between atoms: C2_2  and  C4_4
DOCKED: REMARK    4  A    between atoms: C4_4  and  C5_5
DOCKED: REMARK    5  A    between atoms: C5_5  and  N1_6
DOCKED: REMARK    6  A    between atoms: C5_5  and  C20_31
DOCKED: REMARK    7  A    between atoms: C6_7  and  C7_9
DOCKED: REMARK    8  A    between atoms: C7_9  and  C8_10
DOCKED: REMARK    9  A    between atoms: C7_9  and  N3_14
DOCKED: REMARK   10  A    between atoms: C8_10  and  C9_11
DOCKED: REMARK   11  A    between atoms: C10_15  and  C11_17
DOCKED: REMARK   12  A    between atoms: C11_17  and  N4_18
DOCKED: REMARK   13  A    between atoms: C11_17  and  C17_28
DOCKED: REMARK   14  A    between atoms: C12_19  and  C13_21
DOCKED: REMARK   15  A    between atoms: C13_21  and  N5_22
DOCKED: REMARK   16  A    between atoms: C13_21  and  C14_23
DOCKED: REMARK   17  A    between atoms: C14_23  and  C15_24
DOCKED: REMARK   18  A    between atoms: C15_24  and  C16_25
DOCKED: REMARK   19  A    between atoms: C16_25  and  O6_27
DOCKED: REMARK   20  A    between atoms: C17_28  and  C18_29
DOCKED: REMARK   21  A    between atoms: C17_28  and  C19_30
DOCKED: REMARK   22  A    between atoms: C20_31  and  O7_32
DOCKED: REMARK   23  A    between atoms: C20_31  and  C21_33
DOCKED: REMARK   24  A    between atoms: C21_33  and  C22_34
DOCKED: REMARK   25  A    between atoms: N6_36  and  C23_37
DOCKED: REMARK   26  A    between atoms: C23_37  and  C24_38
DOCKED: REMARK   27  A    between atoms: C23_37  and  C42_66
DOCKED: REMARK   28  A    between atoms: N7_40  and  C25_41
DOCKED: REMARK   29  A    between atoms: C25_41  and  C26_42
DOCKED: REMARK   30  A    between atoms: C25_41  and  C27_43
DOCKED: REMARK   31  A    between atoms: N8_45  and  C28_46
DOCKED: REMARK   32  A    between atoms: C28_46  and  C29_47
DOCKED: REMARK   33  A    between atoms: C28_46  and  C32_52
DOCKED: REMARK   34  A    between atoms: C29_47  and  C30_48
DOCKED: REMARK   35  A    between atoms: C30_48  and  C31_49
DOCKED: REMARK   36  A    between atoms: C31_49  and  O12_51
DOCKED: REMARK   37  A    between atoms: N9_54  and  C33_55
DOCKED: REMARK   38  A    between atoms: C33_55  and  C34_56
DOCKED: REMARK   39  A    between atoms: C33_55  and  C41_63
DOCKED: REMARK   40  A    between atoms: C34_56  and  C35_57
DOCKED: REMARK   41  A    between atoms: C41_63  and  O15_65
DOCKED: REMARK   42  A    between atoms: C42_66  and  C43_67
DOCKED: REMARK   43  A    between atoms: C42_66  and  C44_68
DOCKED: REMARK                            x       y       z     vdW  Elec       q    Type
DOCKED: REMARK                         _______ _______ _______ _____ _____    ______ ____
DOCKED: USER                              x       y       z     vdW  Elec       q    Type
DOCKED: USER                           _______ _______ _______ _____ _____    ______ ____
DOCKED: ROOT
DOCKED: ATOM      1  C21 UNL     1       5.902  -3.736  -7.531 +0.00 +0.00    +0.129 C  
DOCKED: ENDROOT
DOCKED: BRANCH   1   2
DOCKED: ATOM      2  C22 UNL     1       5.003  -4.518  -6.602 +0.00 +0.00    +0.216 C  
DOCKED: ATOM      3  O8  UNL     1       3.892  -4.929  -6.931 +0.00 -0.00    -0.276 OA 
DOCKED: ATOM      4  N6  UNL     1       5.566  -4.734  -5.372 +0.00 -0.00    -0.304 N  
DOCKED: ATOM      5  H39 UNL     1       6.471  -4.316  -5.153 +0.00 +0.00    +0.149 HD 
DOCKED: BRANCH   4   6
DOCKED: ATOM      6  C23 UNL     1       4.838  -5.275  -4.222 +0.00 +0.00    +0.161 C  
DOCKED: BRANCH   6   7
DOCKED: ATOM      7  C24 UNL     1       5.242  -4.362  -3.043 +0.00 +0.00    +0.234 C  
DOCKED: ATOM      8  O9  UNL     1       6.103  -3.487  -3.178 +0.00 -0.00    -0.274 OA 
DOCKED: ATOM      9  N7  UNL     1       4.593  -4.568  -1.853 +0.00 -0.00    -0.303 N  
DOCKED: ATOM     10  H41 UNL     1       3.977  -5.365  -1.735 +0.00 +0.00    +0.149 HD 
DOCKED: BRANCH   9  11
DOCKED: ATOM     11  C25 UNL     1       4.976  -3.860  -0.637 +0.00 +0.00    +0.156 C  
DOCKED: ATOM     12  C26 UNL     1       4.104  -4.287   0.536 +0.00 +0.00    +0.038 C  
DOCKED: BRANCH  11  13
DOCKED: ATOM     13  C27 UNL     1       6.458  -4.145  -0.347 +0.00 +0.00    +0.234 C  
DOCKED: ATOM     14  O10 UNL     1       6.820  -5.017   0.445 +0.00 -0.00    -0.274 OA 
DOCKED: ATOM     15  N8  UNL     1       7.337  -3.334  -1.025 +0.00 -0.00    -0.302 N  
DOCKED: ATOM     16  H46 UNL     1       6.998  -2.608  -1.652 +0.00 +0.00    +0.150 HD 
DOCKED: BRANCH  15  17
DOCKED: ATOM     17  C28 UNL     1       8.789  -3.454  -0.895 +0.00 +0.00    +0.159 C  
DOCKED: BRANCH  17  18
DOCKED: ATOM     18  C32 UNL     1       9.372  -2.134  -1.439 +0.00 +0.00    +0.234 C  
DOCKED: ATOM     19  O13 UNL     1      10.421  -1.660  -0.994 +0.00 -0.00    -0.274 OA 
DOCKED: ATOM     20  N9  UNL     1       8.641  -1.522  -2.428 +0.00 -0.00    -0.301 N  
DOCKED: ATOM     21  H53 UNL     1       7.870  -2.025  -2.873 +0.00 +0.00    +0.150 HD 
DOCKED: BRANCH  20  22
DOCKED: ATOM     22  C33 UNL     1       9.115  -0.298  -3.088 +0.00 +0.00    +0.186 C  
DOCKED: BRANCH  22  23
DOCKED: ATOM     23  C41 UNL     1       8.102   0.071  -4.165 +0.00 +0.00    +0.326 C  
DOCKED: ATOM     24  O14 UNL     1       7.758   1.203  -4.476 +0.00 -0.00    -0.249 OA 
DOCKED: BRANCH  23  25
DOCKED: ATOM     25  O15 UNL     1       7.570  -0.994  -4.795 +0.00 -0.00    -0.479 OA 
DOCKED: ATOM     26  H62 UNL     1       7.166  -1.536  -4.084 +0.00 +0.00    +0.295 HD 
DOCKED: ENDBRANCH  23  25
DOCKED: ENDBRANCH  22  23
DOCKED: BRANCH  22  27
DOCKED: ATOM     27  C34 UNL     1      10.501  -0.521  -3.708 +0.00 +0.00    +0.069 C  
DOCKED: BRANCH  27  28
DOCKED: ATOM     28  C35 UNL     1      10.487  -0.549  -5.218 +0.00 -0.00    -0.045 A  
DOCKED: ATOM     29  C36 UNL     1      10.311  -1.765  -5.893 +0.00 +0.00    +0.004 A  
DOCKED: ATOM     30  C37 UNL     1      10.283  -1.804  -7.287 +0.00 +0.00    +0.000 A  
DOCKED: ATOM     31  C38 UNL     1      10.431  -0.629  -8.021 +0.00 +0.00    +0.000 A  
DOCKED: ATOM     32  C39 UNL     1      10.613   0.585  -7.360 +0.00 +0.00    +0.000 A  
DOCKED: ATOM     33  C40 UNL     1      10.643   0.625  -5.965 +0.00 +0.00    +0.004 A  
DOCKED: ENDBRANCH  27  28
DOCKED: ENDBRANCH  22  27
DOCKED: ENDBRANCH  20  22
DOCKED: ENDBRANCH  17  18
DOCKED: BRANCH  17  34
DOCKED: ATOM     34  C29 UNL     1       9.288  -4.687  -1.670 +0.00 +0.00    +0.043 C  
DOCKED: BRANCH  34  35
DOCKED: ATOM     35  C30 UNL     1       9.760  -4.443  -3.102 +0.00 +0.00    +0.123 C  
DOCKED: BRANCH  35  36
DOCKED: ATOM     36  C31 UNL     1       8.622  -4.497  -4.080 +0.00 +0.00    +0.305 C  
DOCKED: ATOM     37  O11 UNL     1       8.017  -5.517  -4.380 +0.00 -0.00    -0.251 OA 
DOCKED: BRANCH  36  38
DOCKED: ATOM     38  O12 UNL     1       8.275  -3.294  -4.563 +0.00 -0.00    -0.481 OA 
DOCKED: ATOM     39  H52 UNL     1       7.374  -3.125  -4.212 +0.00 +0.00    +0.295 HD 
DOCKED: ENDBRANCH  36  38
DOCKED: ENDBRANCH  35  36
DOCKED: ENDBRANCH  34  35
DOCKED: ENDBRANCH  17  34
DOCKED: ENDBRANCH  15  17
DOCKED: ENDBRANCH  11  13
DOCKED: ENDBRANCH   9  11
DOCKED: ENDBRANCH   6   7
DOCKED: BRANCH   6  40
DOCKED: ATOM     40  C42 UNL     1       5.154  -6.774  -4.025 +0.00 +0.00    +0.012 C  
DOCKED: ATOM     41  C43 UNL     1       3.893  -7.643  -3.992 +0.00 +0.00    +0.009 C  
DOCKED: ATOM     42  C44 UNL     1       6.008  -7.047  -2.784 +0.00 +0.00    +0.009 C  
DOCKED: ENDBRANCH   6  40
DOCKED: ENDBRANCH   4   6
DOCKED: ENDBRANCH   1   2
DOCKED: BRANCH   1  43
DOCKED: ATOM     43  C20 UNL     1       6.283  -2.380  -6.925 +0.00 +0.00    +0.143 C  
DOCKED: BRANCH  43  44
DOCKED: ATOM     44  O7  UNL     1       5.808  -2.307  -5.566 +0.00 -0.00    -0.389 OA 
DOCKED: ATOM     45  H36 UNL     1       6.619  -2.311  -5.015 +0.00 +0.00    +0.210 HD 
DOCKED: ENDBRANCH  43  44
DOCKED: BRANCH  43  46
DOCKED: ATOM     46  C5  UNL     1       5.709  -1.221  -7.800 +0.00 +0.00    +0.102 C  
DOCKED: BRANCH  46  47
DOCKED: ATOM     47  N1  UNL     1       4.459  -0.692  -7.278 +0.00 -0.00    -0.308 N  
DOCKED: ATOM     48  C6  UNL     1       3.330  -0.635  -8.069 +0.00 +0.00    +0.234 C  
DOCKED: ATOM     49  O1  UNL     1       3.307  -1.031  -9.235 +0.00 -0.00    -0.274 OA 
DOCKED: ATOM     50  H11 UNL     1       4.354  -0.651  -6.276 +0.00 +0.00    +0.149 HD 
DOCKED: BRANCH  48  51
DOCKED: ATOM     51  C7  UNL     1       2.104  -0.015  -7.370 +0.00 +0.00    +0.168 C  
DOCKED: BRANCH  51  52
DOCKED: ATOM     52  N3  UNL     1       1.984  -0.574  -6.025 +0.00 -0.00    -0.302 N  
DOCKED: ATOM     53  C10 UNL     1       2.011  -1.946  -5.865 +0.00 +0.00    +0.234 C  
DOCKED: ATOM     54  O3  UNL     1       1.855  -2.720  -6.813 +0.00 -0.00    -0.274 OA 
DOCKED: ATOM     55  H17 UNL     1       2.417  -0.005  -5.297 +0.00 +0.00    +0.150 HD 
DOCKED: BRANCH  53  56
DOCKED: ATOM     56  C11 UNL     1       2.252  -2.457  -4.422 +0.00 +0.00    +0.161 C  
DOCKED: BRANCH  56  57
DOCKED: ATOM     57  N4  UNL     1       3.298  -1.604  -3.845 +0.00 -0.00    -0.302 N  
DOCKED: ATOM     58  C12 UNL     1       3.528  -1.539  -2.488 +0.00 +0.00    +0.230 C  
DOCKED: ATOM     59  O4  UNL     1       2.768  -2.016  -1.649 +0.00 -0.00    -0.274 OA 
DOCKED: ATOM     60  H19 UNL     1       4.126  -1.532  -4.425 +0.00 +0.00    +0.150 HD 
DOCKED: BRANCH  58  61
DOCKED: ATOM     61  C13 UNL     1       4.846  -0.829  -2.102 +0.00 +0.00    +0.138 C  
DOCKED: BRANCH  61  62
DOCKED: ATOM     62  N5  UNL     1       5.887  -1.155  -3.092 +0.00 -0.00    -0.320 NA 
DOCKED: ATOM     63  H21 UNL     1       5.449  -1.656  -3.868 +0.00 +0.00    +0.119 HD 
DOCKED: ATOM     64  H22 UNL     1       6.272  -0.304  -3.506 +0.00 +0.00    +0.119 HD 
DOCKED: ENDBRANCH  61  62
DOCKED: BRANCH  61  65
DOCKED: ATOM     65  C14 UNL     1       4.641   0.689  -1.951 +0.00 +0.00    +0.039 C  
DOCKED: BRANCH  65  66
DOCKED: ATOM     66  C15 UNL     1       3.917   1.328  -3.136 +0.00 +0.00    +0.122 C  
DOCKED: BRANCH  66  67
DOCKED: ATOM     67  C16 UNL     1       4.775   1.372  -4.371 +0.00 +0.00    +0.305 C  
DOCKED: ATOM     68  O5  UNL     1       5.360   2.342  -4.827 +0.00 -0.00    -0.251 OA 
DOCKED: BRANCH  67  69
DOCKED: ATOM     69  O6  UNL     1       4.918   0.157  -4.940 +0.00 -0.00    -0.481 OA 
DOCKED: ATOM     70  H27 UNL     1       5.885   0.003  -4.916 +0.00 +0.00    +0.295 HD 
DOCKED: ENDBRANCH  67  69
DOCKED: ENDBRANCH  66  67
DOCKED: ENDBRANCH  65  66
DOCKED: ENDBRANCH  61  65
DOCKED: ENDBRANCH  58  61
DOCKED: ENDBRANCH  56  57
DOCKED: BRANCH  56  71
DOCKED: ATOM     71  C17 UNL     1       0.981  -2.430  -3.543 +0.00 +0.00    +0.012 C  
DOCKED: ATOM     72  C18 UNL     1      -0.069  -3.464  -3.964 +0.00 +0.00    +0.009 C  
DOCKED: ATOM     73  C19 UNL     1       0.355  -1.030  -3.546 +0.00 +0.00    +0.009 C  
DOCKED: ENDBRANCH  56  71
DOCKED: ENDBRANCH  53  56
DOCKED: ENDBRANCH  51  52
DOCKED: BRANCH  51  74
DOCKED: ATOM     74  C8  UNL     1       2.203   1.509  -7.400 +0.00 +0.00    +0.127 C  
DOCKED: BRANCH  74  75
DOCKED: ATOM     75  C9  UNL     1       2.271   2.105  -6.010 +0.00 +0.00    +0.213 C  
DOCKED: ATOM     76  N2  UNL     1       3.226   3.066  -5.834 +0.00 -0.00    -0.329 N  
DOCKED: ATOM     77  O2  UNL     1       1.479   1.834  -5.113 +0.00 -0.00    -0.276 OA 
DOCKED: ATOM     78  H15 UNL     1       4.052   3.099  -6.427 +0.00 +0.00    +0.145 HD 
DOCKED: ATOM     79  H16 UNL     1       3.342   3.392  -4.884 +0.00 +0.00    +0.145 HD 
DOCKED: ENDBRANCH  74  75
DOCKED: ENDBRANCH  51  74
DOCKED: ENDBRANCH  48  51
DOCKED: ENDBRANCH  46  47
DOCKED: BRANCH  46  80
DOCKED: ATOM     80  C4  UNL     1       6.745  -0.094  -7.955 +0.00 +0.00    +0.028 C  
DOCKED: BRANCH  80  82
DOCKED: ATOM     81  C1  UNL     1       7.366   2.238  -7.250 +0.00 +0.00    +0.007 C  
DOCKED: ATOM     82  C2  UNL     1       6.209   1.325  -7.657 +0.00 -0.00    -0.015 C  
DOCKED: ATOM     83  C3  UNL     1       5.467   1.936  -8.846 +0.00 +0.00    +0.007 C  
DOCKED: ENDBRANCH  80  82
DOCKED: ENDBRANCH  46  80
DOCKED: ENDBRANCH  43  46
DOCKED: ENDBRANCH   1  43
DOCKED: TORSDOF 36
DOCKED: TER
DOCKED: ENDMDL
________________________________________________________________________________


    FINAL DOCKED STATE:
    ________________________


Run:   3 / 20
Time taken for this run:   7.704s

DOCKED: MODEL        3
DOCKED: USER    Run = 3
DOCKED: USER
DOCKED: USER    Estimated Free Energy of Binding    = +10.74 kcal/mol  [=(1)+(2)+(3)-(4)]
DOCKED: USER
DOCKED: USER    (1) Final Intermolecular Energy     =  +0.00 kcal/mol
DOCKED: USER        vdW + Hbond + desolv Energy     =  +0.00 kcal/mol
DOCKED: USER        Electrostatic Energy            =  +0.00 kcal/mol
DOCKED: USER        Moving Ligand-Fixed Receptor    =  +0.00 kcal/mol
DOCKED: USER        Moving Ligand-Moving Receptor   =  +0.00 kcal/mol
DOCKED: USER    (2) Final Total Internal Energy     = -31.42 kcal/mol
DOCKED: USER    (3) Torsional Free Energy           = +10.74 kcal/mol
DOCKED: USER    (4) Unbound System's Energy         = -31.42 kcal/mol
DOCKED: USER
DOCKED: USER
DOCKED: REMARK  Name = ligands/ligand_15.pdb
DOCKED: REMARK  43 active torsions:
DOCKED: REMARK  status: ('A' for Active; 'I' for Inactive)
DOCKED: REMARK    1  A    between atoms: C1_1  and  C2_2
DOCKED: REMARK    2  A    between atoms: C2_2  and  C3_3
DOCKED: REMARK    3  A    between atoms: C2_2  and  C4_4
DOCKED: REMARK    4  A    between atoms: C4_4  and  C5_5
DOCKED: REMARK    5  A    between atoms: C5_5  and  N1_6
DOCKED: REMARK    6  A    between atoms: C5_5  and  C20_31
DOCKED: REMARK    7  A    between atoms: C6_7  and  C7_9
DOCKED: REMARK    8  A    between atoms: C7_9  and  C8_10
DOCKED: REMARK    9  A    between atoms: C7_9  and  N3_14
DOCKED: REMARK   10  A    between atoms: C8_10  and  C9_11
DOCKED: REMARK   11  A    between atoms: C10_15  and  C11_17
DOCKED: REMARK   12  A    between atoms: C11_17  and  N4_18
DOCKED: REMARK   13  A    between atoms: C11_17  and  C17_28
DOCKED: REMARK   14  A    between atoms: C12_19  and  C13_21
DOCKED: REMARK   15  A    between atoms: C13_21  and  N5_22
DOCKED: REMARK   16  A    between atoms: C13_21  and  C14_23
DOCKED: REMARK   17  A    between atoms: C14_23  and  C15_24
DOCKED: REMARK   18  A    between atoms: C15_24  and  C16_25
DOCKED: REMARK   19  A    between atoms: C16_25  and  O6_27
DOCKED: REMARK   20  A    between atoms: C17_28  and  C18_29
DOCKED: REMARK   21  A    between atoms: C17_28  and  C19_30
DOCKED: REMARK   22  A    between atoms: C20_31  and  O7_32
DOCKED: REMARK   23  A    between atoms: C20_31  and  C21_33
DOCKED: REMARK   24  A    between atoms: C21_33  and  C22_34
DOCKED: REMARK   25  A    between atoms: N6_36  and  C23_37
DOCKED: REMARK   26  A    between atoms: C23_37  and  C24_38
DOCKED: REMARK   27  A    between atoms: C23_37  and  C42_66
DOCKED: REMARK   28  A    between atoms: N7_40  and  C25_41
DOCKED: REMARK   29  A    between atoms: C25_41  and  C26_42
DOCKED: REMARK   30  A    between atoms: C25_41  and  C27_43
DOCKED: REMARK   31  A    between atoms: N8_45  and  C28_46
DOCKED: REMARK   32  A    between atoms: C28_46  and  C29_47
DOCKED: REMARK   33  A    between atoms: C28_46  and  C32_52
DOCKED: REMARK   34  A    between atoms: C29_47  and  C30_48
DOCKED: REMARK   35  A    between atoms: C30_48  and  C31_49
DOCKED: REMARK   36  A    between atoms: C31_49  and  O12_51
DOCKED: REMARK   37  A    between atoms: N9_54  and  C33_55
DOCKED: REMARK   38  A    between atoms: C33_55  and  C34_56
DOCKED: REMARK   39  A    between atoms: C33_55  and  C41_63
DOCKED: REMARK   40  A    between atoms: C34_56  and  C35_57
DOCKED: REMARK   41  A    between atoms: C41_63  and  O15_65
DOCKED: REMARK   42  A    between atoms: C42_66  and  C43_67
DOCKED: REMARK   43  A    between atoms: C42_66  and  C44_68
DOCKED: REMARK                            x       y       z     vdW  Elec       q    Type
DOCKED: REMARK                         _______ _______ _______ _____ _____    ______ ____
DOCKED: USER                              x       y       z     vdW  Elec       q    Type
DOCKED: USER                           _______ _______ _______ _____ _____    ______ ____
DOCKED: ROOT
DOCKED: ATOM      1  C21 UNL     1       9.397  -5.666   1.046 +0.00 +0.00    +0.129 C  
DOCKED: ENDROOT
DOCKED: BRANCH   1   2
DOCKED: ATOM      2  C22 UNL     1       9.579  -7.131   1.372 +0.00 +0.00    +0.216 C  
DOCKED: ATOM      3  O8  UNL     1       8.690  -7.967   1.221 +0.00 -0.00    -0.276 OA 
DOCKED: ATOM      4  N6  UNL     1      10.836  -7.424   1.828 +0.00 -0.00    -0.304 N  
DOCKED: ATOM      5  H39 UNL     1      11.505  -6.668   1.978 +0.00 +0.00    +0.149 HD 
DOCKED: BRANCH   4   6
DOCKED: ATOM      6  C23 UNL     1      11.216  -8.713   2.411 +0.00 +0.00    +0.161 C  
DOCKED: BRANCH   6   7
DOCKED: ATOM      7  C24 UNL     1      11.705  -9.552   1.209 +0.00 +0.00    +0.234 C  
DOCKED: ATOM      8  O9  UNL     1      12.118 -10.705   1.361 +0.00 -0.00    -0.274 OA 
DOCKED: ATOM      9  N7  UNL     1      11.646  -8.954  -0.024 +0.00 -0.00    -0.303 N  
DOCKED: ATOM     10  H41 UNL     1      11.415  -7.971  -0.108 +0.00 +0.00    +0.149 HD 
DOCKED: BRANCH   9  11
DOCKED: ATOM     11  C25 UNL     1      12.197  -9.595  -1.213 +0.00 +0.00    +0.156 C  
DOCKED: ATOM     12  C26 UNL     1      11.482  -9.111  -2.468 +0.00 +0.00    +0.038 C  
DOCKED: BRANCH  11  13
DOCKED: ATOM     13  C27 UNL     1      13.700  -9.285  -1.288 +0.00 +0.00    +0.234 C  
DOCKED: ATOM     14  O10 UNL     1      14.375  -9.531  -2.289 +0.00 -0.00    -0.274 OA 
DOCKED: ATOM     15  N8  UNL     1      14.226  -8.735  -0.144 +0.00 -0.00    -0.302 N  
DOCKED: ATOM     16  H46 UNL     1      13.640  -8.570   0.671 +0.00 +0.00    +0.150 HD 
DOCKED: BRANCH  15  17
DOCKED: ATOM     17  C28 UNL     1      15.634  -8.358  -0.018 +0.00 +0.00    +0.159 C  
DOCKED: BRANCH  17  18
DOCKED: ATOM     18  C32 UNL     1      15.903  -8.225   1.494 +0.00 +0.00    +0.234 C  
DOCKED: ATOM     19  O13 UNL     1      16.900  -8.729   2.019 +0.00 -0.00    -0.274 OA 
DOCKED: ATOM     20  N9  UNL     1      14.956  -7.533   2.210 +0.00 -0.00    -0.301 N  
DOCKED: ATOM     21  H53 UNL     1      14.236  -7.003   1.716 +0.00 +0.00    +0.150 HD 
DOCKED: BRANCH  20  22
DOCKED: ATOM     22  C33 UNL     1      15.121  -7.268   3.646 +0.00 +0.00    +0.186 C  
DOCKED: BRANCH  22  23
DOCKED: ATOM     23  C41 UNL     1      14.142  -6.164   4.029 +0.00 +0.00    +0.326 C  
DOCKED: ATOM     24  O14 UNL     1      14.155  -5.516   5.067 +0.00 -0.00    -0.249 OA 
DOCKED: BRANCH  23  25
DOCKED: ATOM     25  O15 UNL     1      13.199  -5.929   3.097 +0.00 -0.00    -0.479 OA 
DOCKED: ATOM     26  H62 UNL     1      13.374  -5.017   2.781 +0.00 +0.00    +0.295 HD 
DOCKED: ENDBRANCH  23  25
DOCKED: ENDBRANCH  22  23
DOCKED: BRANCH  22  27
DOCKED: ATOM     27  C34 UNL     1      16.562  -6.840   3.954 +0.00 +0.00    +0.069 C  
DOCKED: BRANCH  27  28
DOCKED: ATOM     28  C35 UNL     1      16.909  -5.470   3.422 +0.00 -0.00    -0.045 A  
DOCKED: ATOM     29  C36 UNL     1      16.847  -5.218   2.044 +0.00 +0.00    +0.004 A  
DOCKED: ATOM     30  C37 UNL     1      17.151  -3.954   1.540 +0.00 +0.00    +0.000 A  
DOCKED: ATOM     31  C38 UNL     1      17.522  -2.929   2.407 +0.00 +0.00    +0.000 A  
DOCKED: ATOM     32  C39 UNL     1      17.595  -3.169   3.778 +0.00 +0.00    +0.000 A  
DOCKED: ATOM     33  C40 UNL     1      17.291  -4.434   4.284 +0.00 +0.00    +0.004 A  
DOCKED: ENDBRANCH  27  28
DOCKED: ENDBRANCH  22  27
DOCKED: ENDBRANCH  20  22
DOCKED: ENDBRANCH  17  18
DOCKED: BRANCH  17  34
DOCKED: ATOM     34  C29 UNL     1      15.900  -7.049  -0.785 +0.00 +0.00    +0.043 C  
DOCKED: BRANCH  34  35
DOCKED: ATOM     35  C30 UNL     1      14.682  -6.175  -1.075 +0.00 +0.00    +0.123 C  
DOCKED: BRANCH  35  36
DOCKED: ATOM     36  C31 UNL     1      13.983  -5.758   0.187 +0.00 +0.00    +0.305 C  
DOCKED: ATOM     37  O11 UNL     1      14.278  -4.771   0.845 +0.00 -0.00    -0.251 OA 
DOCKED: BRANCH  36  38
DOCKED: ATOM     38  O12 UNL     1      12.942  -6.542   0.505 +0.00 -0.00    -0.481 OA 
DOCKED: ATOM     39  H52 UNL     1      12.716  -6.308   1.430 +0.00 +0.00    +0.295 HD 
DOCKED: ENDBRANCH  36  38
DOCKED: ENDBRANCH  35  36
DOCKED: ENDBRANCH  34  35
DOCKED: ENDBRANCH  17  34
DOCKED: ENDBRANCH  15  17
DOCKED: ENDBRANCH  11  13
DOCKED: ENDBRANCH   9  11
DOCKED: ENDBRANCH   6   7
DOCKED: BRANCH   6  40
DOCKED: ATOM     40  C42 UNL     1      10.041  -9.327   3.202 +0.00 +0.00    +0.012 C  
DOCKED: ATOM     41  C43 UNL     1       9.640  -8.482   4.415 +0.00 +0.00    +0.009 C  
DOCKED: ATOM     42  C44 UNL     1      10.302 -10.772   3.637 +0.00 +0.00    +0.009 C  
DOCKED: ENDBRANCH   6  40
DOCKED: ENDBRANCH   4   6
DOCKED: ENDBRANCH   1   2
DOCKED: BRANCH   1  43
DOCKED: ATOM     43  C20 UNL     1      10.726  -5.017   0.643 +0.00 +0.00    +0.143 C  
DOCKED: BRANCH  43  44
DOCKED: ATOM     44  O7  UNL     1      11.456  -4.632   1.825 +0.00 -0.00    -0.389 OA 
DOCKED: ATOM     45  H36 UNL     1      12.399  -4.770   1.595 +0.00 +0.00    +0.210 HD 
DOCKED: ENDBRANCH  43  44
DOCKED: BRANCH  43  46
DOCKED: ATOM     46  C5  UNL     1      10.464  -3.797  -0.296 +0.00 +0.00    +0.102 C  
DOCKED: BRANCH  46  47
DOCKED: ATOM     47  N1  UNL     1      11.099  -2.579   0.178 +0.00 -0.00    -0.308 N  
DOCKED: ATOM     48  C6  UNL     1      11.044  -1.417  -0.563 +0.00 +0.00    +0.234 C  
DOCKED: ATOM     49  O1  UNL     1      10.455  -1.337  -1.642 +0.00 -0.00    -0.274 OA 
DOCKED: ATOM     50  H11 UNL     1      11.312  -2.517   1.162 +0.00 +0.00    +0.149 HD 
DOCKED: BRANCH  48  51
DOCKED: ATOM     51  C7  UNL     1      11.798  -0.230   0.070 +0.00 +0.00    +0.168 C  
DOCKED: BRANCH  51  52
DOCKED: ATOM     52  N3  UNL     1      11.558  -0.221   1.510 +0.00 -0.00    -0.302 N  
DOCKED: ATOM     53  C10 UNL     1      10.258  -0.141   1.971 +0.00 +0.00    +0.234 C  
DOCKED: ATOM     54  O3  UNL     1       9.323   0.196   1.242 +0.00 -0.00    -0.274 OA 
DOCKED: ATOM     55  H17 UNL     1      12.215  -0.788   2.047 +0.00 +0.00    +0.150 HD 
DOCKED: BRANCH  53  56
DOCKED: ATOM     56  C11 UNL     1      10.042  -0.505   3.462 +0.00 +0.00    +0.161 C  
DOCKED: BRANCH  56  57
DOCKED: ATOM     57  N4  UNL     1      11.106  -1.451   3.821 +0.00 -0.00    -0.302 N  
DOCKED: ATOM     58  C12 UNL     1      11.337  -1.838   5.123 +0.00 +0.00    +0.230 C  
DOCKED: ATOM     59  O4  UNL     1      10.825  -1.288   6.094 +0.00 -0.00    -0.274 OA 
DOCKED: ATOM     60  H19 UNL     1      11.257  -2.171   3.125 +0.00 +0.00    +0.150 HD 
DOCKED: BRANCH  58  61
DOCKED: ATOM     61  C13 UNL     1      12.288  -3.050   5.265 +0.00 +0.00    +0.138 C  
DOCKED: BRANCH  61  62
DOCKED: ATOM     62  N5  UNL     1      12.014  -4.016   4.187 +0.00 -0.00    -0.320 NA 
DOCKED: ATOM     63  H21 UNL     1      11.497  -3.536   3.447 +0.00 +0.00    +0.119 HD 
DOCKED: ATOM     64  H22 UNL     1      12.883  -4.326   3.749 +0.00 +0.00    +0.119 HD 
DOCKED: ENDBRANCH  61  62
DOCKED: BRANCH  61  65
DOCKED: ATOM     65  C14 UNL     1      13.761  -2.606   5.289 +0.00 +0.00    +0.039 C  
DOCKED: BRANCH  65  66
DOCKED: ATOM     66  C15 UNL     1      14.513  -2.914   3.993 +0.00 +0.00    +0.122 C  
DOCKED: BRANCH  66  67
DOCKED: ATOM     67  C16 UNL     1      13.951  -2.163   2.817 +0.00 +0.00    +0.305 C  
DOCKED: ATOM     68  O5  UNL     1      14.310  -1.072   2.401 +0.00 -0.00    -0.251 OA 
DOCKED: BRANCH  67  69
DOCKED: ATOM     69  O6  UNL     1      13.000  -2.865   2.166 +0.00 -0.00    -0.481 OA 
DOCKED: ATOM     70  H27 UNL     1      13.208  -3.795   2.389 +0.00 +0.00    +0.295 HD 
DOCKED: ENDBRANCH  67  69
DOCKED: ENDBRANCH  66  67
DOCKED: ENDBRANCH  65  66
DOCKED: ENDBRANCH  61  65
DOCKED: ENDBRANCH  58  61
DOCKED: ENDBRANCH  56  57
DOCKED: BRANCH  56  71
DOCKED: ATOM     71  C17 UNL     1      10.066   0.723   4.401 +0.00 +0.00    +0.012 C  
DOCKED: ATOM     72  C18 UNL     1       8.913   1.700   4.149 +0.00 +0.00    +0.009 C  
DOCKED: ATOM     73  C19 UNL     1      11.404   1.463   4.284 +0.00 +0.00    +0.009 C  
DOCKED: ENDBRANCH  56  71
DOCKED: ENDBRANCH  53  56
DOCKED: ENDBRANCH  51  52
DOCKED: BRANCH  51  74
DOCKED: ATOM     74  C8  UNL     1      13.277  -0.293  -0.310 +0.00 +0.00    +0.127 C  
DOCKED: BRANCH  74  75
DOCKED: ATOM     75  C9  UNL     1      13.617  -1.553  -1.078 +0.00 +0.00    +0.213 C  
DOCKED: ATOM     76  N2  UNL     1      13.916  -2.641  -0.309 +0.00 -0.00    -0.329 N  
DOCKED: ATOM     77  O2  UNL     1      13.547  -1.646  -2.299 +0.00 -0.00    -0.276 OA 
DOCKED: ATOM     78  H15 UNL     1      14.263  -2.532   0.642 +0.00 +0.00    +0.145 HD 
DOCKED: ATOM     79  H16 UNL     1      14.243  -3.453  -0.815 +0.00 +0.00    +0.145 HD 
DOCKED: ENDBRANCH  74  75
DOCKED: ENDBRANCH  51  74
DOCKED: ENDBRANCH  48  51
DOCKED: ENDBRANCH  46  47
DOCKED: BRANCH  46  80
DOCKED: ATOM     80  C4  UNL     1      10.914  -4.112  -1.734 +0.00 +0.00    +0.028 C  
DOCKED: BRANCH  80  82
DOCKED: ATOM     81  C1  UNL     1       9.793  -6.266  -2.383 +0.00 +0.00    +0.007 C  
DOCKED: ATOM     82  C2  UNL     1      11.130  -5.613  -2.030 +0.00 -0.00    -0.015 C  
DOCKED: ATOM     83  C3  UNL     1      12.132  -5.852  -3.160 +0.00 +0.00    +0.007 C  
DOCKED: ENDBRANCH  80  82
DOCKED: ENDBRANCH  46  80
DOCKED: ENDBRANCH  43  46
DOCKED: ENDBRANCH   1  43
DOCKED: TORSDOF 36
DOCKED: TER
DOCKED: ENDMDL
________________________________________________________________________________


    FINAL DOCKED STATE:
    ________________________


Run:   4 / 20
Time taken for this run:   7.704s

DOCKED: MODEL        4
DOCKED: USER    Run = 4
DOCKED: USER
DOCKED: USER    Estimated Free Energy of Binding    = +10.74 kcal/mol  [=(1)+(2)+(3)-(4)]
DOCKED: USER
DOCKED: USER    (1) Final Intermolecular Energy     =  +0.00 kcal/mol
DOCKED: USER        vdW + Hbond + desolv Energy     =  +0.00 kcal/mol
DOCKED: USER        Electrostatic Energy            =  +0.00 kcal/mol
DOCKED: USER        Moving Ligand-Fixed Receptor    =  +0.00 kcal/mol
DOCKED: USER        Moving Ligand-Moving Receptor   =  +0.00 kcal/mol
DOCKED: USER    (2) Final Total Internal Energy     = -32.53 kcal/mol
DOCKED: USER    (3) Torsional Free Energy           = +10.74 kcal/mol
DOCKED: USER    (4) Unbound System's Energy         = -32.53 kcal/mol
DOCKED: USER
DOCKED: USER
DOCKED: REMARK  Name = ligands/ligand_15.pdb
DOCKED: REMARK  43 active torsions:
DOCKED: REMARK  status: ('A' for Active; 'I' for Inactive)
DOCKED: REMARK    1  A    between atoms: C1_1  and  C2_2
DOCKED: REMARK    2  A    between atoms: C2_2  and  C3_3
DOCKED: REMARK    3  A    between atoms: C2_2  and  C4_4
DOCKED: REMARK    4  A    between atoms: C4_4  and  C5_5
DOCKED: REMARK    5  A    between atoms: C5_5  and  N1_6
DOCKED: REMARK    6  A    between atoms: C5_5  and  C20_31
DOCKED: REMARK    7  A    between atoms: C6_7  and  C7_9
DOCKED: REMARK    8  A    between atoms: C7_9  and  C8_10
DOCKED: REMARK    9  A    between atoms: C7_9  and  N3_14
DOCKED: REMARK   10  A    between atoms: C8_10  and  C9_11
DOCKED: REMARK   11  A    between atoms: C10_15  and  C11_17
DOCKED: REMARK   12  A    between atoms: C11_17  and  N4_18
DOCKED: REMARK   13  A    between atoms: C11_17  and  C17_28
DOCKED: REMARK   14  A    between atoms: C12_19  and  C13_21
DOCKED: REMARK   15  A    between atoms: C13_21  and  N5_22
DOCKED: REMARK   16  A    between atoms: C13_21  and  C14_23
DOCKED: REMARK   17  A    between atoms: C14_23  and  C15_24
DOCKED: REMARK   18  A    between atoms: C15_24  and  C16_25
DOCKED: REMARK   19  A    between atoms: C16_25  and  O6_27
DOCKED: REMARK   20  A    between atoms: C17_28  and  C18_29
DOCKED: REMARK   21  A    between atoms: C17_28  and  C19_30
DOCKED: REMARK   22  A    between atoms: C20_31  and  O7_32
DOCKED: REMARK   23  A    between atoms: C20_31  and  C21_33
DOCKED: REMARK   24  A    between atoms: C21_33  and  C22_34
DOCKED: REMARK   25  A    between atoms: N6_36  and  C23_37
DOCKED: REMARK   26  A    between atoms: C23_37  and  C24_38
DOCKED: REMARK   27  A    between atoms: C23_37  and  C42_66
DOCKED: REMARK   28  A    between atoms: N7_40  and  C25_41
DOCKED: REMARK   29  A    between atoms: C25_41  and  C26_42
DOCKED: REMARK   30  A    between atoms: C25_41  and  C27_43
DOCKED: REMARK   31  A    between atoms: N8_45  and  C28_46
DOCKED: REMARK   32  A    between atoms: C28_46  and  C29_47
DOCKED: REMARK   33  A    between atoms: C28_46  and  C32_52
DOCKED: REMARK   34  A    between atoms: C29_47  and  C30_48
DOCKED: REMARK   35  A    between atoms: C30_48  and  C31_49
DOCKED: REMARK   36  A    between atoms: C31_49  and  O12_51
DOCKED: REMARK   37  A    between atoms: N9_54  and  C33_55
DOCKED: REMARK   38  A    between atoms: C33_55  and  C34_56
DOCKED: REMARK   39  A    between atoms: C33_55  and  C41_63
DOCKED: REMARK   40  A    between atoms: C34_56  and  C35_57
DOCKED: REMARK   41  A    between atoms: C41_63  and  O15_65
DOCKED: REMARK   42  A    between atoms: C42_66  and  C43_67
DOCKED: REMARK   43  A    between atoms: C42_66  and  C44_68
DOCKED: REMARK                            x       y       z     vdW  Elec       q    Type
DOCKED: REMARK                         _______ _______ _______ _____ _____    ______ ____
DOCKED: USER                              x       y       z     vdW  Elec       q    Type
DOCKED: USER                           _______ _______ _______ _____ _____    ______ ____
DOCKED: ROOT
DOCKED: ATOM      1  C21 UNL     1       4.345  -5.880  -0.472 +0.00 +0.00    +0.129 C  
DOCKED: ENDROOT
DOCKED: BRANCH   1   2
DOCKED: ATOM      2  C22 UNL     1       4.365  -7.381  -0.293 +0.00 +0.00    +0.216 C  
DOCKED: ATOM      3  O8  UNL     1       3.776  -7.956   0.620 +0.00 -0.00    -0.276 OA 
DOCKED: ATOM      4  N6  UNL     1       5.089  -8.024  -1.263 +0.00 -0.00    -0.304 N  
DOCKED: ATOM      5  H39 UNL     1       5.595  -7.476  -1.958 +0.00 +0.00    +0.149 HD 
DOCKED: BRANCH   4   6
DOCKED: ATOM      6  C23 UNL     1       5.446  -9.443  -1.211 +0.00 +0.00    +0.161 C  
DOCKED: BRANCH   6   7
DOCKED: ATOM      7  C24 UNL     1       6.956  -9.475  -1.534 +0.00 +0.00    +0.234 C  
DOCKED: ATOM      8  O9  UNL     1       7.570  -8.443  -1.825 +0.00 -0.00    -0.274 OA 
DOCKED: ATOM      9  N7  UNL     1       7.574 -10.697  -1.470 +0.00 -0.00    -0.303 N  
DOCKED: ATOM     10  H41 UNL     1       7.030 -11.543  -1.344 +0.00 +0.00    +0.149 HD 
DOCKED: BRANCH   9  11
DOCKED: ATOM     11  C25 UNL     1       8.964 -10.876  -1.877 +0.00 +0.00    +0.156 C  
DOCKED: ATOM     12  C26 UNL     1       9.404 -12.320  -1.677 +0.00 +0.00    +0.038 C  
DOCKED: BRANCH  11  13
DOCKED: ATOM     13  C27 UNL     1       9.102 -10.463  -3.351 +0.00 +0.00    +0.234 C  
DOCKED: ATOM     14  O10 UNL     1       9.045 -11.278  -4.273 +0.00 -0.00    -0.274 OA 
DOCKED: ATOM     15  N8  UNL     1       9.317  -9.120  -3.547 +0.00 -0.00    -0.302 N  
DOCKED: ATOM     16  H46 UNL     1       9.383  -8.482  -2.758 +0.00 +0.00    +0.150 HD 
DOCKED: BRANCH  15  17
DOCKED: ATOM     17  C28 UNL     1       9.465  -8.525  -4.876 +0.00 +0.00    +0.159 C  
DOCKED: BRANCH  17  18
DOCKED: ATOM     18  C32 UNL     1      10.115  -7.145  -4.652 +0.00 +0.00    +0.234 C  
DOCKED: ATOM     19  O13 UNL     1      10.904  -6.663  -5.470 +0.00 -0.00    -0.274 OA 
DOCKED: ATOM     20  N9  UNL     1       9.773  -6.507  -3.484 +0.00 -0.00    -0.301 N  
DOCKED: ATOM     21  H53 UNL     1       9.002  -6.867  -2.918 +0.00 +0.00    +0.150 HD 
DOCKED: BRANCH  20  22
DOCKED: ATOM     22  C33 UNL     1      10.261  -5.157  -3.176 +0.00 +0.00    +0.186 C  
DOCKED: BRANCH  22  23
DOCKED: ATOM     23  C41 UNL     1       9.745  -4.782  -1.791 +0.00 +0.00    +0.326 C  
DOCKED: ATOM     24  O14 UNL     1      10.340  -4.116  -0.955 +0.00 -0.00    -0.249 OA 
DOCKED: BRANCH  23  25
DOCKED: ATOM     25  O15 UNL     1       8.515  -5.261  -1.524 +0.00 -0.00    -0.479 OA 
DOCKED: ATOM     26  H62 UNL     1       8.578  -6.226  -1.683 +0.00 +0.00    +0.295 HD 
DOCKED: ENDBRANCH  23  25
DOCKED: ENDBRANCH  22  23
DOCKED: BRANCH  22  27
DOCKED: ATOM     27  C34 UNL     1       9.766  -4.151  -4.224 +0.00 +0.00    +0.069 C  
DOCKED: BRANCH  27  28
DOCKED: ATOM     28  C35 UNL     1       8.682  -3.233  -3.712 +0.00 -0.00    -0.045 A  
DOCKED: ATOM     29  C36 UNL     1       7.334  -3.600  -3.844 +0.00 +0.00    +0.004 A  
DOCKED: ATOM     30  C37 UNL     1       6.323  -2.769  -3.363 +0.00 +0.00    +0.000 A  
DOCKED: ATOM     31  C38 UNL     1       6.647  -1.562  -2.747 +0.00 +0.00    +0.000 A  
DOCKED: ATOM     32  C39 UNL     1       7.982  -1.184  -2.617 +0.00 +0.00    +0.000 A  
DOCKED: ATOM     33  C40 UNL     1       8.996  -2.014  -3.098 +0.00 +0.00    +0.004 A  
DOCKED: ENDBRANCH  27  28
DOCKED: ENDBRANCH  22  27
DOCKED: ENDBRANCH  20  22
DOCKED: ENDBRANCH  17  18
DOCKED: BRANCH  17  34
DOCKED: ATOM     34  C29 UNL     1       8.091  -8.429  -5.566 +0.00 +0.00    +0.043 C  
DOCKED: BRANCH  34  35
DOCKED: ATOM     35  C30 UNL     1       7.337  -7.112  -5.393 +0.00 +0.00    +0.123 C  
DOCKED: BRANCH  35  36
DOCKED: ATOM     36  C31 UNL     1       6.491  -7.113  -4.153 +0.00 +0.00    +0.305 C  
DOCKED: ATOM     37  O11 UNL     1       5.477  -7.781  -4.009 +0.00 -0.00    -0.251 OA 
DOCKED: BRANCH  36  38
DOCKED: ATOM     38  O12 UNL     1       6.988  -6.349  -3.167 +0.00 -0.00    -0.481 OA 
DOCKED: ATOM     39  H52 UNL     1       7.460  -6.970  -2.572 +0.00 +0.00    +0.295 HD 
DOCKED: ENDBRANCH  36  38
DOCKED: ENDBRANCH  35  36
DOCKED: ENDBRANCH  34  35
DOCKED: ENDBRANCH  17  34
DOCKED: ENDBRANCH  15  17
DOCKED: ENDBRANCH  11  13
DOCKED: ENDBRANCH   9  11
DOCKED: ENDBRANCH   6   7
DOCKED: BRANCH   6  40
DOCKED: ATOM     40  C42 UNL     1       4.557 -10.270  -2.167 +0.00 +0.00    +0.012 C  
DOCKED: ATOM     41  C43 UNL     1       5.304 -10.718  -3.427 +0.00 +0.00    +0.009 C  
DOCKED: ATOM     42  C44 UNL     1       3.264  -9.548  -2.555 +0.00 +0.00    +0.009 C  
DOCKED: ENDBRANCH   6  40
DOCKED: ENDBRANCH   4   6
DOCKED: ENDBRANCH   1   2
DOCKED: BRANCH   1  43
DOCKED: ATOM     43  C20 UNL     1       5.767  -5.310  -0.550 +0.00 +0.00    +0.143 C  
DOCKED: BRANCH  43  44
DOCKED: ATOM     44  O7  UNL     1       6.718  -6.391  -0.620 +0.00 -0.00    -0.389 OA 
DOCKED: ATOM     45  H36 UNL     1       7.146  -6.293  -1.496 +0.00 +0.00    +0.210 HD 
DOCKED: ENDBRANCH  43  44
DOCKED: BRANCH  43  46
DOCKED: ATOM     46  C5  UNL     1       6.039  -4.380   0.675 +0.00 +0.00    +0.102 C  
DOCKED: BRANCH  46  47
DOCKED: ATOM     47  N1  UNL     1       6.711  -5.070   1.763 +0.00 -0.00    -0.308 N  
DOCKED: ATOM     48  C6  UNL     1       6.430  -4.761   3.077 +0.00 +0.00    +0.234 C  
DOCKED: ATOM     49  O1  UNL     1       5.602  -3.910   3.404 +0.00 -0.00    -0.274 OA 
DOCKED: ATOM     50  H11 UNL     1       7.146  -5.956   1.554 +0.00 +0.00    +0.149 HD 
DOCKED: BRANCH  48  51
DOCKED: ATOM     51  C7  UNL     1       7.257  -5.563   4.103 +0.00 +0.00    +0.168 C  
DOCKED: BRANCH  51  52
DOCKED: ATOM     52  N3  UNL     1       7.665  -6.832   3.504 +0.00 -0.00    -0.302 N  
DOCKED: ATOM     53  C10 UNL     1       6.691  -7.705   3.060 +0.00 +0.00    +0.234 C  
DOCKED: ATOM     54  O3  UNL     1       5.508  -7.591   3.389 +0.00 -0.00    -0.274 OA 
DOCKED: ATOM     55  H17 UNL     1       8.533  -6.782   2.971 +0.00 +0.00    +0.150 HD 
DOCKED: BRANCH  53  56
DOCKED: ATOM     56  C11 UNL     1       7.173  -8.838   2.118 +0.00 +0.00    +0.161 C  
DOCKED: BRANCH  56  57
DOCKED: ATOM     57  N4  UNL     1       8.302  -8.295   1.354 +0.00 -0.00    -0.302 N  
DOCKED: ATOM     58  C12 UNL     1       9.294  -9.099   0.835 +0.00 +0.00    +0.230 C  
DOCKED: ATOM     59  O4  UNL     1       9.428 -10.284   1.130 +0.00 -0.00    -0.274 OA 
DOCKED: ATOM     60  H19 UNL     1       8.056  -7.494   0.784 +0.00 +0.00    +0.150 HD 
DOCKED: BRANCH  58  61
DOCKED: ATOM     61  C13 UNL     1      10.221  -8.389  -0.178 +0.00 +0.00    +0.138 C  
DOCKED: BRANCH  61  62
DOCKED: ATOM     62  N5  UNL     1       9.468  -7.331  -0.874 +0.00 -0.00    -0.320 NA 
DOCKED: ATOM     63  H21 UNL     1       8.567  -7.214  -0.405 +0.00 +0.00    +0.119 HD 
DOCKED: ATOM     64  H22 UNL     1       9.939  -6.429  -0.779 +0.00 +0.00    +0.119 HD 
DOCKED: ENDBRANCH  61  62
DOCKED: BRANCH  61  65
DOCKED: ATOM     65  C14 UNL     1      11.489  -7.847   0.508 +0.00 +0.00    +0.039 C  
DOCKED: BRANCH  65  66
DOCKED: ATOM     66  C15 UNL     1      11.432  -6.346   0.796 +0.00 +0.00    +0.122 C  
DOCKED: BRANCH  66  67
DOCKED: ATOM     67  C16 UNL     1      10.332  -5.992   1.759 +0.00 +0.00    +0.305 C  
DOCKED: ATOM     68  O5  UNL     1      10.436  -5.815   2.962 +0.00 -0.00    -0.251 OA 
DOCKED: BRANCH  67  69
DOCKED: ATOM     69  O6  UNL     1       9.149  -5.803   1.139 +0.00 -0.00    -0.481 OA 
DOCKED: ATOM     70  H27 UNL     1       9.403  -5.483   0.250 +0.00 +0.00    +0.295 HD 
DOCKED: ENDBRANCH  67  69
DOCKED: ENDBRANCH  66  67
DOCKED: ENDBRANCH  65  66
DOCKED: ENDBRANCH  61  65
DOCKED: ENDBRANCH  58  61
DOCKED: ENDBRANCH  56  57
DOCKED: BRANCH  56  71
DOCKED: ATOM     71  C17 UNL     1       7.591 -10.122   2.869 +0.00 +0.00    +0.012 C  
DOCKED: ATOM     72  C18 UNL     1       6.782 -11.356   2.457 +0.00 +0.00    +0.009 C  
DOCKED: ATOM     73  C19 UNL     1       7.481  -9.917   4.385 +0.00 +0.00    +0.009 C  
DOCKED: ENDBRANCH  56  71
DOCKED: ENDBRANCH  53  56
DOCKED: ENDBRANCH  51  52
DOCKED: BRANCH  51  74
DOCKED: ATOM     74  C8  UNL     1       8.423  -4.714   4.607 +0.00 +0.00    +0.127 C  
DOCKED: BRANCH  74  75
DOCKED: ATOM     75  C9  UNL     1       8.544  -3.405   3.857 +0.00 +0.00    +0.213 C  
DOCKED: ATOM     76  N2  UNL     1       7.679  -2.424   4.251 +0.00 -0.00    -0.329 N  
DOCKED: ATOM     77  O2  UNL     1       9.409  -3.180   3.016 +0.00 -0.00    -0.276 OA 
DOCKED: ATOM     78  H15 UNL     1       6.798  -2.655   4.705 +0.00 +0.00    +0.145 HD 
DOCKED: ATOM     79  H16 UNL     1       7.688  -1.587   3.686 +0.00 +0.00    +0.145 HD 
DOCKED: ENDBRANCH  74  75
DOCKED: ENDBRANCH  51  74
DOCKED: ENDBRANCH  48  51
DOCKED: ENDBRANCH  46  47
DOCKED: BRANCH  46  80
DOCKED: ATOM     80  C4  UNL     1       6.845  -3.141   0.246 +0.00 +0.00    +0.028 C  
DOCKED: BRANCH  80  82
DOCKED: ATOM     81  C1  UNL     1       7.958  -1.081   1.161 +0.00 +0.00    +0.007 C  
DOCKED: ATOM     82  C2  UNL     1       6.670  -1.907   1.159 +0.00 -0.00    -0.015 C  
DOCKED: ATOM     83  C3  UNL     1       5.495  -1.024   0.740 +0.00 +0.00    +0.007 C  
DOCKED: ENDBRANCH  80  82
DOCKED: ENDBRANCH  46  80
DOCKED: ENDBRANCH  43  46
DOCKED: ENDBRANCH   1  43
DOCKED: TORSDOF 36
DOCKED: TER
DOCKED: ENDMDL
________________________________________________________________________________


    FINAL DOCKED STATE:
    ________________________


Run:   5 / 20
Time taken for this run:   7.704s

DOCKED: MODEL        5
DOCKED: USER    Run = 5
DOCKED: USER
DOCKED: USER    Estimated Free Energy of Binding    = +10.74 kcal/mol  [=(1)+(2)+(3)-(4)]
DOCKED: USER
DOCKED: USER    (1) Final Intermolecular Energy     =  +0.00 kcal/mol
DOCKED: USER        vdW + Hbond + desolv Energy     =  +0.00 kcal/mol
DOCKED: USER        Electrostatic Energy            =  +0.00 kcal/mol
DOCKED: USER        Moving Ligand-Fixed Receptor    =  +0.00 kcal/mol
DOCKED: USER        Moving Ligand-Moving Receptor   =  +0.00 kcal/mol
DOCKED: USER    (2) Final Total Internal Energy     = -32.76 kcal/mol
DOCKED: USER    (3) Torsional Free Energy           = +10.74 kcal/mol
DOCKED: USER    (4) Unbound System's Energy         = -32.76 kcal/mol
DOCKED: USER
DOCKED: USER
DOCKED: REMARK  Name = ligands/ligand_15.pdb
DOCKED: REMARK  43 active torsions:
DOCKED: REMARK  status: ('A' for Active; 'I' for Inactive)
DOCKED: REMARK    1  A    between atoms: C1_1  and  C2_2
DOCKED: REMARK    2  A    between atoms: C2_2  and  C3_3
DOCKED: REMARK    3  A    between atoms: C2_2  and  C4_4
DOCKED: REMARK    4  A    between atoms: C4_4  and  C5_5
DOCKED: REMARK    5  A    between atoms: C5_5  and  N1_6
DOCKED: REMARK    6  A    between atoms: C5_5  and  C20_31
DOCKED: REMARK    7  A    between atoms: C6_7  and  C7_9
DOCKED: REMARK    8  A    between atoms: C7_9  and  C8_10
DOCKED: REMARK    9  A    between atoms: C7_9  and  N3_14
DOCKED: REMARK   10  A    between atoms: C8_10  and  C9_11
DOCKED: REMARK   11  A    between atoms: C10_15  and  C11_17
DOCKED: REMARK   12  A    between atoms: C11_17  and  N4_18
DOCKED: REMARK   13  A    between atoms: C11_17  and  C17_28
DOCKED: REMARK   14  A    between atoms: C12_19  and  C13_21
DOCKED: REMARK   15  A    between atoms: C13_21  and  N5_22
DOCKED: REMARK   16  A    between atoms: C13_21  and  C14_23
DOCKED: REMARK   17  A    between atoms: C14_23  and  C15_24
DOCKED: REMARK   18  A    between atoms: C15_24  and  C16_25
DOCKED: REMARK   19  A    between atoms: C16_25  and  O6_27
DOCKED: REMARK   20  A    between atoms: C17_28  and  C18_29
DOCKED: REMARK   21  A    between atoms: C17_28  and  C19_30
DOCKED: REMARK   22  A    between atoms: C20_31  and  O7_32
DOCKED: REMARK   23  A    between atoms: C20_31  and  C21_33
DOCKED: REMARK   24  A    between atoms: C21_33  and  C22_34
DOCKED: REMARK   25  A    between atoms: N6_36  and  C23_37
DOCKED: REMARK   26  A    between atoms: C23_37  and  C24_38
DOCKED: REMARK   27  A    between atoms: C23_37  and  C42_66
DOCKED: REMARK   28  A    between atoms: N7_40  and  C25_41
DOCKED: REMARK   29  A    between atoms: C25_41  and  C26_42
DOCKED: REMARK   30  A    between atoms: C25_41  and  C27_43
DOCKED: REMARK   31  A    between atoms: N8_45  and  C28_46
DOCKED: REMARK   32  A    between atoms: C28_46  and  C29_47
DOCKED: REMARK   33  A    between atoms: C28_46  and  C32_52
DOCKED: REMARK   34  A    between atoms: C29_47  and  C30_48
DOCKED: REMARK   35  A    between atoms: C30_48  and  C31_49
DOCKED: REMARK   36  A    between atoms: C31_49  and  O12_51
DOCKED: REMARK   37  A    between atoms: N9_54  and  C33_55
DOCKED: REMARK   38  A    between atoms: C33_55  and  C34_56
DOCKED: REMARK   39  A    between atoms: C33_55  and  C41_63
DOCKED: REMARK   40  A    between atoms: C34_56  and  C35_57
DOCKED: REMARK   41  A    between atoms: C41_63  and  O15_65
DOCKED: REMARK   42  A    between atoms: C42_66  and  C43_67
DOCKED: REMARK   43  A    between atoms: C42_66  and  C44_68
DOCKED: REMARK                            x       y       z     vdW  Elec       q    Type
DOCKED: REMARK                         _______ _______ _______ _____ _____    ______ ____
DOCKED: USER                              x       y       z     vdW  Elec       q    Type
DOCKED: USER                           _______ _______ _______ _____ _____    ______ ____
DOCKED: ROOT
DOCKED: ATOM      1  C21 UNL     1      10.204  -2.602  -2.631 +0.00 +0.00    +0.129 C  
DOCKED: ENDROOT
DOCKED: BRANCH   1   2
DOCKED: ATOM      2  C22 UNL     1      10.202  -1.477  -1.621 +0.00 +0.00    +0.216 C  
DOCKED: ATOM      3  O8  UNL     1      10.971  -0.521  -1.680 +0.00 -0.00    -0.276 OA 
DOCKED: ATOM      4  N6  UNL     1       9.244  -1.631  -0.654 +0.00 -0.00    -0.304 N  
DOCKED: ATOM      5  H39 UNL     1       8.677  -2.479  -0.638 +0.00 +0.00    +0.149 HD 
DOCKED: BRANCH   4   6
DOCKED: ATOM      6  C23 UNL     1       9.161  -0.808   0.555 +0.00 +0.00    +0.161 C  
DOCKED: BRANCH   6   7
DOCKED: ATOM      7  C24 UNL     1       8.736  -1.792   1.666 +0.00 +0.00    +0.234 C  
DOCKED: ATOM      8  O9  UNL     1       7.968  -2.730   1.431 +0.00 -0.00    -0.274 OA 
DOCKED: ATOM      9  N7  UNL     1       9.261  -1.576   2.915 +0.00 -0.00    -0.303 N  
DOCKED: ATOM     10  H41 UNL     1       9.795  -0.736   3.110 +0.00 +0.00    +0.149 HD 
DOCKED: BRANCH   9  11
DOCKED: ATOM     11  C25 UNL     1       8.836  -2.357   4.071 +0.00 +0.00    +0.156 C  
DOCKED: ATOM     12  C26 UNL     1       7.343  -2.648   4.008 +0.00 +0.00    +0.038 C  
DOCKED: BRANCH  11  13
DOCKED: ATOM     13  C27 UNL     1       9.646  -3.662   4.108 +0.00 +0.00    +0.234 C  
DOCKED: ATOM     14  O10 UNL     1      10.084  -4.138   5.157 +0.00 -0.00    -0.274 OA 
DOCKED: ATOM     15  N8  UNL     1       9.856  -4.237   2.877 +0.00 -0.00    -0.302 N  
DOCKED: ATOM     16  H46 UNL     1       9.499  -3.800   2.031 +0.00 +0.00    +0.150 HD 
DOCKED: BRANCH  15  17
DOCKED: ATOM     17  C28 UNL     1      10.594  -5.488   2.700 +0.00 +0.00    +0.159 C  
DOCKED: BRANCH  17  18
DOCKED: ATOM     18  C32 UNL     1      12.020  -5.082   2.279 +0.00 +0.00    +0.234 C  
DOCKED: ATOM     19  O13 UNL     1      12.352  -3.897   2.184 +0.00 -0.00    -0.274 OA 
DOCKED: ATOM     20  N9  UNL     1      12.878  -6.118   2.002 +0.00 -0.00    -0.301 N  
DOCKED: ATOM     21  H53 UNL     1      12.612  -7.075   2.244 +0.00 +0.00    +0.150 HD 
DOCKED: BRANCH  20  22
DOCKED: ATOM     22  C33 UNL     1      14.286  -5.878   1.658 +0.00 +0.00    +0.186 C  
DOCKED: BRANCH  22  23
DOCKED: ATOM     23  C41 UNL     1      14.326  -4.768   0.614 +0.00 +0.00    +0.326 C  
DOCKED: ATOM     24  O14 UNL     1      15.228  -3.956   0.457 +0.00 -0.00    -0.249 OA 
DOCKED: BRANCH  23  25
DOCKED: ATOM     25  O15 UNL     1      13.237  -4.730  -0.178 +0.00 -0.00    -0.479 OA 
DOCKED: ATOM     26  H62 UNL     1      12.774  -3.901   0.065 +0.00 +0.00    +0.295 HD 
DOCKED: ENDBRANCH  23  25
DOCKED: ENDBRANCH  22  23
DOCKED: BRANCH  22  27
DOCKED: ATOM     27  C34 UNL     1      14.934  -7.156   1.109 +0.00 +0.00    +0.069 C  
DOCKED: BRANCH  27  28
DOCKED: ATOM     28  C35 UNL     1      14.117  -7.829   0.031 +0.00 -0.00    -0.045 A  
DOCKED: ATOM     29  C36 UNL     1      13.179  -8.813   0.376 +0.00 +0.00    +0.004 A  
DOCKED: ATOM     30  C37 UNL     1      12.409  -9.433  -0.607 +0.00 +0.00    +0.000 A  
DOCKED: ATOM     31  C38 UNL     1      12.567  -9.077  -1.945 +0.00 +0.00    +0.000 A  
DOCKED: ATOM     32  C39 UNL     1      13.501  -8.105  -2.300 +0.00 +0.00    +0.000 A  
DOCKED: ATOM     33  C40 UNL     1      14.274  -7.484  -1.317 +0.00 +0.00    +0.004 A  
DOCKED: ENDBRANCH  27  28
DOCKED: ENDBRANCH  22  27
DOCKED: ENDBRANCH  20  22
DOCKED: ENDBRANCH  17  18
DOCKED: BRANCH  17  34
DOCKED: ATOM     34  C29 UNL     1       9.892  -6.369   1.650 +0.00 +0.00    +0.043 C  
DOCKED: BRANCH  34  35
DOCKED: ATOM     35  C30 UNL     1      10.268  -6.114   0.192 +0.00 +0.00    +0.123 C  
DOCKED: BRANCH  35  36
DOCKED: ATOM     36  C31 UNL     1       9.786  -4.774  -0.281 +0.00 +0.00    +0.305 C  
DOCKED: ATOM     37  O11 UNL     1       8.776  -4.600  -0.948 +0.00 -0.00    -0.251 OA 
DOCKED: BRANCH  36  38
DOCKED: ATOM     38  O12 UNL     1      10.539  -3.751   0.152 +0.00 -0.00    -0.481 OA 
DOCKED: ATOM     39  H52 UNL     1      11.450  -4.108   0.210 +0.00 +0.00    +0.295 HD 
DOCKED: ENDBRANCH  36  38
DOCKED: ENDBRANCH  35  36
DOCKED: ENDBRANCH  34  35
DOCKED: ENDBRANCH  17  34
DOCKED: ENDBRANCH  15  17
DOCKED: ENDBRANCH  11  13
DOCKED: ENDBRANCH   9  11
DOCKED: ENDBRANCH   6   7
DOCKED: BRANCH   6  40
DOCKED: ATOM     40  C42 UNL     1       8.207   0.388   0.342 +0.00 +0.00    +0.012 C  
DOCKED: ATOM     41  C43 UNL     1       8.158   1.327   1.552 +0.00 +0.00    +0.009 C  
DOCKED: ATOM     42  C44 UNL     1       6.788  -0.040  -0.043 +0.00 +0.00    +0.009 C  
DOCKED: ENDBRANCH   6  40
DOCKED: ENDBRANCH   4   6
DOCKED: ENDBRANCH   1   2
DOCKED: BRANCH   1  43
DOCKED: ATOM     43  C20 UNL     1      11.610  -3.189  -2.804 +0.00 +0.00    +0.143 C  
DOCKED: BRANCH  43  44
DOCKED: ATOM     44  O7  UNL     1      12.286  -3.211  -1.532 +0.00 -0.00    -0.389 OA 
DOCKED: ATOM     45  H36 UNL     1      11.898  -2.464  -1.028 +0.00 +0.00    +0.210 HD 
DOCKED: ENDBRANCH  43  44
DOCKED: BRANCH  43  46
DOCKED: ATOM     46  C5  UNL     1      12.407  -2.367  -3.867 +0.00 +0.00    +0.102 C  
DOCKED: BRANCH  46  47
DOCKED: ATOM     47  N1  UNL     1      12.899  -1.104  -3.344 +0.00 -0.00    -0.308 N  
DOCKED: ATOM     48  C6  UNL     1      12.964   0.017  -4.145 +0.00 +0.00    +0.234 C  
DOCKED: ATOM     49  O1  UNL     1      12.606   0.020  -5.324 +0.00 -0.00    -0.274 OA 
DOCKED: ATOM     50  H11 UNL     1      12.904  -0.986  -2.342 +0.00 +0.00    +0.149 HD 
DOCKED: BRANCH  48  51
DOCKED: ATOM     51  C7  UNL     1      13.541   1.261  -3.441 +0.00 +0.00    +0.168 C  
DOCKED: BRANCH  51  52
DOCKED: ATOM     52  N3  UNL     1      13.145   1.245  -2.035 +0.00 -0.00    -0.302 N  
DOCKED: ATOM     53  C10 UNL     1      12.337   2.258  -1.556 +0.00 +0.00    +0.234 C  
DOCKED: ATOM     54  O3  UNL     1      12.162   3.308  -2.178 +0.00 -0.00    -0.274 OA 
DOCKED: ATOM     55  H17 UNL     1      13.008   0.309  -1.651 +0.00 +0.00    +0.150 HD 
DOCKED: BRANCH  53  56
DOCKED: ATOM     56  C11 UNL     1      11.657   1.995  -0.187 +0.00 +0.00    +0.161 C  
DOCKED: BRANCH  56  57
DOCKED: ATOM     57  N4  UNL     1      12.280   0.785   0.363 +0.00 -0.00    -0.302 N  
DOCKED: ATOM     58  C12 UNL     1      11.867   0.221   1.551 +0.00 +0.00    +0.230 C  
DOCKED: ATOM     59  O4  UNL     1      11.103   0.778   2.335 +0.00 -0.00    -0.274 OA 
DOCKED: ATOM     60  H19 UNL     1      12.576   0.125  -0.346 +0.00 +0.00    +0.150 HD 
DOCKED: BRANCH  58  61
DOCKED: ATOM     61  C13 UNL     1      12.431  -1.195   1.811 +0.00 +0.00    +0.138 C  
DOCKED: BRANCH  61  62
DOCKED: ATOM     62  N5  UNL     1      12.247  -2.024   0.607 +0.00 -0.00    -0.320 NA 
DOCKED: ATOM     63  H21 UNL     1      12.348  -1.425  -0.216 +0.00 +0.00    +0.119 HD 
DOCKED: ATOM     64  H22 UNL     1      12.994  -2.717   0.527 +0.00 +0.00    +0.119 HD 
DOCKED: ENDBRANCH  61  62
DOCKED: BRANCH  61  65
DOCKED: ATOM     65  C14 UNL     1      13.902  -1.138   2.261 +0.00 +0.00    +0.039 C  
DOCKED: BRANCH  65  66
DOCKED: ATOM     66  C15 UNL     1      14.894  -1.470   1.146 +0.00 +0.00    +0.122 C  
DOCKED: BRANCH  66  67
DOCKED: ATOM     67  C16 UNL     1      14.564  -0.762  -0.140 +0.00 +0.00    +0.305 C  
DOCKED: ATOM     68  O5  UNL     1      14.837   0.390  -0.437 +0.00 -0.00    -0.251 OA 
DOCKED: BRANCH  67  69
DOCKED: ATOM     69  O6  UNL     1      13.961  -1.575  -1.033 +0.00 -0.00    -0.481 OA 
DOCKED: ATOM     70  H27 UNL     1      13.993  -2.454  -0.603 +0.00 +0.00    +0.295 HD 
DOCKED: ENDBRANCH  67  69
DOCKED: ENDBRANCH  66  67
DOCKED: ENDBRANCH  65  66
DOCKED: ENDBRANCH  61  65
DOCKED: ENDBRANCH  58  61
DOCKED: ENDBRANCH  56  57
DOCKED: BRANCH  56  71
DOCKED: ATOM     71  C17 UNL     1      11.795   3.175   0.800 +0.00 +0.00    +0.012 C  
DOCKED: ATOM     72  C18 UNL     1      10.871   4.352   0.469 +0.00 +0.00    +0.009 C  
DOCKED: ATOM     73  C19 UNL     1      13.248   3.662   0.858 +0.00 +0.00    +0.009 C  
DOCKED: ENDBRANCH  56  71
DOCKED: ENDBRANCH  53  56
DOCKED: ENDBRANCH  51  52
DOCKED: BRANCH  51  74
DOCKED: ATOM     74  C8  UNL     1      15.051   1.327  -3.657 +0.00 +0.00    +0.127 C  
DOCKED: BRANCH  74  75
DOCKED: ATOM     75  C9  UNL     1      15.635  -0.020  -4.029 +0.00 +0.00    +0.213 C  
DOCKED: ATOM     76  N2  UNL     1      15.646  -0.948  -3.027 +0.00 -0.00    -0.329 N  
DOCKED: ATOM     77  O2  UNL     1      15.994  -0.316  -5.164 +0.00 -0.00    -0.276 OA 
DOCKED: ATOM     78  H15 UNL     1      15.642  -0.663  -2.050 +0.00 +0.00    +0.145 HD 
DOCKED: ATOM     79  H16 UNL     1      16.127  -1.810  -3.241 +0.00 +0.00    +0.145 HD 
DOCKED: ENDBRANCH  74  75
DOCKED: ENDBRANCH  51  74
DOCKED: ENDBRANCH  48  51
DOCKED: ENDBRANCH  46  47
DOCKED: BRANCH  46  80
DOCKED: ATOM     80  C4  UNL     1      13.569  -3.200  -4.437 +0.00 +0.00    +0.028 C  
DOCKED: BRANCH  80  82
DOCKED: ATOM     81  C1  UNL     1      14.229  -5.626  -4.484 +0.00 +0.00    +0.007 C  
DOCKED: ATOM     82  C2  UNL     1      13.974  -4.419  -3.578 +0.00 -0.00    -0.015 C  
DOCKED: ATOM     83  C3  UNL     1      15.211  -4.151  -2.720 +0.00 +0.00    +0.007 C  
DOCKED: ENDBRANCH  80  82
DOCKED: ENDBRANCH  46  80
DOCKED: ENDBRANCH  43  46
DOCKED: ENDBRANCH   1  43
DOCKED: TORSDOF 36
DOCKED: TER
DOCKED: ENDMDL
________________________________________________________________________________


    FINAL DOCKED STATE:
    ________________________


Run:   6 / 20
Time taken for this run:   7.704s

DOCKED: MODEL        6
DOCKED: USER    Run = 6
DOCKED: USER
DOCKED: USER    Estimated Free Energy of Binding    = +10.74 kcal/mol  [=(1)+(2)+(3)-(4)]
DOCKED: USER
DOCKED: USER    (1) Final Intermolecular Energy     =  +0.00 kcal/mol
DOCKED: USER        vdW + Hbond + desolv Energy     =  +0.00 kcal/mol
DOCKED: USER        Electrostatic Energy            =  +0.00 kcal/mol
DOCKED: USER        Moving Ligand-Fixed Receptor    =  +0.00 kcal/mol
DOCKED: USER        Moving Ligand-Moving Receptor   =  +0.00 kcal/mol
DOCKED: USER    (2) Final Total Internal Energy     = -32.47 kcal/mol
DOCKED: USER    (3) Torsional Free Energy           = +10.74 kcal/mol
DOCKED: USER    (4) Unbound System's Energy         = -32.47 kcal/mol
DOCKED: USER
DOCKED: USER
DOCKED: REMARK  Name = ligands/ligand_15.pdb
DOCKED: REMARK  43 active torsions:
DOCKED: REMARK  status: ('A' for Active; 'I' for Inactive)
DOCKED: REMARK    1  A    between atoms: C1_1  and  C2_2
DOCKED: REMARK    2  A    between atoms: C2_2  and  C3_3
DOCKED: REMARK    3  A    between atoms: C2_2  and  C4_4
DOCKED: REMARK    4  A    between atoms: C4_4  and  C5_5
DOCKED: REMARK    5  A    between atoms: C5_5  and  N1_6
DOCKED: REMARK    6  A    between atoms: C5_5  and  C20_31
DOCKED: REMARK    7  A    between atoms: C6_7  and  C7_9
DOCKED: REMARK    8  A    between atoms: C7_9  and  C8_10
DOCKED: REMARK    9  A    between atoms: C7_9  and  N3_14
DOCKED: REMARK   10  A    between atoms: C8_10  and  C9_11
DOCKED: REMARK   11  A    between atoms: C10_15  and  C11_17
DOCKED: REMARK   12  A    between atoms: C11_17  and  N4_18
DOCKED: REMARK   13  A    between atoms: C11_17  and  C17_28
DOCKED: REMARK   14  A    between atoms: C12_19  and  C13_21
DOCKED: REMARK   15  A    between atoms: C13_21  and  N5_22
DOCKED: REMARK   16  A    between atoms: C13_21  and  C14_23
DOCKED: REMARK   17  A    between atoms: C14_23  and  C15_24
DOCKED: REMARK   18  A    between atoms: C15_24  and  C16_25
DOCKED: REMARK   19  A    between atoms: C16_25  and  O6_27
DOCKED: REMARK   20  A    between atoms: C17_28  and  C18_29
DOCKED: REMARK   21  A    between atoms: C17_28  and  C19_30
DOCKED: REMARK   22  A    between atoms: C20_31  and  O7_32
DOCKED: REMARK   23  A    between atoms: C20_31  and  C21_33
DOCKED: REMARK   24  A    between atoms: C21_33  and  C22_34
DOCKED: REMARK   25  A    between atoms: N6_36  and  C23_37
DOCKED: REMARK   26  A    between atoms: C23_37  and  C24_38
DOCKED: REMARK   27  A    between atoms: C23_37  and  C42_66
DOCKED: REMARK   28  A    between atoms: N7_40  and  C25_41
DOCKED: REMARK   29  A    between atoms: C25_41  and  C26_42
DOCKED: REMARK   30  A    between atoms: C25_41  and  C27_43
DOCKED: REMARK   31  A    between atoms: N8_45  and  C28_46
DOCKED: REMARK   32  A    between atoms: C28_46  and  C29_47
DOCKED: REMARK   33  A    between atoms: C28_46  and  C32_52
DOCKED: REMARK   34  A    between atoms: C29_47  and  C30_48
DOCKED: REMARK   35  A    between atoms: C30_48  and  C31_49
DOCKED: REMARK   36  A    between atoms: C31_49  and  O12_51
DOCKED: REMARK   37  A    between atoms: N9_54  and  C33_55
DOCKED: REMARK   38  A    between atoms: C33_55  and  C34_56
DOCKED: REMARK   39  A    between atoms: C33_55  and  C41_63
DOCKED: REMARK   40  A    between atoms: C34_56  and  C35_57
DOCKED: REMARK   41  A    between atoms: C41_63  and  O15_65
DOCKED: REMARK   42  A    between atoms: C42_66  and  C43_67
DOCKED: REMARK   43  A    between atoms: C42_66  and  C44_68
DOCKED: REMARK                            x       y       z     vdW  Elec       q    Type
DOCKED: REMARK                         _______ _______ _______ _____ _____    ______ ____
DOCKED: USER                              x       y       z     vdW  Elec       q    Type
DOCKED: USER                           _______ _______ _______ _____ _____    ______ ____
DOCKED: ROOT
DOCKED: ATOM      1  C21 UNL     1       7.446  -0.983  -6.020 +0.00 +0.00    +0.129 C  
DOCKED: ENDROOT
DOCKED: BRANCH   1   2
DOCKED: ATOM      2  C22 UNL     1       7.524  -2.395  -5.487 +0.00 +0.00    +0.216 C  
DOCKED: ATOM      3  O8  UNL     1       6.541  -3.125  -5.378 +0.00 -0.00    -0.276 OA 
DOCKED: ATOM      4  N6  UNL     1       8.799  -2.773  -5.162 +0.00 -0.00    -0.304 N  
DOCKED: ATOM      5  H39 UNL     1       9.557  -2.094  -5.229 +0.00 +0.00    +0.149 HD 
DOCKED: BRANCH   4   6
DOCKED: ATOM      6  C23 UNL     1       9.129  -3.999  -4.432 +0.00 +0.00    +0.161 C  
DOCKED: BRANCH   6   7
DOCKED: ATOM      7  C24 UNL     1      10.052  -3.532  -3.286 +0.00 +0.00    +0.234 C  
DOCKED: ATOM      8  O9  UNL     1      10.377  -2.347  -3.169 +0.00 -0.00    -0.274 OA 
DOCKED: ATOM      9  N7  UNL     1      10.480  -4.496  -2.408 +0.00 -0.00    -0.303 N  
DOCKED: ATOM     10  H41 UNL     1      10.297  -5.476  -2.591 +0.00 +0.00    +0.149 HD 
DOCKED: BRANCH   9  11
DOCKED: ATOM     11  C25 UNL     1      11.456  -4.203  -1.364 +0.00 +0.00    +0.156 C  
DOCKED: ATOM     12  C26 UNL     1      11.493  -5.320  -0.330 +0.00 +0.00    +0.038 C  
DOCKED: BRANCH  11  13
DOCKED: ATOM     13  C27 UNL     1      12.834  -4.017  -2.016 +0.00 +0.00    +0.234 C  
DOCKED: ATOM     14  O10 UNL     1      13.657  -4.931  -2.093 +0.00 -0.00    -0.274 OA 
DOCKED: ATOM     15  N8  UNL     1      13.077  -2.746  -2.481 +0.00 -0.00    -0.302 N  
DOCKED: ATOM     16  H46 UNL     1      12.382  -2.011  -2.376 +0.00 +0.00    +0.150 HD 
DOCKED: BRANCH  15  17
DOCKED: ATOM     17  C28 UNL     1      14.326  -2.368  -3.144 +0.00 +0.00    +0.159 C  
DOCKED: BRANCH  17  18
DOCKED: ATOM     18  C32 UNL     1      14.824  -1.103  -2.417 +0.00 +0.00    +0.234 C  
DOCKED: ATOM     19  O13 UNL     1      16.027  -0.892  -2.240 +0.00 -0.00    -0.274 OA 
DOCKED: ATOM     20  N9  UNL     1      13.846  -0.249  -1.968 +0.00 -0.00    -0.301 N  
DOCKED: ATOM     21  H53 UNL     1      12.880  -0.382  -2.272 +0.00 +0.00    +0.150 HD 
DOCKED: BRANCH  20  22
DOCKED: ATOM     22  C33 UNL     1      14.179   1.028  -1.323 +0.00 +0.00    +0.186 C  
DOCKED: BRANCH  22  23
DOCKED: ATOM     23  C41 UNL     1      12.902   1.857  -1.249 +0.00 +0.00    +0.326 C  
DOCKED: ATOM     24  O14 UNL     1      12.635   2.698  -0.401 +0.00 -0.00    -0.249 OA 
DOCKED: BRANCH  23  25
DOCKED: ATOM     25  O15 UNL     1      12.025   1.591  -2.236 +0.00 -0.00    -0.479 OA 
DOCKED: ATOM     26  H62 UNL     1      11.372   0.977  -1.838 +0.00 +0.00    +0.295 HD 
DOCKED: ENDBRANCH  23  25
DOCKED: ENDBRANCH  22  23
DOCKED: BRANCH  22  27
DOCKED: ATOM     27  C34 UNL     1      15.257   1.773  -2.124 +0.00 +0.00    +0.069 C  
DOCKED: BRANCH  27  28
DOCKED: ATOM     28  C35 UNL     1      14.693   2.726  -3.150 +0.00 -0.00    -0.045 A  
DOCKED: ATOM     29  C36 UNL     1      14.801   4.111  -2.953 +0.00 +0.00    +0.004 A  
DOCKED: ATOM     30  C37 UNL     1      14.297   5.002  -3.899 +0.00 +0.00    +0.000 A  
DOCKED: ATOM     31  C38 UNL     1      13.680   4.521  -5.052 +0.00 +0.00    +0.000 A  
DOCKED: ATOM     32  C39 UNL     1      13.562   3.147  -5.255 +0.00 +0.00    +0.000 A  
DOCKED: ATOM     33  C40 UNL     1      14.064   2.253  -4.309 +0.00 +0.00    +0.004 A  
DOCKED: ENDBRANCH  27  28
DOCKED: ENDBRANCH  22  27
DOCKED: ENDBRANCH  20  22
DOCKED: ENDBRANCH  17  18
DOCKED: BRANCH  17  34
DOCKED: ATOM     34  C29 UNL     1      14.075  -2.131  -4.645 +0.00 +0.00    +0.043 C  
DOCKED: BRANCH  34  35
DOCKED: ATOM     35  C30 UNL     1      13.513  -0.764  -5.029 +0.00 +0.00    +0.123 C  
DOCKED: BRANCH  35  36
DOCKED: ATOM     36  C31 UNL     1      12.030  -0.689  -4.807 +0.00 +0.00    +0.305 C  
DOCKED: ATOM     37  O11 UNL     1      11.191  -1.006  -5.638 +0.00 -0.00    -0.251 OA 
DOCKED: BRANCH  36  38
DOCKED: ATOM     38  O12 UNL     1      11.694  -0.296  -3.569 +0.00 -0.00    -0.481 OA 
DOCKED: ATOM     39  H52 UNL     1      10.986   0.371  -3.693 +0.00 +0.00    +0.295 HD 
DOCKED: ENDBRANCH  36  38
DOCKED: ENDBRANCH  35  36
DOCKED: ENDBRANCH  34  35
DOCKED: ENDBRANCH  17  34
DOCKED: ENDBRANCH  15  17
DOCKED: ENDBRANCH  11  13
DOCKED: ENDBRANCH   9  11
DOCKED: ENDBRANCH   6   7
DOCKED: BRANCH   6  40
DOCKED: ATOM     40  C42 UNL     1       9.745  -5.054  -5.378 +0.00 +0.00    +0.012 C  
DOCKED: ATOM     41  C43 UNL     1      11.241  -4.828  -5.619 +0.00 +0.00    +0.009 C  
DOCKED: ATOM     42  C44 UNL     1       9.011  -5.158  -6.718 +0.00 +0.00    +0.009 C  
DOCKED: ENDBRANCH   6  40
DOCKED: ENDBRANCH   4   6
DOCKED: ENDBRANCH   1   2
DOCKED: BRANCH   1  43
DOCKED: ATOM     43  C20 UNL     1       8.709  -0.186  -5.670 +0.00 +0.00    +0.143 C  
DOCKED: BRANCH  43  44
DOCKED: ATOM     44  O7  UNL     1       8.917  -0.211  -4.244 +0.00 -0.00    -0.389 OA 
DOCKED: ATOM     45  H36 UNL     1       9.688  -0.802  -4.113 +0.00 +0.00    +0.210 HD 
DOCKED: ENDBRANCH  43  44
DOCKED: BRANCH  43  46
DOCKED: ATOM     46  C5  UNL     1       8.589   1.274  -6.211 +0.00 +0.00    +0.102 C  
DOCKED: BRANCH  46  47
DOCKED: ATOM     47  N1  UNL     1       8.945   2.271  -5.215 +0.00 -0.00    -0.308 N  
DOCKED: ATOM     48  C6  UNL     1       8.360   3.520  -5.223 +0.00 +0.00    +0.234 C  
DOCKED: ATOM     49  O1  UNL     1       7.508   3.856  -6.047 +0.00 -0.00    -0.274 OA 
DOCKED: ATOM     50  H11 UNL     1       9.385   1.946  -4.368 +0.00 +0.00    +0.149 HD 
DOCKED: BRANCH  48  51
DOCKED: ATOM     51  C7  UNL     1       8.877   4.464  -4.119 +0.00 +0.00    +0.168 C  
DOCKED: BRANCH  51  52
DOCKED: ATOM     52  N3  UNL     1       8.360   4.020  -2.826 +0.00 -0.00    -0.302 N  
DOCKED: ATOM     53  C10 UNL     1       8.971   2.956  -2.191 +0.00 +0.00    +0.234 C  
DOCKED: ATOM     54  O3  UNL     1       9.744   2.197  -2.779 +0.00 -0.00    -0.274 OA 
DOCKED: ATOM     55  H17 UNL     1       7.996   4.773  -2.242 +0.00 +0.00    +0.150 HD 
DOCKED: BRANCH  53  56
DOCKED: ATOM     56  C11 UNL     1       8.629   2.774  -0.690 +0.00 +0.00    +0.161 C  
DOCKED: BRANCH  56  57
DOCKED: ATOM     57  N4  UNL     1       8.291   1.358  -0.507 +0.00 -0.00    -0.302 N  
DOCKED: ATOM     58  C12 UNL     1       7.355   0.718  -1.292 +0.00 +0.00    +0.230 C  
DOCKED: ATOM     59  O4  UNL     1       6.596   1.307  -2.056 +0.00 -0.00    -0.274 OA 
DOCKED: ATOM     60  H19 UNL     1       9.079   0.787  -0.227 +0.00 +0.00    +0.150 HD 
DOCKED: BRANCH  58  61
DOCKED: ATOM     61  C13 UNL     1       7.354  -0.822  -1.149 +0.00 +0.00    +0.138 C  
DOCKED: BRANCH  61  62
DOCKED: ATOM     62  N5  UNL     1       7.785  -1.433  -2.418 +0.00 -0.00    -0.320 NA 
DOCKED: ATOM     63  H21 UNL     1       7.506  -0.816  -3.184 +0.00 +0.00    +0.119 HD 
DOCKED: ATOM     64  H22 UNL     1       8.804  -1.480  -2.470 +0.00 +0.00    +0.119 HD 
DOCKED: ENDBRANCH  61  62
DOCKED: BRANCH  61  65
DOCKED: ATOM     65  C14 UNL     1       8.222  -1.274   0.040 +0.00 +0.00    +0.039 C  
DOCKED: BRANCH  65  66
DOCKED: ATOM     66  C15 UNL     1       9.538  -1.929  -0.380 +0.00 +0.00    +0.122 C  
DOCKED: BRANCH  66  67
DOCKED: ATOM     67  C16 UNL     1      10.520  -0.931  -0.932 +0.00 +0.00    +0.305 C  
DOCKED: ATOM     68  O5  UNL     1      11.699  -0.819  -0.638 +0.00 -0.00    -0.251 OA 
DOCKED: BRANCH  67  69
DOCKED: ATOM     69  O6  UNL     1       9.978  -0.159  -1.897 +0.00 -0.00    -0.481 OA 
DOCKED: ATOM     70  H27 UNL     1       9.877  -0.772  -2.653 +0.00 +0.00    +0.295 HD 
DOCKED: ENDBRANCH  67  69
DOCKED: ENDBRANCH  66  67
DOCKED: ENDBRANCH  65  66
DOCKED: ENDBRANCH  61  65
DOCKED: ENDBRANCH  58  61
DOCKED: ENDBRANCH  56  57
DOCKED: BRANCH  56  71
DOCKED: ATOM     71  C17 UNL     1       9.782   3.185   0.253 +0.00 +0.00    +0.012 C  
DOCKED: ATOM     72  C18 UNL     1       9.902   2.286   1.489 +0.00 +0.00    +0.009 C  
DOCKED: ATOM     73  C19 UNL     1       9.623   4.646   0.692 +0.00 +0.00    +0.009 C  
DOCKED: ENDBRANCH  56  71
DOCKED: ENDBRANCH  53  56
DOCKED: ENDBRANCH  51  52
DOCKED: BRANCH  51  74
DOCKED: ATOM     74  C8  UNL     1      10.401   4.548  -4.180 +0.00 +0.00    +0.127 C  
DOCKED: BRANCH  74  75
DOCKED: ATOM     75  C9  UNL     1      10.988   5.195  -2.943 +0.00 +0.00    +0.213 C  
DOCKED: ATOM     76  N2  UNL     1      11.661   4.350  -2.107 +0.00 -0.00    -0.329 N  
DOCKED: ATOM     77  O2  UNL     1      10.959   6.402  -2.727 +0.00 -0.00    -0.276 OA 
DOCKED: ATOM     78  H15 UNL     1      11.457   3.353  -2.094 +0.00 +0.00    +0.145 HD 
DOCKED: ATOM     79  H16 UNL     1      11.964   4.758  -1.233 +0.00 +0.00    +0.145 HD 
DOCKED: ENDBRANCH  74  75
DOCKED: ENDBRANCH  51  74
DOCKED: ENDBRANCH  48  51
DOCKED: ENDBRANCH  46  47
DOCKED: BRANCH  46  80
DOCKED: ATOM     80  C4  UNL     1       9.441   1.455  -7.480 +0.00 +0.00    +0.028 C  
DOCKED: BRANCH  80  82
DOCKED: ATOM     81  C1  UNL     1      11.871   1.046  -7.980 +0.00 +0.00    +0.007 C  
DOCKED: ATOM     82  C2  UNL     1      10.886   1.940  -7.225 +0.00 -0.00    -0.015 C  
DOCKED: ATOM     83  C3  UNL     1      11.099   3.398  -7.635 +0.00 +0.00    +0.007 C  
DOCKED: ENDBRANCH  80  82
DOCKED: ENDBRANCH  46  80
DOCKED: ENDBRANCH  43  46
DOCKED: ENDBRANCH   1  43
DOCKED: TORSDOF 36
DOCKED: TER
DOCKED: ENDMDL
________________________________________________________________________________


    FINAL DOCKED STATE:
    ________________________


Run:   7 / 20
Time taken for this run:   7.704s

DOCKED: MODEL        7
DOCKED: USER    Run = 7
DOCKED: USER
DOCKED: USER    Estimated Free Energy of Binding    = +10.74 kcal/mol  [=(1)+(2)+(3)-(4)]
DOCKED: USER
DOCKED: USER    (1) Final Intermolecular Energy     =  +0.00 kcal/mol
DOCKED: USER        vdW + Hbond + desolv Energy     =  +0.00 kcal/mol
DOCKED: USER        Electrostatic Energy            =  +0.00 kcal/mol
DOCKED: USER        Moving Ligand-Fixed Receptor    =  +0.00 kcal/mol
DOCKED: USER        Moving Ligand-Moving Receptor   =  +0.00 kcal/mol
DOCKED: USER    (2) Final Total Internal Energy     = -33.21 kcal/mol
DOCKED: USER    (3) Torsional Free Energy           = +10.74 kcal/mol
DOCKED: USER    (4) Unbound System's Energy         = -33.21 kcal/mol
DOCKED: USER
DOCKED: USER
DOCKED: REMARK  Name = ligands/ligand_15.pdb
DOCKED: REMARK  43 active torsions:
DOCKED: REMARK  status: ('A' for Active; 'I' for Inactive)
DOCKED: REMARK    1  A    between atoms: C1_1  and  C2_2
DOCKED: REMARK    2  A    between atoms: C2_2  and  C3_3
DOCKED: REMARK    3  A    between atoms: C2_2  and  C4_4
DOCKED: REMARK    4  A    between atoms: C4_4  and  C5_5
DOCKED: REMARK    5  A    between atoms: C5_5  and  N1_6
DOCKED: REMARK    6  A    between atoms: C5_5  and  C20_31
DOCKED: REMARK    7  A    between atoms: C6_7  and  C7_9
DOCKED: REMARK    8  A    between atoms: C7_9  and  C8_10
DOCKED: REMARK    9  A    between atoms: C7_9  and  N3_14
DOCKED: REMARK   10  A    between atoms: C8_10  and  C9_11
DOCKED: REMARK   11  A    between atoms: C10_15  and  C11_17
DOCKED: REMARK   12  A    between atoms: C11_17  and  N4_18
DOCKED: REMARK   13  A    between atoms: C11_17  and  C17_28
DOCKED: REMARK   14  A    between atoms: C12_19  and  C13_21
DOCKED: REMARK   15  A    between atoms: C13_21  and  N5_22
DOCKED: REMARK   16  A    between atoms: C13_21  and  C14_23
DOCKED: REMARK   17  A    between atoms: C14_23  and  C15_24
DOCKED: REMARK   18  A    between atoms: C15_24  and  C16_25
DOCKED: REMARK   19  A    between atoms: C16_25  and  O6_27
DOCKED: REMARK   20  A    between atoms: C17_28  and  C18_29
DOCKED: REMARK   21  A    between atoms: C17_28  and  C19_30
DOCKED: REMARK   22  A    between atoms: C20_31  and  O7_32
DOCKED: REMARK   23  A    between atoms: C20_31  and  C21_33
DOCKED: REMARK   24  A    between atoms: C21_33  and  C22_34
DOCKED: REMARK   25  A    between atoms: N6_36  and  C23_37
DOCKED: REMARK   26  A    between atoms: C23_37  and  C24_38
DOCKED: REMARK   27  A    between atoms: C23_37  and  C42_66
DOCKED: REMARK   28  A    between atoms: N7_40  and  C25_41
DOCKED: REMARK   29  A    between atoms: C25_41  and  C26_42
DOCKED: REMARK   30  A    between atoms: C25_41  and  C27_43
DOCKED: REMARK   31  A    between atoms: N8_45  and  C28_46
DOCKED: REMARK   32  A    between atoms: C28_46  and  C29_47
DOCKED: REMARK   33  A    between atoms: C28_46  and  C32_52
DOCKED: REMARK   34  A    between atoms: C29_47  and  C30_48
DOCKED: REMARK   35  A    between atoms: C30_48  and  C31_49
DOCKED: REMARK   36  A    between atoms: C31_49  and  O12_51
DOCKED: REMARK   37  A    between atoms: N9_54  and  C33_55
DOCKED: REMARK   38  A    between atoms: C33_55  and  C34_56
DOCKED: REMARK   39  A    between atoms: C33_55  and  C41_63
DOCKED: REMARK   40  A    between atoms: C34_56  and  C35_57
DOCKED: REMARK   41  A    between atoms: C41_63  and  O15_65
DOCKED: REMARK   42  A    between atoms: C42_66  and  C43_67
DOCKED: REMARK   43  A    between atoms: C42_66  and  C44_68
DOCKED: REMARK                            x       y       z     vdW  Elec       q    Type
DOCKED: REMARK                         _______ _______ _______ _____ _____    ______ ____
DOCKED: USER                              x       y       z     vdW  Elec       q    Type
DOCKED: USER                           _______ _______ _______ _____ _____    ______ ____
DOCKED: ROOT
DOCKED: ATOM      1  C21 UNL     1       5.565  -4.383  -2.969 +0.00 +0.00    +0.129 C  
DOCKED: ENDROOT
DOCKED: BRANCH   1   2
DOCKED: ATOM      2  C22 UNL     1       6.775  -4.923  -3.696 +0.00 +0.00    +0.216 C  
DOCKED: ATOM      3  O8  UNL     1       7.224  -4.415  -4.722 +0.00 -0.00    -0.276 OA 
DOCKED: ATOM      4  N6  UNL     1       7.323  -6.017  -3.081 +0.00 -0.00    -0.304 N  
DOCKED: ATOM      5  H39 UNL     1       6.864  -6.415  -2.261 +0.00 +0.00    +0.149 HD 
DOCKED: BRANCH   4   6
DOCKED: ATOM      6  C23 UNL     1       8.362  -6.858  -3.679 +0.00 +0.00    +0.161 C  
DOCKED: BRANCH   6   7
DOCKED: ATOM      7  C24 UNL     1       8.093  -8.269  -3.112 +0.00 +0.00    +0.234 C  
DOCKED: ATOM      8  O9  UNL     1       7.184  -8.470  -2.300 +0.00 -0.00    -0.274 OA 
DOCKED: ATOM      9  N7  UNL     1       8.904  -9.279  -3.562 +0.00 -0.00    -0.303 N  
DOCKED: ATOM     10  H41 UNL     1       9.713  -9.072  -4.136 +0.00 +0.00    +0.149 HD 
DOCKED: BRANCH   9  11
DOCKED: ATOM     11  C25 UNL     1       8.832 -10.626  -3.006 +0.00 +0.00    +0.156 C  
DOCKED: ATOM     12  C26 UNL     1       8.975 -10.594  -1.490 +0.00 +0.00    +0.038 C  
DOCKED: BRANCH  11  13
DOCKED: ATOM     13  C27 UNL     1       7.492 -11.257  -3.415 +0.00 +0.00    +0.234 C  
DOCKED: ATOM     14  O10 UNL     1       7.380 -11.989  -4.399 +0.00 -0.00    -0.274 OA 
DOCKED: ATOM     15  N8  UNL     1       6.433 -10.918  -2.606 +0.00 -0.00    -0.302 N  
DOCKED: ATOM     16  H46 UNL     1       6.561 -10.290  -1.817 +0.00 +0.00    +0.150 HD 
DOCKED: BRANCH  15  17
DOCKED: ATOM     17  C28 UNL     1       5.077 -11.423  -2.821 +0.00 +0.00    +0.159 C  
DOCKED: BRANCH  17  18
DOCKED: ATOM     18  C32 UNL     1       4.208 -10.187  -3.123 +0.00 +0.00    +0.234 C  
DOCKED: ATOM     19  O13 UNL     1       3.280 -10.233  -3.936 +0.00 -0.00    -0.274 OA 
DOCKED: ATOM     20  N9  UNL     1       4.547  -9.040  -2.447 +0.00 -0.00    -0.301 N  
DOCKED: ATOM     21  H53 UNL     1       5.213  -9.086  -1.674 +0.00 +0.00    +0.150 HD 
DOCKED: BRANCH  20  22
DOCKED: ATOM     22  C33 UNL     1       3.760  -7.806  -2.585 +0.00 +0.00    +0.186 C  
DOCKED: BRANCH  22  23
DOCKED: ATOM     23  C41 UNL     1       3.992  -6.967  -1.334 +0.00 +0.00    +0.326 C  
DOCKED: ATOM     24  O14 UNL     1       3.149  -6.310  -0.738 +0.00 -0.00    -0.249 OA 
DOCKED: BRANCH  23  25
DOCKED: ATOM     25  O15 UNL     1       5.265  -6.990  -0.895 +0.00 -0.00    -0.479 OA 
DOCKED: ATOM     26  H62 UNL     1       5.588  -7.894  -1.096 +0.00 +0.00    +0.295 HD 
DOCKED: ENDBRANCH  23  25
DOCKED: ENDBRANCH  22  23
DOCKED: BRANCH  22  27
DOCKED: ATOM     27  C34 UNL     1       2.269  -8.132  -2.743 +0.00 +0.00    +0.069 C  
DOCKED: BRANCH  27  28
DOCKED: ATOM     28  C35 UNL     1       1.570  -8.407  -1.433 +0.00 -0.00    -0.045 A  
DOCKED: ATOM     29  C36 UNL     1       0.483  -7.612  -1.040 +0.00 +0.00    +0.004 A  
DOCKED: ATOM     30  C37 UNL     1      -0.181  -7.863   0.161 +0.00 +0.00    +0.000 A  
DOCKED: ATOM     31  C38 UNL     1       0.235  -8.909   0.982 +0.00 +0.00    +0.000 A  
DOCKED: ATOM     32  C39 UNL     1       1.318  -9.701   0.604 +0.00 +0.00    +0.000 A  
DOCKED: ATOM     33  C40 UNL     1       1.984  -9.451  -0.597 +0.00 +0.00    +0.004 A  
DOCKED: ENDBRANCH  27  28
DOCKED: ENDBRANCH  22  27
DOCKED: ENDBRANCH  20  22
DOCKED: ENDBRANCH  17  18
DOCKED: BRANCH  17  34
DOCKED: ATOM     34  C29 UNL     1       4.599 -12.194  -1.576 +0.00 +0.00    +0.043 C  
DOCKED: BRANCH  34  35
DOCKED: ATOM     35  C30 UNL     1       4.471 -11.386  -0.286 +0.00 +0.00    +0.123 C  
DOCKED: BRANCH  35  36
DOCKED: ATOM     36  C31 UNL     1       5.723 -10.613   0.012 +0.00 +0.00    +0.305 C  
DOCKED: ATOM     37  O11 UNL     1       6.800 -11.122   0.288 +0.00 -0.00    -0.251 OA 
DOCKED: BRANCH  36  38
DOCKED: ATOM     38  O12 UNL     1       5.573  -9.285  -0.113 +0.00 -0.00    -0.481 OA 
DOCKED: ATOM     39  H52 UNL     1       6.474  -8.939  -0.287 +0.00 +0.00    +0.295 HD 
DOCKED: ENDBRANCH  36  38
DOCKED: ENDBRANCH  35  36
DOCKED: ENDBRANCH  34  35
DOCKED: ENDBRANCH  17  34
DOCKED: ENDBRANCH  15  17
DOCKED: ENDBRANCH  11  13
DOCKED: ENDBRANCH   9  11
DOCKED: ENDBRANCH   6   7
DOCKED: BRANCH   6  40
DOCKED: ATOM     40  C42 UNL     1       9.768  -6.292  -3.380 +0.00 +0.00    +0.012 C  
DOCKED: ATOM     41  C43 UNL     1      10.818  -6.756  -4.394 +0.00 +0.00    +0.009 C  
DOCKED: ATOM     42  C44 UNL     1      10.247  -6.597  -1.958 +0.00 +0.00    +0.009 C  
DOCKED: ENDBRANCH   6  40
DOCKED: ENDBRANCH   4   6
DOCKED: ENDBRANCH   1   2
DOCKED: BRANCH   1  43
DOCKED: ATOM     43  C20 UNL     1       5.952  -3.799  -1.605 +0.00 +0.00    +0.143 C  
DOCKED: BRANCH  43  44
DOCKED: ATOM     44  O7  UNL     1       6.674  -4.787  -0.843 +0.00 -0.00    -0.389 OA 
DOCKED: ATOM     45  H36 UNL     1       6.008  -5.473  -0.626 +0.00 +0.00    +0.210 HD 
DOCKED: ENDBRANCH  43  44
DOCKED: BRANCH  43  46
DOCKED: ATOM     46  C5  UNL     1       4.675  -3.309  -0.851 +0.00 +0.00    +0.102 C  
DOCKED: BRANCH  46  47
DOCKED: ATOM     47  N1  UNL     1       4.221  -4.255   0.155 +0.00 -0.00    -0.308 N  
DOCKED: ATOM     48  C6  UNL     1       2.957  -4.157   0.700 +0.00 +0.00    +0.234 C  
DOCKED: ATOM     49  O1  UNL     1       2.150  -3.288   0.368 +0.00 -0.00    -0.274 OA 
DOCKED: ATOM     50  H11 UNL     1       4.712  -5.134   0.222 +0.00 +0.00    +0.149 HD 
DOCKED: BRANCH  48  51
DOCKED: ATOM     51  C7  UNL     1       2.651  -5.219   1.775 +0.00 +0.00    +0.168 C  
DOCKED: BRANCH  51  52
DOCKED: ATOM     52  N3  UNL     1       3.777  -6.145   1.869 +0.00 -0.00    -0.302 N  
DOCKED: ATOM     53  C10 UNL     1       3.620  -7.317   2.584 +0.00 +0.00    +0.234 C  
DOCKED: ATOM     54  O3  UNL     1       2.682  -7.489   3.365 +0.00 -0.00    -0.274 OA 
DOCKED: ATOM     55  H17 UNL     1       4.363  -6.176   1.034 +0.00 +0.00    +0.150 HD 
DOCKED: BRANCH  53  56
DOCKED: ATOM     56  C11 UNL     1       4.695  -8.408   2.342 +0.00 +0.00    +0.161 C  
DOCKED: BRANCH  56  57
DOCKED: ATOM     57  N4  UNL     1       5.863  -7.727   1.773 +0.00 -0.00    -0.302 N  
DOCKED: ATOM     58  C12 UNL     1       7.138  -8.239   1.880 +0.00 +0.00    +0.230 C  
DOCKED: ATOM     59  O4  UNL     1       7.431  -9.178   2.616 +0.00 -0.00    -0.274 OA 
DOCKED: ATOM     60  H19 UNL     1       5.666  -7.245   0.904 +0.00 +0.00    +0.150 HD 
DOCKED: BRANCH  58  61
DOCKED: ATOM     61  C13 UNL     1       8.179  -7.544   0.973 +0.00 +0.00    +0.138 C  
DOCKED: BRANCH  61  62
DOCKED: ATOM     62  N5  UNL     1       7.520  -7.071  -0.256 +0.00 -0.00    -0.320 NA 
DOCKED: ATOM     63  H21 UNL     1       7.115  -7.877  -0.737 +0.00 +0.00    +0.119 HD 
DOCKED: ATOM     64  H22 UNL     1       6.726  -6.467  -0.032 +0.00 +0.00    +0.119 HD 
DOCKED: ENDBRANCH  61  62
DOCKED: BRANCH  61  65
DOCKED: ATOM     65  C14 UNL     1       8.905  -6.410   1.719 +0.00 +0.00    +0.039 C  
DOCKED: BRANCH  65  66
DOCKED: ATOM     66  C15 UNL     1       8.125  -5.875   2.921 +0.00 +0.00    +0.122 C  
DOCKED: BRANCH  66  67
DOCKED: ATOM     67  C16 UNL     1       7.106  -4.841   2.523 +0.00 +0.00    +0.305 C  
DOCKED: ATOM     68  O5  UNL     1       7.006  -3.703   2.953 +0.00 -0.00    -0.251 OA 
DOCKED: BRANCH  67  69
DOCKED: ATOM     69  O6  UNL     1       6.295  -5.274   1.536 +0.00 -0.00    -0.481 OA 
DOCKED: ATOM     70  H27 UNL     1       6.870  -5.263   0.744 +0.00 +0.00    +0.295 HD 
DOCKED: ENDBRANCH  67  69
DOCKED: ENDBRANCH  66  67
DOCKED: ENDBRANCH  65  66
DOCKED: ENDBRANCH  61  65
DOCKED: ENDBRANCH  58  61
DOCKED: ENDBRANCH  56  57
DOCKED: BRANCH  56  71
DOCKED: ATOM     71  C17 UNL     1       5.084  -9.177   3.625 +0.00 +0.00    +0.012 C  
DOCKED: ATOM     72  C18 UNL     1       4.083 -10.275   4.001 +0.00 +0.00    +0.009 C  
DOCKED: ATOM     73  C19 UNL     1       5.252  -8.209   4.802 +0.00 +0.00    +0.009 C  
DOCKED: ENDBRANCH  56  71
DOCKED: ENDBRANCH  53  56
DOCKED: ENDBRANCH  51  52
DOCKED: BRANCH  51  74
DOCKED: ATOM     74  C8  UNL     1       2.301  -4.536   3.095 +0.00 +0.00    +0.127 C  
DOCKED: BRANCH  74  75
DOCKED: ATOM     75  C9  UNL     1       3.179  -3.333   3.368 +0.00 +0.00    +0.213 C  
DOCKED: ATOM     76  N2  UNL     1       4.493  -3.482   3.028 +0.00 -0.00    -0.329 N  
DOCKED: ATOM     77  O2  UNL     1       2.753  -2.257   3.776 +0.00 -0.00    -0.276 OA 
DOCKED: ATOM     78  H15 UNL     1       4.920  -4.404   2.977 +0.00 +0.00    +0.145 HD 
DOCKED: ATOM     79  H16 UNL     1       5.100  -2.721   3.303 +0.00 +0.00    +0.145 HD 
DOCKED: ENDBRANCH  74  75
DOCKED: ENDBRANCH  51  74
DOCKED: ENDBRANCH  48  51
DOCKED: ENDBRANCH  46  47
DOCKED: BRANCH  46  80
DOCKED: ATOM     80  C4  UNL     1       4.917  -1.928  -0.216 +0.00 +0.00    +0.028 C  
DOCKED: BRANCH  80  82
DOCKED: ATOM     81  C1  UNL     1       7.380  -1.489   0.031 +0.00 +0.00    +0.007 C  
DOCKED: ATOM     82  C2  UNL     1       6.099  -1.869   0.777 +0.00 -0.00    -0.015 C  
DOCKED: ATOM     83  C3  UNL     1       5.860  -0.884   1.921 +0.00 +0.00    +0.007 C  
DOCKED: ENDBRANCH  80  82
DOCKED: ENDBRANCH  46  80
DOCKED: ENDBRANCH  43  46
DOCKED: ENDBRANCH   1  43
DOCKED: TORSDOF 36
DOCKED: TER
DOCKED: ENDMDL
________________________________________________________________________________


    FINAL DOCKED STATE:
    ________________________


Run:   8 / 20
Time taken for this run:   7.704s

DOCKED: MODEL        8
DOCKED: USER    Run = 8
DOCKED: USER
DOCKED: USER    Estimated Free Energy of Binding    = +10.74 kcal/mol  [=(1)+(2)+(3)-(4)]
DOCKED: USER
DOCKED: USER    (1) Final Intermolecular Energy     =  +0.00 kcal/mol
DOCKED: USER        vdW + Hbond + desolv Energy     =  +0.00 kcal/mol
DOCKED: USER        Electrostatic Energy            =  +0.00 kcal/mol
DOCKED: USER        Moving Ligand-Fixed Receptor    =  +0.00 kcal/mol
DOCKED: USER        Moving Ligand-Moving Receptor   =  +0.00 kcal/mol
DOCKED: USER    (2) Final Total Internal Energy     = -32.77 kcal/mol
DOCKED: USER    (3) Torsional Free Energy           = +10.74 kcal/mol
DOCKED: USER    (4) Unbound System's Energy         = -32.77 kcal/mol
DOCKED: USER
DOCKED: USER
DOCKED: REMARK  Name = ligands/ligand_15.pdb
DOCKED: REMARK  43 active torsions:
DOCKED: REMARK  status: ('A' for Active; 'I' for Inactive)
DOCKED: REMARK    1  A    between atoms: C1_1  and  C2_2
DOCKED: REMARK    2  A    between atoms: C2_2  and  C3_3
DOCKED: REMARK    3  A    between atoms: C2_2  and  C4_4
DOCKED: REMARK    4  A    between atoms: C4_4  and  C5_5
DOCKED: REMARK    5  A    between atoms: C5_5  and  N1_6
DOCKED: REMARK    6  A    between atoms: C5_5  and  C20_31
DOCKED: REMARK    7  A    between atoms: C6_7  and  C7_9
DOCKED: REMARK    8  A    between atoms: C7_9  and  C8_10
DOCKED: REMARK    9  A    between atoms: C7_9  and  N3_14
DOCKED: REMARK   10  A    between atoms: C8_10  and  C9_11
DOCKED: REMARK   11  A    between atoms: C10_15  and  C11_17
DOCKED: REMARK   12  A    between atoms: C11_17  and  N4_18
DOCKED: REMARK   13  A    between atoms: C11_17  and  C17_28
DOCKED: REMARK   14  A    between atoms: C12_19  and  C13_21
DOCKED: REMARK   15  A    between atoms: C13_21  and  N5_22
DOCKED: REMARK   16  A    between atoms: C13_21  and  C14_23
DOCKED: REMARK   17  A    between atoms: C14_23  and  C15_24
DOCKED: REMARK   18  A    between atoms: C15_24  and  C16_25
DOCKED: REMARK   19  A    between atoms: C16_25  and  O6_27
DOCKED: REMARK   20  A    between atoms: C17_28  and  C18_29
DOCKED: REMARK   21  A    between atoms: C17_28  and  C19_30
DOCKED: REMARK   22  A    between atoms: C20_31  and  O7_32
DOCKED: REMARK   23  A    between atoms: C20_31  and  C21_33
DOCKED: REMARK   24  A    between atoms: C21_33  and  C22_34
DOCKED: REMARK   25  A    between atoms: N6_36  and  C23_37
DOCKED: REMARK   26  A    between atoms: C23_37  and  C24_38
DOCKED: REMARK   27  A    between atoms: C23_37  and  C42_66
DOCKED: REMARK   28  A    between atoms: N7_40  and  C25_41
DOCKED: REMARK   29  A    between atoms: C25_41  and  C26_42
DOCKED: REMARK   30  A    between atoms: C25_41  and  C27_43
DOCKED: REMARK   31  A    between atoms: N8_45  and  C28_46
DOCKED: REMARK   32  A    between atoms: C28_46  and  C29_47
DOCKED: REMARK   33  A    between atoms: C28_46  and  C32_52
DOCKED: REMARK   34  A    between atoms: C29_47  and  C30_48
DOCKED: REMARK   35  A    between atoms: C30_48  and  C31_49
DOCKED: REMARK   36  A    between atoms: C31_49  and  O12_51
DOCKED: REMARK   37  A    between atoms: N9_54  and  C33_55
DOCKED: REMARK   38  A    between atoms: C33_55  and  C34_56
DOCKED: REMARK   39  A    between atoms: C33_55  and  C41_63
DOCKED: REMARK   40  A    between atoms: C34_56  and  C35_57
DOCKED: REMARK   41  A    between atoms: C41_63  and  O15_65
DOCKED: REMARK   42  A    between atoms: C42_66  and  C43_67
DOCKED: REMARK   43  A    between atoms: C42_66  and  C44_68
DOCKED: REMARK                            x       y       z     vdW  Elec       q    Type
DOCKED: REMARK                         _______ _______ _______ _____ _____    ______ ____
DOCKED: USER                              x       y       z     vdW  Elec       q    Type
DOCKED: USER                           _______ _______ _______ _____ _____    ______ ____
DOCKED: ROOT
DOCKED: ATOM      1  C21 UNL     1       6.532  -5.428  -7.099 +0.00 +0.00    +0.129 C  
DOCKED: ENDROOT
DOCKED: BRANCH   1   2
DOCKED: ATOM      2  C22 UNL     1       7.227  -6.741  -7.381 +0.00 +0.00    +0.216 C  
DOCKED: ATOM      3  O8  UNL     1       7.676  -7.466  -6.495 +0.00 -0.00    -0.276 OA 
DOCKED: ATOM      4  N6  UNL     1       7.282  -7.039  -8.716 +0.00 -0.00    -0.304 N  
DOCKED: ATOM      5  H39 UNL     1       6.935  -6.363  -9.397 +0.00 +0.00    +0.149 HD 
DOCKED: BRANCH   4   6
DOCKED: ATOM      6  C23 UNL     1       8.076  -8.134  -9.279 +0.00 +0.00    +0.161 C  
DOCKED: BRANCH   6   7
DOCKED: ATOM      7  C24 UNL     1       7.165  -9.375  -9.161 +0.00 +0.00    +0.234 C  
DOCKED: ATOM      8  O9  UNL     1       6.515  -9.786 -10.127 +0.00 -0.00    -0.274 OA 
DOCKED: ATOM      9  N7  UNL     1       7.124  -9.995  -7.938 +0.00 -0.00    -0.303 N  
DOCKED: ATOM     10  H41 UNL     1       7.572  -9.573  -7.132 +0.00 +0.00    +0.149 HD 
DOCKED: BRANCH   9  11
DOCKED: ATOM     11  C25 UNL     1       6.205 -11.095  -7.666 +0.00 +0.00    +0.156 C  
DOCKED: ATOM     12  C26 UNL     1       6.894 -12.438  -7.869 +0.00 +0.00    +0.038 C  
DOCKED: BRANCH  11  13
DOCKED: ATOM     13  C27 UNL     1       5.687 -10.959  -6.226 +0.00 +0.00    +0.234 C  
DOCKED: ATOM     14  O10 UNL     1       4.497 -10.772  -5.968 +0.00 -0.00    -0.274 OA 
DOCKED: ATOM     15  N8  UNL     1       6.661 -11.042  -5.260 +0.00 -0.00    -0.302 N  
DOCKED: ATOM     16  H46 UNL     1       7.637 -11.172  -5.515 +0.00 +0.00    +0.150 HD 
DOCKED: BRANCH  15  17
DOCKED: ATOM     17  C28 UNL     1       6.371 -10.948  -3.829 +0.00 +0.00    +0.159 C  
DOCKED: BRANCH  17  18
DOCKED: ATOM     18  C32 UNL     1       5.804  -9.533  -3.605 +0.00 +0.00    +0.234 C  
DOCKED: ATOM     19  O13 UNL     1       5.071  -9.276  -2.645 +0.00 -0.00    -0.274 OA 
DOCKED: ATOM     20  N9  UNL     1       6.151  -8.594  -4.546 +0.00 -0.00    -0.301 N  
DOCKED: ATOM     21  H53 UNL     1       6.880  -8.809  -5.229 +0.00 +0.00    +0.150 HD 
DOCKED: BRANCH  20  22
DOCKED: ATOM     22  C33 UNL     1       5.740  -7.190  -4.418 +0.00 +0.00    +0.186 C  
DOCKED: BRANCH  22  23
DOCKED: ATOM     23  C41 UNL     1       6.718  -6.506  -3.469 +0.00 +0.00    +0.326 C  
DOCKED: ATOM     24  O14 UNL     1       6.501  -6.202  -2.304 +0.00 -0.00    -0.249 OA 
DOCKED: BRANCH  23  25
DOCKED: ATOM     25  O15 UNL     1       7.914  -6.234  -4.027 +0.00 -0.00    -0.479 OA 
DOCKED: ATOM     26  H62 UNL     1       7.906  -6.705  -4.887 +0.00 +0.00    +0.295 HD 
DOCKED: ENDBRANCH  23  25
DOCKED: ENDBRANCH  22  23
DOCKED: BRANCH  22  27
DOCKED: ATOM     27  C34 UNL     1       4.308  -7.093  -3.874 +0.00 +0.00    +0.069 C  
DOCKED: BRANCH  27  28
DOCKED: ATOM     28  C35 UNL     1       3.277  -7.727  -4.778 +0.00 -0.00    -0.045 A  
DOCKED: ATOM     29  C36 UNL     1       2.103  -8.263  -4.230 +0.00 +0.00    +0.004 A  
DOCKED: ATOM     30  C37 UNL     1       1.136  -8.839  -5.054 +0.00 +0.00    +0.000 A  
DOCKED: ATOM     31  C38 UNL     1       1.332  -8.886  -6.432 +0.00 +0.00    +0.000 A  
DOCKED: ATOM     32  C39 UNL     1       2.499  -8.362  -6.987 +0.00 +0.00    +0.000 A  
DOCKED: ATOM     33  C40 UNL     1       3.469  -7.786  -6.164 +0.00 +0.00    +0.004 A  
DOCKED: ENDBRANCH  27  28
DOCKED: ENDBRANCH  22  27
DOCKED: ENDBRANCH  20  22
DOCKED: ENDBRANCH  17  18
DOCKED: BRANCH  17  34
DOCKED: ATOM     34  C29 UNL     1       7.651 -11.211  -3.013 +0.00 +0.00    +0.043 C  
DOCKED: BRANCH  34  35
DOCKED: ATOM     35  C30 UNL     1       8.973 -10.879  -3.702 +0.00 +0.00    +0.123 C  
DOCKED: BRANCH  35  36
DOCKED: ATOM     36  C31 UNL     1       8.870  -9.633  -4.534 +0.00 +0.00    +0.305 C  
DOCKED: ATOM     37  O11 UNL     1       8.885  -9.616  -5.756 +0.00 -0.00    -0.251 OA 
DOCKED: BRANCH  36  38
DOCKED: ATOM     38  O12 UNL     1       8.692  -8.519  -3.808 +0.00 -0.00    -0.481 OA 
DOCKED: ATOM     39  H52 UNL     1       8.461  -7.821  -4.457 +0.00 +0.00    +0.295 HD 
DOCKED: ENDBRANCH  36  38
DOCKED: ENDBRANCH  35  36
DOCKED: ENDBRANCH  34  35
DOCKED: ENDBRANCH  17  34
DOCKED: ENDBRANCH  15  17
DOCKED: ENDBRANCH  11  13
DOCKED: ENDBRANCH   9  11
DOCKED: ENDBRANCH   6   7
DOCKED: BRANCH   6  40
DOCKED: ATOM     40  C42 UNL     1       9.438  -8.252  -8.558 +0.00 +0.00    +0.012 C  
DOCKED: ATOM     41  C43 UNL     1      10.355  -7.056  -8.830 +0.00 +0.00    +0.009 C  
DOCKED: ATOM     42  C44 UNL     1      10.173  -9.556  -8.879 +0.00 +0.00    +0.009 C  
DOCKED: ENDBRANCH   6  40
DOCKED: ENDBRANCH   4   6
DOCKED: ENDBRANCH   1   2
DOCKED: BRANCH   1  43
DOCKED: ATOM     43  C20 UNL     1       7.528  -4.365  -6.617 +0.00 +0.00    +0.143 C  
DOCKED: BRANCH  43  44
DOCKED: ATOM     44  O7  UNL     1       8.734  -5.006  -6.156 +0.00 -0.00    -0.389 OA 
DOCKED: ATOM     45  H36 UNL     1       8.436  -5.631  -5.462 +0.00 +0.00    +0.210 HD 
DOCKED: ENDBRANCH  43  44
DOCKED: BRANCH  43  46
DOCKED: ATOM     46  C5  UNL     1       6.876  -3.488  -5.501 +0.00 +0.00    +0.102 C  
DOCKED: BRANCH  46  47
DOCKED: ATOM     47  N1  UNL     1       7.442  -3.744  -4.186 +0.00 -0.00    -0.308 N  
DOCKED: ATOM     48  C6  UNL     1       6.796  -3.321  -3.043 +0.00 +0.00    +0.234 C  
DOCKED: ATOM     49  O1  UNL     1       5.719  -2.724  -3.064 +0.00 -0.00    -0.274 OA 
DOCKED: ATOM     50  H11 UNL     1       8.133  -4.475  -4.111 +0.00 +0.00    +0.149 HD 
DOCKED: BRANCH  48  51
DOCKED: ATOM     51  C7  UNL     1       7.550  -3.645  -1.738 +0.00 +0.00    +0.168 C  
DOCKED: BRANCH  51  52
DOCKED: ATOM     52  N3  UNL     1       8.549  -4.677  -2.004 +0.00 -0.00    -0.302 N  
DOCKED: ATOM     53  C10 UNL     1       9.103  -5.362  -0.940 +0.00 +0.00    +0.234 C  
DOCKED: ATOM     54  O3  UNL     1       9.002  -4.962   0.222 +0.00 -0.00    -0.274 OA 
DOCKED: ATOM     55  H17 UNL     1       8.395  -5.194  -2.870 +0.00 +0.00    +0.150 HD 
DOCKED: BRANCH  53  56
DOCKED: ATOM     56  C11 UNL     1       9.859  -6.669  -1.292 +0.00 +0.00    +0.161 C  
DOCKED: BRANCH  56  57
DOCKED: ATOM     57  N4  UNL     1      10.247  -6.560  -2.703 +0.00 -0.00    -0.302 N  
DOCKED: ATOM     58  C12 UNL     1      11.232  -7.349  -3.258 +0.00 +0.00    +0.230 C  
DOCKED: ATOM     59  O4  UNL     1      11.992  -8.050  -2.595 +0.00 -0.00    -0.274 OA 
DOCKED: ATOM     60  H19 UNL     1       9.473  -6.342  -3.319 +0.00 +0.00    +0.150 HD 
DOCKED: BRANCH  58  61
DOCKED: ATOM     61  C13 UNL     1      11.289  -7.299  -4.803 +0.00 +0.00    +0.138 C  
DOCKED: BRANCH  61  62
DOCKED: ATOM     62  N5  UNL     1       9.946  -7.012  -5.334 +0.00 -0.00    -0.320 NA 
DOCKED: ATOM     63  H21 UNL     1       9.484  -7.900  -5.542 +0.00 +0.00    +0.119 HD 
DOCKED: ATOM     64  H22 UNL     1       9.362  -6.567  -4.622 +0.00 +0.00    +0.119 HD 
DOCKED: ENDBRANCH  61  62
DOCKED: BRANCH  61  65
DOCKED: ATOM     65  C14 UNL     1      12.339  -6.285  -5.292 +0.00 +0.00    +0.039 C  
DOCKED: BRANCH  65  66
DOCKED: ATOM     66  C15 UNL     1      11.736  -4.957  -5.749 +0.00 +0.00    +0.122 C  
DOCKED: BRANCH  66  67
DOCKED: ATOM     67  C16 UNL     1      11.209  -4.144  -4.598 +0.00 +0.00    +0.305 C  
DOCKED: ATOM     68  O5  UNL     1      11.751  -3.191  -4.060 +0.00 -0.00    -0.251 OA 
DOCKED: BRANCH  67  69
DOCKED: ATOM     69  O6  UNL     1       9.972  -4.530  -4.221 +0.00 -0.00    -0.481 OA 
DOCKED: ATOM     70  H27 UNL     1       9.739  -5.224  -4.872 +0.00 +0.00    +0.295 HD 
DOCKED: ENDBRANCH  67  69
DOCKED: ENDBRANCH  66  67
DOCKED: ENDBRANCH  65  66
DOCKED: ENDBRANCH  61  65
DOCKED: ENDBRANCH  58  61
DOCKED: ENDBRANCH  56  57
DOCKED: BRANCH  56  71
DOCKED: ATOM     71  C17 UNL     1      11.099  -6.916  -0.404 +0.00 +0.00    +0.012 C  
DOCKED: ATOM     72  C18 UNL     1      10.746  -7.385   1.012 +0.00 +0.00    +0.009 C  
DOCKED: ATOM     73  C19 UNL     1      11.966  -5.654  -0.327 +0.00 +0.00    +0.009 C  
DOCKED: ENDBRANCH  56  71
DOCKED: ENDBRANCH  53  56
DOCKED: ENDBRANCH  51  52
DOCKED: BRANCH  51  74
DOCKED: ATOM     74  C8  UNL     1       8.129  -2.364  -1.141 +0.00 +0.00    +0.127 C  
DOCKED: BRANCH  74  75
DOCKED: ATOM     75  C9  UNL     1       8.865  -1.533  -2.171 +0.00 +0.00    +0.213 C  
DOCKED: ATOM     76  N2  UNL     1       9.741  -2.224  -2.958 +0.00 -0.00    -0.329 N  
DOCKED: ATOM     77  O2  UNL     1       8.642  -0.344  -2.371 +0.00 -0.00    -0.276 OA 
DOCKED: ATOM     78  H15 UNL     1      10.155  -3.098  -2.640 +0.00 +0.00    +0.145 HD 
DOCKED: ATOM     79  H16 UNL     1      10.308  -1.658  -3.575 +0.00 +0.00    +0.145 HD 
DOCKED: ENDBRANCH  74  75
DOCKED: ENDBRANCH  51  74
DOCKED: ENDBRANCH  48  51
DOCKED: ENDBRANCH  46  47
DOCKED: BRANCH  46  80
DOCKED: ATOM     80  C4  UNL     1       6.989  -1.994  -5.851 +0.00 +0.00    +0.028 C  
DOCKED: BRANCH  80  82
DOCKED: ATOM     81  C1  UNL     1       9.318  -1.692  -6.747 +0.00 +0.00    +0.007 C  
DOCKED: ATOM     82  C2  UNL     1       8.377  -1.369  -5.585 +0.00 -0.00    -0.015 C  
DOCKED: ATOM     83  C3  UNL     1       8.313   0.145  -5.382 +0.00 +0.00    +0.007 C  
DOCKED: ENDBRANCH  80  82
DOCKED: ENDBRANCH  46  80
DOCKED: ENDBRANCH  43  46
DOCKED: ENDBRANCH   1  43
DOCKED: TORSDOF 36
DOCKED: TER
DOCKED: ENDMDL
________________________________________________________________________________


    FINAL DOCKED STATE:
    ________________________


Run:   9 / 20
Time taken for this run:   7.704s

DOCKED: MODEL        9
DOCKED: USER    Run = 9
DOCKED: USER
DOCKED: USER    Estimated Free Energy of Binding    = +10.74 kcal/mol  [=(1)+(2)+(3)-(4)]
DOCKED: USER
DOCKED: USER    (1) Final Intermolecular Energy     =  +0.00 kcal/mol
DOCKED: USER        vdW + Hbond + desolv Energy     =  +0.00 kcal/mol
DOCKED: USER        Electrostatic Energy            =  +0.00 kcal/mol
DOCKED: USER        Moving Ligand-Fixed Receptor    =  +0.00 kcal/mol
DOCKED: USER        Moving Ligand-Moving Receptor   =  +0.00 kcal/mol
DOCKED: USER    (2) Final Total Internal Energy     = -31.70 kcal/mol
DOCKED: USER    (3) Torsional Free Energy           = +10.74 kcal/mol
DOCKED: USER    (4) Unbound System's Energy         = -31.70 kcal/mol
DOCKED: USER
DOCKED: USER
DOCKED: REMARK  Name = ligands/ligand_15.pdb
DOCKED: REMARK  43 active torsions:
DOCKED: REMARK  status: ('A' for Active; 'I' for Inactive)
DOCKED: REMARK    1  A    between atoms: C1_1  and  C2_2
DOCKED: REMARK    2  A    between atoms: C2_2  and  C3_3
DOCKED: REMARK    3  A    between atoms: C2_2  and  C4_4
DOCKED: REMARK    4  A    between atoms: C4_4  and  C5_5
DOCKED: REMARK    5  A    between atoms: C5_5  and  N1_6
DOCKED: REMARK    6  A    between atoms: C5_5  and  C20_31
DOCKED: REMARK    7  A    between atoms: C6_7  and  C7_9
DOCKED: REMARK    8  A    between atoms: C7_9  and  C8_10
DOCKED: REMARK    9  A    between atoms: C7_9  and  N3_14
DOCKED: REMARK   10  A    between atoms: C8_10  and  C9_11
DOCKED: REMARK   11  A    between atoms: C10_15  and  C11_17
DOCKED: REMARK   12  A    between atoms: C11_17  and  N4_18
DOCKED: REMARK   13  A    between atoms: C11_17  and  C17_28
DOCKED: REMARK   14  A    between atoms: C12_19  and  C13_21
DOCKED: REMARK   15  A    between atoms: C13_21  and  N5_22
DOCKED: REMARK   16  A    between atoms: C13_21  and  C14_23
DOCKED: REMARK   17  A    between atoms: C14_23  and  C15_24
DOCKED: REMARK   18  A    between atoms: C15_24  and  C16_25
DOCKED: REMARK   19  A    between atoms: C16_25  and  O6_27
DOCKED: REMARK   20  A    between atoms: C17_28  and  C18_29
DOCKED: REMARK   21  A    between atoms: C17_28  and  C19_30
DOCKED: REMARK   22  A    between atoms: C20_31  and  O7_32
DOCKED: REMARK   23  A    between atoms: C20_31  and  C21_33
DOCKED: REMARK   24  A    between atoms: C21_33  and  C22_34
DOCKED: REMARK   25  A    between atoms: N6_36  and  C23_37
DOCKED: REMARK   26  A    between atoms: C23_37  and  C24_38
DOCKED: REMARK   27  A    between atoms: C23_37  and  C42_66
DOCKED: REMARK   28  A    between atoms: N7_40  and  C25_41
DOCKED: REMARK   29  A    between atoms: C25_41  and  C26_42
DOCKED: REMARK   30  A    between atoms: C25_41  and  C27_43
DOCKED: REMARK   31  A    between atoms: N8_45  and  C28_46
DOCKED: REMARK   32  A    between atoms: C28_46  and  C29_47
DOCKED: REMARK   33  A    between atoms: C28_46  and  C32_52
DOCKED: REMARK   34  A    between atoms: C29_47  and  C30_48
DOCKED: REMARK   35  A    between atoms: C30_48  and  C31_49
DOCKED: REMARK   36  A    between atoms: C31_49  and  O12_51
DOCKED: REMARK   37  A    between atoms: N9_54  and  C33_55
DOCKED: REMARK   38  A    between atoms: C33_55  and  C34_56
DOCKED: REMARK   39  A    between atoms: C33_55  and  C41_63
DOCKED: REMARK   40  A    between atoms: C34_56  and  C35_57
DOCKED: REMARK   41  A    between atoms: C41_63  and  O15_65
DOCKED: REMARK   42  A    between atoms: C42_66  and  C43_67
DOCKED: REMARK   43  A    between atoms: C42_66  and  C44_68
DOCKED: REMARK                            x       y       z     vdW  Elec       q    Type
DOCKED: REMARK                         _______ _______ _______ _____ _____    ______ ____
DOCKED: USER                              x       y       z     vdW  Elec       q    Type
DOCKED: USER                           _______ _______ _______ _____ _____    ______ ____
DOCKED: ROOT
DOCKED: ATOM      1  C21 UNL     1      13.705  -9.749  -3.052 +0.00 +0.00    +0.129 C  
DOCKED: ENDROOT
DOCKED: BRANCH   1   2
DOCKED: ATOM      2  C22 UNL     1      14.966  -9.298  -2.351 +0.00 +0.00    +0.216 C  
DOCKED: ATOM      3  O8  UNL     1      15.400  -9.841  -1.337 +0.00 -0.00    -0.276 OA 
DOCKED: ATOM      4  N6  UNL     1      15.575  -8.242  -2.976 +0.00 -0.00    -0.304 N  
DOCKED: ATOM      5  H39 UNL     1      15.127  -7.809  -3.783 +0.00 +0.00    +0.149 HD 
DOCKED: BRANCH   4   6
DOCKED: ATOM      6  C23 UNL     1      16.684  -7.479  -2.398 +0.00 +0.00    +0.161 C  
DOCKED: BRANCH   6   7
DOCKED: ATOM      7  C24 UNL     1      16.201  -6.012  -2.427 +0.00 +0.00    +0.234 C  
DOCKED: ATOM      8  O9  UNL     1      15.229  -5.672  -3.108 +0.00 -0.00    -0.274 OA 
DOCKED: ATOM      9  N7  UNL     1      16.899  -5.118  -1.656 +0.00 -0.00    -0.303 N  
DOCKED: ATOM     10  H41 UNL     1      17.760  -5.396  -1.199 +0.00 +0.00    +0.149 HD 
DOCKED: BRANCH   9  11
DOCKED: ATOM     11  C25 UNL     1      16.621  -3.687  -1.699 +0.00 +0.00    +0.156 C  
DOCKED: ATOM     12  C26 UNL     1      16.512  -3.200  -3.138 +0.00 +0.00    +0.038 C  
DOCKED: BRANCH  11  13
DOCKED: ATOM     13  C27 UNL     1      15.317  -3.415  -0.932 +0.00 +0.00    +0.234 C  
DOCKED: ATOM     14  O10 UNL     1      15.308  -2.965   0.215 +0.00 -0.00    -0.274 OA 
DOCKED: ATOM     15  N8  UNL     1      14.173  -3.737  -1.622 +0.00 -0.00    -0.302 N  
DOCKED: ATOM     16  H46 UNL     1      14.223  -4.130  -2.558 +0.00 +0.00    +0.150 HD 
DOCKED: BRANCH  15  17
DOCKED: ATOM     17  C28 UNL     1      12.832  -3.542  -1.070 +0.00 +0.00    +0.159 C  
DOCKED: BRANCH  17  18
DOCKED: ATOM     18  C32 UNL     1      12.320  -4.948  -0.697 +0.00 +0.00    +0.234 C  
DOCKED: ATOM     19  O13 UNL     1      11.433  -5.109   0.146 +0.00 -0.00    -0.274 OA 
DOCKED: ATOM     20  N9  UNL     1      12.927  -5.995  -1.347 +0.00 -0.00    -0.301 N  
DOCKED: ATOM     21  H53 UNL     1      13.539  -5.810  -2.144 +0.00 +0.00    +0.150 HD 
DOCKED: BRANCH  20  22
DOCKED: ATOM     22  C33 UNL     1      12.489  -7.383  -1.142 +0.00 +0.00    +0.186 C  
DOCKED: BRANCH  22  23
DOCKED: ATOM     23  C41 UNL     1      11.036  -7.482  -1.592 +0.00 +0.00    +0.326 C  
DOCKED: ATOM     24  O14 UNL     1      10.143  -8.092  -1.020 +0.00 -0.00    -0.249 OA 
DOCKED: BRANCH  23  25
DOCKED: ATOM     25  O15 UNL     1      10.776  -6.816  -2.734 +0.00 -0.00    -0.479 OA 
DOCKED: ATOM     26  H62 UNL     1      11.617  -6.837  -3.238 +0.00 +0.00    +0.295 HD 
DOCKED: ENDBRANCH  23  25
DOCKED: ENDBRANCH  22  23
DOCKED: BRANCH  22  27
DOCKED: ATOM     27  C34 UNL     1      12.622  -7.778   0.335 +0.00 +0.00    +0.069 C  
DOCKED: BRANCH  27  28
DOCKED: ATOM     28  C35 UNL     1      13.832  -7.180   1.012 +0.00 -0.00    -0.045 A  
DOCKED: ATOM     29  C36 UNL     1      13.667  -6.331   2.116 +0.00 +0.00    +0.004 A  
DOCKED: ATOM     30  C37 UNL     1      14.776  -5.782   2.760 +0.00 +0.00    +0.000 A  
DOCKED: ATOM     31  C38 UNL     1      16.060  -6.075   2.307 +0.00 +0.00    +0.000 A  
DOCKED: ATOM     32  C39 UNL     1      16.236  -6.911   1.206 +0.00 +0.00    +0.000 A  
DOCKED: ATOM     33  C40 UNL     1      15.127  -7.461   0.560 +0.00 +0.00    +0.004 A  
DOCKED: ENDBRANCH  27  28
DOCKED: ENDBRANCH  22  27
DOCKED: ENDBRANCH  20  22
DOCKED: ENDBRANCH  17  18
DOCKED: BRANCH  17  34
DOCKED: ATOM     34  C29 UNL     1      11.933  -2.838  -2.104 +0.00 +0.00    +0.043 C  
DOCKED: BRANCH  34  35
DOCKED: ATOM     35  C30 UNL     1      11.235  -3.740  -3.120 +0.00 +0.00    +0.123 C  
DOCKED: BRANCH  35  36
DOCKED: ATOM     36  C31 UNL     1      12.177  -4.204  -4.193 +0.00 +0.00    +0.305 C  
DOCKED: ATOM     37  O11 UNL     1      12.290  -3.674  -5.289 +0.00 -0.00    -0.251 OA 
DOCKED: BRANCH  36  38
DOCKED: ATOM     38  O12 UNL     1      12.949  -5.236  -3.817 +0.00 -0.00    -0.481 OA 
DOCKED: ATOM     39  H52 UNL     1      13.225  -5.669  -4.653 +0.00 +0.00    +0.295 HD 
DOCKED: ENDBRANCH  36  38
DOCKED: ENDBRANCH  35  36
DOCKED: ENDBRANCH  34  35
DOCKED: ENDBRANCH  17  34
DOCKED: ENDBRANCH  15  17
DOCKED: ENDBRANCH  11  13
DOCKED: ENDBRANCH   9  11
DOCKED: ENDBRANCH   6   7
DOCKED: BRANCH   6  40
DOCKED: ATOM     40  C42 UNL     1      17.997  -7.749  -3.166 +0.00 +0.00    +0.012 C  
DOCKED: ATOM     41  C43 UNL     1      18.309  -9.243  -3.293 +0.00 +0.00    +0.009 C  
DOCKED: ATOM     42  C44 UNL     1      19.201  -7.015  -2.569 +0.00 +0.00    +0.009 C  
DOCKED: ENDBRANCH   6  40
DOCKED: ENDBRANCH   4   6
DOCKED: ENDBRANCH   1   2
DOCKED: BRANCH   1  43
DOCKED: ATOM     43  C20 UNL     1      13.591  -9.122  -4.448 +0.00 +0.00    +0.143 C  
DOCKED: BRANCH  43  44
DOCKED: ATOM     44  O7  UNL     1      13.018  -7.804  -4.341 +0.00 -0.00    -0.389 OA 
DOCKED: ATOM     45  H36 UNL     1      12.105  -7.953  -4.014 +0.00 +0.00    +0.210 HD 
DOCKED: ENDBRANCH  43  44
DOCKED: BRANCH  43  46
DOCKED: ATOM     46  C5  UNL     1      12.746 -10.045  -5.382 +0.00 +0.00    +0.102 C  
DOCKED: BRANCH  46  47
DOCKED: ATOM     47  N1  UNL     1      11.603  -9.359  -5.961 +0.00 -0.00    -0.308 N  
DOCKED: ATOM     48  C6  UNL     1      10.528  -8.990  -5.179 +0.00 +0.00    +0.234 C  
DOCKED: ATOM     49  O1  UNL     1      10.476  -9.204  -3.967 +0.00 -0.00    -0.274 OA 
DOCKED: ATOM     50  H11 UNL     1      11.736  -8.902  -6.851 +0.00 +0.00    +0.149 HD 
DOCKED: BRANCH  48  51
DOCKED: ATOM     51  C7  UNL     1       9.389  -8.304  -5.958 +0.00 +0.00    +0.168 C  
DOCKED: BRANCH  51  52
DOCKED: ATOM     52  N3  UNL     1       9.961  -7.346  -6.901 +0.00 -0.00    -0.302 N  
DOCKED: ATOM     53  C10 UNL     1      11.007  -6.543  -6.487 +0.00 +0.00    +0.234 C  
DOCKED: ATOM     54  O3  UNL     1      11.295  -6.403  -5.297 +0.00 -0.00    -0.274 OA 
DOCKED: ATOM     55  H17 UNL     1       9.966  -7.665  -7.870 +0.00 +0.00    +0.150 HD 
DOCKED: BRANCH  53  56
DOCKED: ATOM     56  C11 UNL     1      11.802  -5.830  -7.611 +0.00 +0.00    +0.161 C  
DOCKED: BRANCH  56  57
DOCKED: ATOM     57  N4  UNL     1      13.124  -5.518  -7.055 +0.00 -0.00    -0.302 N  
DOCKED: ATOM     58  C12 UNL     1      13.973  -4.607  -7.645 +0.00 +0.00    +0.230 C  
DOCKED: ATOM     59  O4  UNL     1      13.792  -4.139  -8.766 +0.00 -0.00    -0.274 OA 
DOCKED: ATOM     60  H19 UNL     1      13.151  -5.538  -6.043 +0.00 +0.00    +0.150 HD 
DOCKED: BRANCH  58  61
DOCKED: ATOM     61  C13 UNL     1      15.175  -4.197  -6.762 +0.00 +0.00    +0.138 C  
DOCKED: BRANCH  61  62
DOCKED: ATOM     62  N5  UNL     1      14.797  -4.297  -5.342 +0.00 -0.00    -0.320 NA 
DOCKED: ATOM     63  H21 UNL     1      13.902  -4.787  -5.280 +0.00 +0.00    +0.119 HD 
DOCKED: ATOM     64  H22 UNL     1      15.459  -4.884  -4.832 +0.00 +0.00    +0.119 HD 
DOCKED: ENDBRANCH  61  62
DOCKED: BRANCH  61  65
DOCKED: ATOM     65  C14 UNL     1      16.424  -5.033  -7.094 +0.00 +0.00    +0.039 C  
DOCKED: BRANCH  65  66
DOCKED: ATOM     66  C15 UNL     1      16.903  -5.901  -5.930 +0.00 +0.00    +0.122 C  
DOCKED: BRANCH  66  67
DOCKED: ATOM     67  C16 UNL     1      16.015  -7.095  -5.707 +0.00 +0.00    +0.305 C  
DOCKED: ATOM     68  O5  UNL     1      16.366  -8.254  -5.549 +0.00 -0.00    -0.251 OA 
DOCKED: BRANCH  67  69
DOCKED: ATOM     69  O6  UNL     1      14.712  -6.757  -5.620 +0.00 -0.00    -0.481 OA 
DOCKED: ATOM     70  H27 UNL     1      14.632  -6.382  -4.719 +0.00 +0.00    +0.295 HD 
DOCKED: ENDBRANCH  67  69
DOCKED: ENDBRANCH  66  67
DOCKED: ENDBRANCH  65  66
DOCKED: ENDBRANCH  61  65
DOCKED: ENDBRANCH  58  61
DOCKED: ENDBRANCH  56  57
DOCKED: BRANCH  56  71
DOCKED: ATOM     71  C17 UNL     1      11.938  -6.677  -8.896 +0.00 +0.00    +0.012 C  
DOCKED: ATOM     72  C18 UNL     1      13.245  -7.475  -8.960 +0.00 +0.00    +0.009 C  
DOCKED: ATOM     73  C19 UNL     1      11.814  -5.790 -10.141 +0.00 +0.00    +0.009 C  
DOCKED: ENDBRANCH  56  71
DOCKED: ENDBRANCH  53  56
DOCKED: ENDBRANCH  51  52
DOCKED: BRANCH  51  74
DOCKED: ATOM     74  C8  UNL     1       8.498  -9.358  -6.612 +0.00 +0.00    +0.127 C  
DOCKED: BRANCH  74  75
DOCKED: ATOM     75  C9  UNL     1       9.192 -10.064  -7.757 +0.00 +0.00    +0.213 C  
DOCKED: ATOM     76  N2  UNL     1       8.513 -11.123  -8.287 +0.00 -0.00    -0.329 N  
DOCKED: ATOM     77  O2  UNL     1      10.245  -9.679  -8.257 +0.00 -0.00    -0.276 OA 
DOCKED: ATOM     78  H15 UNL     1       7.824 -11.632  -7.737 +0.00 +0.00    +0.145 HD 
DOCKED: ATOM     79  H16 UNL     1       9.018 -11.658  -8.981 +0.00 +0.00    +0.145 HD 
DOCKED: ENDBRANCH  74  75
DOCKED: ENDBRANCH  51  74
DOCKED: ENDBRANCH  48  51
DOCKED: ENDBRANCH  46  47
DOCKED: BRANCH  46  80
DOCKED: ATOM     80  C4  UNL     1      13.627 -10.648  -6.490 +0.00 +0.00    +0.028 C  
DOCKED: BRANCH  80  82
DOCKED: ATOM     81  C1  UNL     1      11.828 -12.403  -6.400 +0.00 +0.00    +0.007 C  
DOCKED: ATOM     82  C2  UNL     1      13.022 -11.879  -7.201 +0.00 -0.00    -0.015 C  
DOCKED: ATOM     83  C3  UNL     1      12.584 -11.577  -8.635 +0.00 +0.00    +0.007 C  
DOCKED: ENDBRANCH  80  82
DOCKED: ENDBRANCH  46  80
DOCKED: ENDBRANCH  43  46
DOCKED: ENDBRANCH   1  43
DOCKED: TORSDOF 36
DOCKED: TER
DOCKED: ENDMDL
________________________________________________________________________________


    FINAL DOCKED STATE:
    ________________________


Run:   10 / 20
Time taken for this run:   7.704s

DOCKED: MODEL        10
DOCKED: USER    Run = 10
DOCKED: USER
DOCKED: USER    Estimated Free Energy of Binding    = +10.74 kcal/mol  [=(1)+(2)+(3)-(4)]
DOCKED: USER
DOCKED: USER    (1) Final Intermolecular Energy     =  +0.00 kcal/mol
DOCKED: USER        vdW + Hbond + desolv Energy     =  +0.00 kcal/mol
DOCKED: USER        Electrostatic Energy            =  +0.00 kcal/mol
DOCKED: USER        Moving Ligand-Fixed Receptor    =  +0.00 kcal/mol
DOCKED: USER        Moving Ligand-Moving Receptor   =  +0.00 kcal/mol
DOCKED: USER    (2) Final Total Internal Energy     = -31.98 kcal/mol
DOCKED: USER    (3) Torsional Free Energy           = +10.74 kcal/mol
DOCKED: USER    (4) Unbound System's Energy         = -31.98 kcal/mol
DOCKED: USER
DOCKED: USER
DOCKED: REMARK  Name = ligands/ligand_15.pdb
DOCKED: REMARK  43 active torsions:
DOCKED: REMARK  status: ('A' for Active; 'I' for Inactive)
DOCKED: REMARK    1  A    between atoms: C1_1  and  C2_2
DOCKED: REMARK    2  A    between atoms: C2_2  and  C3_3
DOCKED: REMARK    3  A    between atoms: C2_2  and  C4_4
DOCKED: REMARK    4  A    between atoms: C4_4  and  C5_5
DOCKED: REMARK    5  A    between atoms: C5_5  and  N1_6
DOCKED: REMARK    6  A    between atoms: C5_5  and  C20_31
DOCKED: REMARK    7  A    between atoms: C6_7  and  C7_9
DOCKED: REMARK    8  A    between atoms: C7_9  and  C8_10
DOCKED: REMARK    9  A    between atoms: C7_9  and  N3_14
DOCKED: REMARK   10  A    between atoms: C8_10  and  C9_11
DOCKED: REMARK   11  A    between atoms: C10_15  and  C11_17
DOCKED: REMARK   12  A    between atoms: C11_17  and  N4_18
DOCKED: REMARK   13  A    between atoms: C11_17  and  C17_28
DOCKED: REMARK   14  A    between atoms: C12_19  and  C13_21
DOCKED: REMARK   15  A    between atoms: C13_21  and  N5_22
DOCKED: REMARK   16  A    between atoms: C13_21  and  C14_23
DOCKED: REMARK   17  A    between atoms: C14_23  and  C15_24
DOCKED: REMARK   18  A    between atoms: C15_24  and  C16_25
DOCKED: REMARK   19  A    between atoms: C16_25  and  O6_27
DOCKED: REMARK   20  A    between atoms: C17_28  and  C18_29
DOCKED: REMARK   21  A    between atoms: C17_28  and  C19_30
DOCKED: REMARK   22  A    between atoms: C20_31  and  O7_32
DOCKED: REMARK   23  A    between atoms: C20_31  and  C21_33
DOCKED: REMARK   24  A    between atoms: C21_33  and  C22_34
DOCKED: REMARK   25  A    between atoms: N6_36  and  C23_37
DOCKED: REMARK   26  A    between atoms: C23_37  and  C24_38
DOCKED: REMARK   27  A    between atoms: C23_37  and  C42_66
DOCKED: REMARK   28  A    between atoms: N7_40  and  C25_41
DOCKED: REMARK   29  A    between atoms: C25_41  and  C26_42
DOCKED: REMARK   30  A    between atoms: C25_41  and  C27_43
DOCKED: REMARK   31  A    between atoms: N8_45  and  C28_46
DOCKED: REMARK   32  A    between atoms: C28_46  and  C29_47
DOCKED: REMARK   33  A    between atoms: C28_46  and  C32_52
DOCKED: REMARK   34  A    between atoms: C29_47  and  C30_48
DOCKED: REMARK   35  A    between atoms: C30_48  and  C31_49
DOCKED: REMARK   36  A    between atoms: C31_49  and  O12_51
DOCKED: REMARK   37  A    between atoms: N9_54  and  C33_55
DOCKED: REMARK   38  A    between atoms: C33_55  and  C34_56
DOCKED: REMARK   39  A    between atoms: C33_55  and  C41_63
DOCKED: REMARK   40  A    between atoms: C34_56  and  C35_57
DOCKED: REMARK   41  A    between atoms: C41_63  and  O15_65
DOCKED: REMARK   42  A    between atoms: C42_66  and  C43_67
DOCKED: REMARK   43  A    between atoms: C42_66  and  C44_68
DOCKED: REMARK                            x       y       z     vdW  Elec       q    Type
DOCKED: REMARK                         _______ _______ _______ _____ _____    ______ ____
DOCKED: USER                              x       y       z     vdW  Elec       q    Type
DOCKED: USER                           _______ _______ _______ _____ _____    ______ ____
DOCKED: ROOT
DOCKED: ATOM      1  C21 UNL     1       7.723  -7.910  -5.423 +0.00 +0.00    +0.129 C  
DOCKED: ENDROOT
DOCKED: BRANCH   1   2
DOCKED: ATOM      2  C22 UNL     1       8.365  -8.753  -4.345 +0.00 +0.00    +0.216 C  
DOCKED: ATOM      3  O8  UNL     1       9.336  -9.477  -4.550 +0.00 -0.00    -0.276 OA 
DOCKED: ATOM      4  N6  UNL     1       7.762  -8.606  -3.124 +0.00 -0.00    -0.304 N  
DOCKED: ATOM      5  H39 UNL     1       6.926  -8.027  -3.042 +0.00 +0.00    +0.149 HD 
DOCKED: BRANCH   4   6
DOCKED: ATOM      6  C23 UNL     1       8.044  -9.456  -1.965 +0.00 +0.00    +0.161 C  
DOCKED: BRANCH   6   7
DOCKED: ATOM      7  C24 UNL     1       6.819  -9.271  -1.042 +0.00 +0.00    +0.234 C  
DOCKED: ATOM      8  O9  UNL     1       5.829  -8.633  -1.413 +0.00 -0.00    -0.274 OA 
DOCKED: ATOM      9  N7  UNL     1       6.888  -9.855   0.197 +0.00 -0.00    -0.303 N  
DOCKED: ATOM     10  H41 UNL     1       7.753 -10.273   0.522 +0.00 +0.00    +0.149 HD 
DOCKED: BRANCH   9  11
DOCKED: ATOM     11  C25 UNL     1       5.852  -9.644   1.202 +0.00 +0.00    +0.156 C  
DOCKED: ATOM     12  C26 UNL     1       5.670  -8.159   1.488 +0.00 +0.00    +0.038 C  
DOCKED: BRANCH  11  13
DOCKED: ATOM     13  C27 UNL     1       4.541 -10.267   0.698 +0.00 +0.00    +0.234 C  
DOCKED: ATOM     14  O10 UNL     1       4.239 -11.441   0.922 +0.00 -0.00    -0.274 OA 
DOCKED: ATOM     15  N8  UNL     1       3.753  -9.416  -0.038 +0.00 -0.00    -0.302 N  
DOCKED: ATOM     16  H46 UNL     1       4.049  -8.461  -0.223 +0.00 +0.00    +0.150 HD 
DOCKED: BRANCH  15  17
DOCKED: ATOM     17  C28 UNL     1       2.460  -9.815  -0.597 +0.00 +0.00    +0.159 C  
DOCKED: BRANCH  17  18
DOCKED: ATOM     18  C32 UNL     1       2.684  -9.961  -2.115 +0.00 +0.00    +0.234 C  
DOCKED: ATOM     19  O13 UNL     1       2.126 -10.849  -2.767 +0.00 -0.00    -0.274 OA 
DOCKED: ATOM     20  N9  UNL     1       3.552  -9.059  -2.681 +0.00 -0.00    -0.301 N  
DOCKED: ATOM     21  H53 UNL     1       3.865  -8.250  -2.139 +0.00 +0.00    +0.150 HD 
DOCKED: BRANCH  20  22
DOCKED: ATOM     22  C33 UNL     1       3.802  -9.037  -4.128 +0.00 +0.00    +0.186 C  
DOCKED: BRANCH  22  23
DOCKED: ATOM     23  C41 UNL     1       4.628  -7.793  -4.437 +0.00 +0.00    +0.326 C  
DOCKED: ATOM     24  O14 UNL     1       4.967  -7.409  -5.548 +0.00 -0.00    -0.249 OA 
DOCKED: BRANCH  23  25
DOCKED: ATOM     25  O15 UNL     1       4.989  -7.097  -3.342 +0.00 -0.00    -0.479 OA 
DOCKED: ATOM     26  H62 UNL     1       5.279  -7.773  -2.694 +0.00 +0.00    +0.295 HD 
DOCKED: ENDBRANCH  23  25
DOCKED: ENDBRANCH  22  23
DOCKED: BRANCH  22  27
DOCKED: ATOM     27  C34 UNL     1       2.479  -9.009  -4.905 +0.00 +0.00    +0.069 C  
DOCKED: BRANCH  27  28
DOCKED: ATOM     28  C35 UNL     1       1.948  -7.615  -5.140 +0.00 -0.00    -0.045 A  
DOCKED: ATOM     29  C36 UNL     1       1.473  -6.855  -4.061 +0.00 +0.00    +0.004 A  
DOCKED: ATOM     30  C37 UNL     1       0.993  -5.562  -4.262 +0.00 +0.00    +0.000 A  
DOCKED: ATOM     31  C38 UNL     1       0.982  -5.013  -5.543 +0.00 +0.00    +0.000 A  
DOCKED: ATOM     32  C39 UNL     1       1.446  -5.762  -6.624 +0.00 +0.00    +0.000 A  
DOCKED: ATOM     33  C40 UNL     1       1.926  -7.057  -6.425 +0.00 +0.00    +0.004 A  
DOCKED: ENDBRANCH  27  28
DOCKED: ENDBRANCH  22  27
DOCKED: ENDBRANCH  20  22
DOCKED: ENDBRANCH  17  18
DOCKED: BRANCH  17  34
DOCKED: ATOM     34  C29 UNL     1       1.390  -8.762  -0.254 +0.00 +0.00    +0.043 C  
DOCKED: BRANCH  34  35
DOCKED: ATOM     35  C30 UNL     1       1.609  -7.362  -0.825 +0.00 +0.00    +0.123 C  
DOCKED: BRANCH  35  36
DOCKED: ATOM     36  C31 UNL     1       2.944  -6.801  -0.426 +0.00 +0.00    +0.305 C  
DOCKED: ATOM     37  O11 UNL     1       3.281  -6.575   0.727 +0.00 -0.00    -0.251 OA 
DOCKED: BRANCH  36  38
DOCKED: ATOM     38  O12 UNL     1       3.779  -6.621  -1.461 +0.00 -0.00    -0.481 OA 
DOCKED: ATOM     39  H52 UNL     1       4.630  -7.018  -1.178 +0.00 +0.00    +0.295 HD 
DOCKED: ENDBRANCH  36  38
DOCKED: ENDBRANCH  35  36
DOCKED: ENDBRANCH  34  35
DOCKED: ENDBRANCH  17  34
DOCKED: ENDBRANCH  15  17
DOCKED: ENDBRANCH  11  13
DOCKED: ENDBRANCH   9  11
DOCKED: ENDBRANCH   6   7
DOCKED: BRANCH   6  40
DOCKED: ATOM     40  C42 UNL     1       9.403  -9.087  -1.329 +0.00 +0.00    +0.012 C  
DOCKED: ATOM     41  C43 UNL     1      10.139 -10.305  -0.763 +0.00 +0.00    +0.009 C  
DOCKED: ATOM     42  C44 UNL     1       9.285  -8.003  -0.253 +0.00 +0.00    +0.009 C  
DOCKED: ENDBRANCH   6  40
DOCKED: ENDBRANCH   4   6
DOCKED: ENDBRANCH   1   2
DOCKED: BRANCH   1  43
DOCKED: ATOM     43  C20 UNL     1       7.800  -6.417  -5.080 +0.00 +0.00    +0.143 C  
DOCKED: BRANCH  43  44
DOCKED: ATOM     44  O7  UNL     1       7.013  -6.150  -3.902 +0.00 -0.00    -0.389 OA 
DOCKED: ATOM     45  H36 UNL     1       6.087  -6.112  -4.222 +0.00 +0.00    +0.210 HD 
DOCKED: ENDBRANCH  43  44
DOCKED: BRANCH  43  46
DOCKED: ATOM     46  C5  UNL     1       7.323  -5.562  -6.298 +0.00 +0.00    +0.102 C  
DOCKED: BRANCH  46  47
DOCKED: ATOM     47  N1  UNL     1       6.014  -4.968  -6.087 +0.00 -0.00    -0.308 N  
DOCKED: ATOM     48  C6  UNL     1       5.403  -4.231  -7.080 +0.00 +0.00    +0.234 C  
DOCKED: ATOM     49  O1  UNL     1       5.911  -4.044  -8.186 +0.00 -0.00    -0.274 OA 
DOCKED: ATOM     50  H11 UNL     1       5.446  -5.345  -5.342 +0.00 +0.00    +0.149 HD 
DOCKED: BRANCH  48  51
DOCKED: ATOM     51  C7  UNL     1       4.034  -3.646  -6.677 +0.00 +0.00    +0.168 C  
DOCKED: BRANCH  51  52
DOCKED: ATOM     52  N3  UNL     1       4.147  -3.020  -5.362 +0.00 -0.00    -0.302 N  
DOCKED: ATOM     53  C10 UNL     1       4.336  -3.823  -4.253 +0.00 +0.00    +0.234 C  
DOCKED: ATOM     54  O3  UNL     1       4.141  -5.040  -4.283 +0.00 -0.00    -0.274 OA 
DOCKED: ATOM     55  H17 UNL     1       4.609  -2.111  -5.370 +0.00 +0.00    +0.150 HD 
DOCKED: BRANCH  53  56
DOCKED: ATOM     56  C11 UNL     1       4.813  -3.103  -2.966 +0.00 +0.00    +0.161 C  
DOCKED: BRANCH  56  57
DOCKED: ATOM     57  N4  UNL     1       5.675  -4.051  -2.251 +0.00 -0.00    -0.302 N  
DOCKED: ATOM     58  C12 UNL     1       5.583  -4.246  -0.889 +0.00 +0.00    +0.230 C  
DOCKED: ATOM     59  O4  UNL     1       4.932  -3.519  -0.144 +0.00 -0.00    -0.274 OA 
DOCKED: ATOM     60  H19 UNL     1       5.898  -4.879  -2.789 +0.00 +0.00    +0.150 HD 
DOCKED: BRANCH  58  61
DOCKED: ATOM     61  C13 UNL     1       6.354  -5.483  -0.372 +0.00 +0.00    +0.138 C  
DOCKED: BRANCH  61  62
DOCKED: ATOM     62  N5  UNL     1       6.589  -6.415  -1.488 +0.00 -0.00    -0.320 NA 
DOCKED: ATOM     63  H21 UNL     1       5.795  -6.358  -2.130 +0.00 +0.00    +0.119 HD 
DOCKED: ATOM     64  H22 UNL     1       7.399  -6.125  -2.039 +0.00 +0.00    +0.119 HD 
DOCKED: ENDBRANCH  61  62
DOCKED: BRANCH  61  65
DOCKED: ATOM     65  C14 UNL     1       7.661  -5.074   0.330 +0.00 +0.00    +0.039 C  
DOCKED: BRANCH  65  66
DOCKED: ATOM     66  C15 UNL     1       8.546  -4.156  -0.513 +0.00 +0.00    +0.122 C  
DOCKED: BRANCH  66  67
DOCKED: ATOM     67  C16 UNL     1       8.867  -4.751  -1.857 +0.00 +0.00    +0.305 C  
DOCKED: ATOM     68  O5  UNL     1       9.678  -5.631  -2.098 +0.00 -0.00    -0.251 OA 
DOCKED: BRANCH  67  69
DOCKED: ATOM     69  O6  UNL     1       8.086  -4.254  -2.838 +0.00 -0.00    -0.481 OA 
DOCKED: ATOM     70  H27 UNL     1       7.367  -4.914  -2.918 +0.00 +0.00    +0.295 HD 
DOCKED: ENDBRANCH  67  69
DOCKED: ENDBRANCH  66  67
DOCKED: ENDBRANCH  65  66
DOCKED: ENDBRANCH  61  65
DOCKED: ENDBRANCH  58  61
DOCKED: ENDBRANCH  56  57
DOCKED: BRANCH  56  71
DOCKED: ATOM     71  C17 UNL     1       5.569  -1.785  -3.248 +0.00 +0.00    +0.012 C  
DOCKED: ATOM     72  C18 UNL     1       6.739  -1.541  -2.288 +0.00 +0.00    +0.009 C  
DOCKED: ATOM     73  C19 UNL     1       4.607  -0.592  -3.200 +0.00 +0.00    +0.009 C  
DOCKED: ENDBRANCH  56  71
DOCKED: ENDBRANCH  53  56
DOCKED: ENDBRANCH  51  52
DOCKED: BRANCH  51  74
DOCKED: ATOM     74  C8  UNL     1       3.531  -2.704  -7.769 +0.00 +0.00    +0.127 C  
DOCKED: BRANCH  74  75
DOCKED: ATOM     75  C9  UNL     1       4.355  -1.437  -7.856 +0.00 +0.00    +0.213 C  
DOCKED: ATOM     76  N2  UNL     1       5.214  -1.371  -8.916 +0.00 -0.00    -0.329 N  
DOCKED: ATOM     77  O2  UNL     1       4.217  -0.481  -7.099 +0.00 -0.00    -0.276 OA 
DOCKED: ATOM     78  H15 UNL     1       5.559  -2.218  -9.363 +0.00 +0.00    +0.145 HD 
DOCKED: ATOM     79  H16 UNL     1       5.837  -0.576  -8.919 +0.00 +0.00    +0.145 HD 
DOCKED: ENDBRANCH  74  75
DOCKED: ENDBRANCH  51  74
DOCKED: ENDBRANCH  48  51
DOCKED: ENDBRANCH  46  47
DOCKED: BRANCH  46  80
DOCKED: ATOM     80  C4  UNL     1       8.358  -4.473  -6.634 +0.00 +0.00    +0.028 C  
DOCKED: BRANCH  80  82
DOCKED: ATOM     81  C1  UNL     1       9.781  -3.031  -5.146 +0.00 +0.00    +0.007 C  
DOCKED: ATOM     82  C2  UNL     1       8.363  -3.266  -5.670 +0.00 -0.00    -0.015 C  
DOCKED: ATOM     83  C3  UNL     1       7.839  -1.987  -6.324 +0.00 +0.00    +0.007 C  
DOCKED: ENDBRANCH  80  82
DOCKED: ENDBRANCH  46  80
DOCKED: ENDBRANCH  43  46
DOCKED: ENDBRANCH   1  43
DOCKED: TORSDOF 36
DOCKED: TER
DOCKED: ENDMDL
________________________________________________________________________________


    FINAL DOCKED STATE:
    ________________________


Run:   11 / 20
Time taken for this run:   7.704s

DOCKED: MODEL        11
DOCKED: USER    Run = 11
DOCKED: USER
DOCKED: USER    Estimated Free Energy of Binding    = +10.74 kcal/mol  [=(1)+(2)+(3)-(4)]
DOCKED: USER
DOCKED: USER    (1) Final Intermolecular Energy     =  +0.00 kcal/mol
DOCKED: USER        vdW + Hbond + desolv Energy     =  +0.00 kcal/mol
DOCKED: USER        Electrostatic Energy            =  +0.00 kcal/mol
DOCKED: USER        Moving Ligand-Fixed Receptor    =  +0.00 kcal/mol
DOCKED: USER        Moving Ligand-Moving Receptor   =  +0.00 kcal/mol
DOCKED: USER    (2) Final Total Internal Energy     = -30.83 kcal/mol
DOCKED: USER    (3) Torsional Free Energy           = +10.74 kcal/mol
DOCKED: USER    (4) Unbound System's Energy         = -30.83 kcal/mol
DOCKED: USER
DOCKED: USER
DOCKED: REMARK  Name = ligands/ligand_15.pdb
DOCKED: REMARK  43 active torsions:
DOCKED: REMARK  status: ('A' for Active; 'I' for Inactive)
DOCKED: REMARK    1  A    between atoms: C1_1  and  C2_2
DOCKED: REMARK    2  A    between atoms: C2_2  and  C3_3
DOCKED: REMARK    3  A    between atoms: C2_2  and  C4_4
DOCKED: REMARK    4  A    between atoms: C4_4  and  C5_5
DOCKED: REMARK    5  A    between atoms: C5_5  and  N1_6
DOCKED: REMARK    6  A    between atoms: C5_5  and  C20_31
DOCKED: REMARK    7  A    between atoms: C6_7  and  C7_9
DOCKED: REMARK    8  A    between atoms: C7_9  and  C8_10
DOCKED: REMARK    9  A    between atoms: C7_9  and  N3_14
DOCKED: REMARK   10  A    between atoms: C8_10  and  C9_11
DOCKED: REMARK   11  A    between atoms: C10_15  and  C11_17
DOCKED: REMARK   12  A    between atoms: C11_17  and  N4_18
DOCKED: REMARK   13  A    between atoms: C11_17  and  C17_28
DOCKED: REMARK   14  A    between atoms: C12_19  and  C13_21
DOCKED: REMARK   15  A    between atoms: C13_21  and  N5_22
DOCKED: REMARK   16  A    between atoms: C13_21  and  C14_23
DOCKED: REMARK   17  A    between atoms: C14_23  and  C15_24
DOCKED: REMARK   18  A    between atoms: C15_24  and  C16_25
DOCKED: REMARK   19  A    between atoms: C16_25  and  O6_27
DOCKED: REMARK   20  A    between atoms: C17_28  and  C18_29
DOCKED: REMARK   21  A    between atoms: C17_28  and  C19_30
DOCKED: REMARK   22  A    between atoms: C20_31  and  O7_32
DOCKED: REMARK   23  A    between atoms: C20_31  and  C21_33
DOCKED: REMARK   24  A    between atoms: C21_33  and  C22_34
DOCKED: REMARK   25  A    between atoms: N6_36  and  C23_37
DOCKED: REMARK   26  A    between atoms: C23_37  and  C24_38
DOCKED: REMARK   27  A    between atoms: C23_37  and  C42_66
DOCKED: REMARK   28  A    between atoms: N7_40  and  C25_41
DOCKED: REMARK   29  A    between atoms: C25_41  and  C26_42
DOCKED: REMARK   30  A    between atoms: C25_41  and  C27_43
DOCKED: REMARK   31  A    between atoms: N8_45  and  C28_46
DOCKED: REMARK   32  A    between atoms: C28_46  and  C29_47
DOCKED: REMARK   33  A    between atoms: C28_46  and  C32_52
DOCKED: REMARK   34  A    between atoms: C29_47  and  C30_48
DOCKED: REMARK   35  A    between atoms: C30_48  and  C31_49
DOCKED: REMARK   36  A    between atoms: C31_49  and  O12_51
DOCKED: REMARK   37  A    between atoms: N9_54  and  C33_55
DOCKED: REMARK   38  A    between atoms: C33_55  and  C34_56
DOCKED: REMARK   39  A    between atoms: C33_55  and  C41_63
DOCKED: REMARK   40  A    between atoms: C34_56  and  C35_57
DOCKED: REMARK   41  A    between atoms: C41_63  and  O15_65
DOCKED: REMARK   42  A    between atoms: C42_66  and  C43_67
DOCKED: REMARK   43  A    between atoms: C42_66  and  C44_68
DOCKED: REMARK                            x       y       z     vdW  Elec       q    Type
DOCKED: REMARK                         _______ _______ _______ _____ _____    ______ ____
DOCKED: USER                              x       y       z     vdW  Elec       q    Type
DOCKED: USER                           _______ _______ _______ _____ _____    ______ ____
DOCKED: ROOT
DOCKED: ATOM      1  C21 UNL     1      12.638 -13.157   1.980 +0.00 +0.00    +0.129 C  
DOCKED: ENDROOT
DOCKED: BRANCH   1   2
DOCKED: ATOM      2  C22 UNL     1      12.917 -13.155   0.495 +0.00 +0.00    +0.216 C  
DOCKED: ATOM      3  O8  UNL     1      13.379 -14.125  -0.102 +0.00 -0.00    -0.276 OA 
DOCKED: ATOM      4  N6  UNL     1      12.584 -11.972  -0.109 +0.00 -0.00    -0.304 N  
DOCKED: ATOM      5  H39 UNL     1      12.255 -11.192   0.460 +0.00 +0.00    +0.149 HD 
DOCKED: BRANCH   4   6
DOCKED: ATOM      6  C23 UNL     1      12.942 -11.626  -1.486 +0.00 +0.00    +0.161 C  
DOCKED: BRANCH   6   7
DOCKED: ATOM      7  C24 UNL     1      13.317 -10.129  -1.425 +0.00 +0.00    +0.234 C  
DOCKED: ATOM      8  O9  UNL     1      13.196  -9.481  -0.381 +0.00 -0.00    -0.274 OA 
DOCKED: ATOM      9  N7  UNL     1      13.797  -9.567  -2.580 +0.00 -0.00    -0.303 N  
DOCKED: ATOM     10  H41 UNL     1      13.779 -10.085  -3.451 +0.00 +0.00    +0.149 HD 
DOCKED: BRANCH   9  11
DOCKED: ATOM     11  C25 UNL     1      14.063  -8.136  -2.684 +0.00 +0.00    +0.156 C  
DOCKED: ATOM     12  C26 UNL     1      15.073  -7.852  -3.787 +0.00 +0.00    +0.038 C  
DOCKED: BRANCH  11  13
DOCKED: ATOM     13  C27 UNL     1      12.738  -7.407  -2.956 +0.00 +0.00    +0.234 C  
DOCKED: ATOM     14  O10 UNL     1      12.451  -6.953  -4.064 +0.00 -0.00    -0.274 OA 
DOCKED: ATOM     15  N8  UNL     1      11.918  -7.288  -1.859 +0.00 -0.00    -0.302 N  
DOCKED: ATOM     16  H46 UNL     1      12.202  -7.655  -0.954 +0.00 +0.00    +0.150 HD 
DOCKED: BRANCH  15  17
DOCKED: ATOM     17  C28 UNL     1      10.609  -6.637  -1.914 +0.00 +0.00    +0.159 C  
DOCKED: BRANCH  17  18
DOCKED: ATOM     18  C32 UNL     1      10.706  -5.414  -0.980 +0.00 +0.00    +0.234 C  
DOCKED: ATOM     19  O13 UNL     1      10.055  -4.387  -1.192 +0.00 -0.00    -0.274 OA 
DOCKED: ATOM     20  N9  UNL     1      11.570  -5.540   0.081 +0.00 -0.00    -0.301 N  
DOCKED: ATOM     21  H53 UNL     1      11.964  -6.456   0.306 +0.00 +0.00    +0.150 HD 
DOCKED: BRANCH  20  22
DOCKED: ATOM     22  C33 UNL     1      11.707  -4.481   1.090 +0.00 +0.00    +0.186 C  
DOCKED: BRANCH  22  23
DOCKED: ATOM     23  C41 UNL     1      12.685  -4.975   2.150 +0.00 +0.00    +0.326 C  
DOCKED: ATOM     24  O14 UNL     1      13.002  -4.381   3.172 +0.00 -0.00    -0.249 OA 
DOCKED: BRANCH  23  25
DOCKED: ATOM     25  O15 UNL     1      13.216  -6.182   1.877 +0.00 -0.00    -0.479 OA 
DOCKED: ATOM     26  H62 UNL     1      13.381  -6.592   2.752 +0.00 +0.00    +0.295 HD 
DOCKED: ENDBRANCH  23  25
DOCKED: ENDBRANCH  22  23
DOCKED: BRANCH  22  27
DOCKED: ATOM     27  C34 UNL     1      10.346  -4.159   1.722 +0.00 +0.00    +0.069 C  
DOCKED: BRANCH  27  28
DOCKED: ATOM     28  C35 UNL     1       9.986  -5.071   2.871 +0.00 -0.00    -0.045 A  
DOCKED: ATOM     29  C36 UNL     1      10.233  -4.665   4.191 +0.00 +0.00    +0.004 A  
DOCKED: ATOM     30  C37 UNL     1       9.893  -5.491   5.262 +0.00 +0.00    +0.000 A  
DOCKED: ATOM     31  C38 UNL     1       9.302  -6.730   5.026 +0.00 +0.00    +0.000 A  
DOCKED: ATOM     32  C39 UNL     1       9.058  -7.147   3.718 +0.00 +0.00    +0.000 A  
DOCKED: ATOM     33  C40 UNL     1       9.399  -6.322   2.645 +0.00 +0.00    +0.004 A  
DOCKED: ENDBRANCH  27  28
DOCKED: ENDBRANCH  22  27
DOCKED: ENDBRANCH  20  22
DOCKED: ENDBRANCH  17  18
DOCKED: BRANCH  17  34
DOCKED: ATOM     34  C29 UNL     1       9.510  -7.627  -1.484 +0.00 +0.00    +0.043 C  
DOCKED: BRANCH  34  35
DOCKED: ATOM     35  C30 UNL     1       9.414  -7.925   0.011 +0.00 +0.00    +0.123 C  
DOCKED: BRANCH  35  36
DOCKED: ATOM     36  C31 UNL     1      10.644  -8.620   0.520 +0.00 +0.00    +0.305 C  
DOCKED: ATOM     37  O11 UNL     1      11.566  -8.059   1.096 +0.00 -0.00    -0.251 OA 
DOCKED: BRANCH  36  38
DOCKED: ATOM     38  O12 UNL     1      10.620  -9.949   0.341 +0.00 -0.00    -0.481 OA 
DOCKED: ATOM     39  H52 UNL     1      11.477 -10.273   0.690 +0.00 +0.00    +0.295 HD 
DOCKED: ENDBRANCH  36  38
DOCKED: ENDBRANCH  35  36
DOCKED: ENDBRANCH  34  35
DOCKED: ENDBRANCH  17  34
DOCKED: ENDBRANCH  15  17
DOCKED: ENDBRANCH  11  13
DOCKED: ENDBRANCH   9  11
DOCKED: ENDBRANCH   6   7
DOCKED: BRANCH   6  40
DOCKED: ATOM     40  C42 UNL     1      11.792 -11.972  -2.458 +0.00 +0.00    +0.012 C  
DOCKED: ATOM     41  C43 UNL     1      10.921 -10.757  -2.797 +0.00 +0.00    +0.009 C  
DOCKED: ATOM     42  C44 UNL     1      10.912 -13.121  -1.960 +0.00 +0.00    +0.009 C  
DOCKED: ENDBRANCH   6  40
DOCKED: ENDBRANCH   4   6
DOCKED: ENDBRANCH   1   2
DOCKED: BRANCH   1  43
DOCKED: ATOM     43  C20 UNL     1      11.660 -12.040   2.363 +0.00 +0.00    +0.143 C  
DOCKED: BRANCH  43  44
DOCKED: ATOM     44  O7  UNL     1      12.247 -10.758   2.063 +0.00 -0.00    -0.389 OA 
DOCKED: ATOM     45  H36 UNL     1      13.187 -10.844   2.327 +0.00 +0.00    +0.210 HD 
DOCKED: ENDBRANCH  43  44
DOCKED: BRANCH  43  46
DOCKED: ATOM     46  C5  UNL     1      11.275 -12.159   3.872 +0.00 +0.00    +0.102 C  
DOCKED: BRANCH  46  47
DOCKED: ATOM     47  N1  UNL     1      11.867 -11.110   4.685 +0.00 -0.00    -0.308 N  
DOCKED: ATOM     48  C6  UNL     1      13.235 -10.936   4.730 +0.00 +0.00    +0.234 C  
DOCKED: ATOM     49  O1  UNL     1      14.021 -11.635   4.089 +0.00 -0.00    -0.274 OA 
DOCKED: ATOM     50  H11 UNL     1      11.271 -10.346   4.966 +0.00 +0.00    +0.149 HD 
DOCKED: BRANCH  48  51
DOCKED: ATOM     51  C7  UNL     1      13.694  -9.801   5.667 +0.00 +0.00    +0.168 C  
DOCKED: BRANCH  51  52
DOCKED: ATOM     52  N3  UNL     1      14.935  -9.226   5.152 +0.00 -0.00    -0.302 N  
DOCKED: ATOM     53  C10 UNL     1      16.134  -9.596   5.729 +0.00 +0.00    +0.234 C  
DOCKED: ATOM     54  O3  UNL     1      16.188 -10.168   6.821 +0.00 -0.00    -0.274 OA 
DOCKED: ATOM     55  H17 UNL     1      14.928  -9.051   4.147 +0.00 +0.00    +0.150 HD 
DOCKED: BRANCH  53  56
DOCKED: ATOM     56  C11 UNL     1      17.411  -9.254   4.920 +0.00 +0.00    +0.161 C  
DOCKED: BRANCH  56  57
DOCKED: ATOM     57  N4  UNL     1      17.099  -9.523   3.512 +0.00 -0.00    -0.302 N  
DOCKED: ATOM     58  C12 UNL     1      16.733 -10.775   3.066 +0.00 +0.00    +0.230 C  
DOCKED: ATOM     59  O4  UNL     1      16.830 -11.792   3.748 +0.00 -0.00    -0.274 OA 
DOCKED: ATOM     60  H19 UNL     1      16.641  -8.750   3.045 +0.00 +0.00    +0.150 HD 
DOCKED: BRANCH  58  61
DOCKED: ATOM     61  C13 UNL     1      16.161 -10.794   1.629 +0.00 +0.00    +0.138 C  
DOCKED: BRANCH  61  62
DOCKED: ATOM     62  N5  UNL     1      14.698 -10.955   1.686 +0.00 -0.00    -0.320 NA 
DOCKED: ATOM     63  H21 UNL     1      14.383 -10.717   2.629 +0.00 +0.00    +0.119 HD 
DOCKED: ATOM     64  H22 UNL     1      14.236 -10.282   1.072 +0.00 +0.00    +0.119 HD 
DOCKED: ENDBRANCH  61  62
DOCKED: BRANCH  61  65
DOCKED: ATOM     65  C14 UNL     1      16.580  -9.538   0.844 +0.00 +0.00    +0.039 C  
DOCKED: BRANCH  65  66
DOCKED: ATOM     66  C15 UNL     1      15.473  -8.488   0.738 +0.00 +0.00    +0.122 C  
DOCKED: BRANCH  66  67
DOCKED: ATOM     67  C16 UNL     1      14.903  -8.124   2.082 +0.00 +0.00    +0.305 C  
DOCKED: ATOM     68  O5  UNL     1      15.355  -7.319   2.880 +0.00 -0.00    -0.251 OA 
DOCKED: BRANCH  67  69
DOCKED: ATOM     69  O6  UNL     1      13.732  -8.748   2.328 +0.00 -0.00    -0.481 OA 
DOCKED: ATOM     70  H27 UNL     1      13.468  -9.097   1.452 +0.00 +0.00    +0.295 HD 
DOCKED: ENDBRANCH  67  69
DOCKED: ENDBRANCH  66  67
DOCKED: ENDBRANCH  65  66
DOCKED: ENDBRANCH  61  65
DOCKED: ENDBRANCH  58  61
DOCKED: ENDBRANCH  56  57
DOCKED: BRANCH  56  71
DOCKED: ATOM     71  C17 UNL     1      17.879  -7.793   5.105 +0.00 +0.00    +0.012 C  
DOCKED: ATOM     72  C18 UNL     1      16.792  -6.877   5.680 +0.00 +0.00    +0.009 C  
DOCKED: ATOM     73  C19 UNL     1      18.386  -7.219   3.777 +0.00 +0.00    +0.009 C  
DOCKED: ENDBRANCH  56  71
DOCKED: ENDBRANCH  53  56
DOCKED: ENDBRANCH  51  52
DOCKED: BRANCH  51  74
DOCKED: ATOM     74  C8  UNL     1      12.568  -8.785   5.844 +0.00 +0.00    +0.127 C  
DOCKED: BRANCH  74  75
DOCKED: ATOM     75  C9  UNL     1      12.557  -7.746   4.742 +0.00 +0.00    +0.213 C  
DOCKED: ATOM     76  N2  UNL     1      11.897  -8.111   3.603 +0.00 -0.00    -0.329 N  
DOCKED: ATOM     77  O2  UNL     1      13.016  -6.615   4.868 +0.00 -0.00    -0.276 OA 
DOCKED: ATOM     78  H15 UNL     1      11.776  -9.092   3.359 +0.00 +0.00    +0.145 HD 
DOCKED: ATOM     79  H16 UNL     1      11.976  -7.463   2.832 +0.00 +0.00    +0.145 HD 
DOCKED: ENDBRANCH  74  75
DOCKED: ENDBRANCH  51  74
DOCKED: ENDBRANCH  48  51
DOCKED: ENDBRANCH  46  47
DOCKED: BRANCH  46  80
DOCKED: ATOM     80  C4  UNL     1       9.745 -12.170   4.042 +0.00 +0.00    +0.028 C  
DOCKED: BRANCH  80  82
DOCKED: ATOM     81  C1  UNL     1       8.383 -10.796   2.437 +0.00 +0.00    +0.007 C  
DOCKED: ATOM     82  C2  UNL     1       9.058 -10.806   3.810 +0.00 -0.00    -0.015 C  
DOCKED: ATOM     83  C3  UNL     1       8.028 -10.472   4.890 +0.00 +0.00    +0.007 C  
DOCKED: ENDBRANCH  80  82
DOCKED: ENDBRANCH  46  80
DOCKED: ENDBRANCH  43  46
DOCKED: ENDBRANCH   1  43
DOCKED: TORSDOF 36
DOCKED: TER
DOCKED: ENDMDL
________________________________________________________________________________


    FINAL DOCKED STATE:
    ________________________


Run:   12 / 20
Time taken for this run:   7.704s

DOCKED: MODEL        12
DOCKED: USER    Run = 12
DOCKED: USER
DOCKED: USER    Estimated Free Energy of Binding    = +10.74 kcal/mol  [=(1)+(2)+(3)-(4)]
DOCKED: USER
DOCKED: USER    (1) Final Intermolecular Energy     =  +0.00 kcal/mol
DOCKED: USER        vdW + Hbond + desolv Energy     =  +0.00 kcal/mol
DOCKED: USER        Electrostatic Energy            =  +0.00 kcal/mol
DOCKED: USER        Moving Ligand-Fixed Receptor    =  +0.00 kcal/mol
DOCKED: USER        Moving Ligand-Moving Receptor   =  +0.00 kcal/mol
DOCKED: USER    (2) Final Total Internal Energy     = -31.68 kcal/mol
DOCKED: USER    (3) Torsional Free Energy           = +10.74 kcal/mol
DOCKED: USER    (4) Unbound System's Energy         = -31.68 kcal/mol
DOCKED: USER
DOCKED: USER
DOCKED: REMARK  Name = ligands/ligand_15.pdb
DOCKED: REMARK  43 active torsions:
DOCKED: REMARK  status: ('A' for Active; 'I' for Inactive)
DOCKED: REMARK    1  A    between atoms: C1_1  and  C2_2
DOCKED: REMARK    2  A    between atoms: C2_2  and  C3_3
DOCKED: REMARK    3  A    between atoms: C2_2  and  C4_4
DOCKED: REMARK    4  A    between atoms: C4_4  and  C5_5
DOCKED: REMARK    5  A    between atoms: C5_5  and  N1_6
DOCKED: REMARK    6  A    between atoms: C5_5  and  C20_31
DOCKED: REMARK    7  A    between atoms: C6_7  and  C7_9
DOCKED: REMARK    8  A    between atoms: C7_9  and  C8_10
DOCKED: REMARK    9  A    between atoms: C7_9  and  N3_14
DOCKED: REMARK   10  A    between atoms: C8_10  and  C9_11
DOCKED: REMARK   11  A    between atoms: C10_15  and  C11_17
DOCKED: REMARK   12  A    between atoms: C11_17  and  N4_18
DOCKED: REMARK   13  A    between atoms: C11_17  and  C17_28
DOCKED: REMARK   14  A    between atoms: C12_19  and  C13_21
DOCKED: REMARK   15  A    between atoms: C13_21  and  N5_22
DOCKED: REMARK   16  A    between atoms: C13_21  and  C14_23
DOCKED: REMARK   17  A    between atoms: C14_23  and  C15_24
DOCKED: REMARK   18  A    between atoms: C15_24  and  C16_25
DOCKED: REMARK   19  A    between atoms: C16_25  and  O6_27
DOCKED: REMARK   20  A    between atoms: C17_28  and  C18_29
DOCKED: REMARK   21  A    between atoms: C17_28  and  C19_30
DOCKED: REMARK   22  A    between atoms: C20_31  and  O7_32
DOCKED: REMARK   23  A    between atoms: C20_31  and  C21_33
DOCKED: REMARK   24  A    between atoms: C21_33  and  C22_34
DOCKED: REMARK   25  A    between atoms: N6_36  and  C23_37
DOCKED: REMARK   26  A    between atoms: C23_37  and  C24_38
DOCKED: REMARK   27  A    between atoms: C23_37  and  C42_66
DOCKED: REMARK   28  A    between atoms: N7_40  and  C25_41
DOCKED: REMARK   29  A    between atoms: C25_41  and  C26_42
DOCKED: REMARK   30  A    between atoms: C25_41  and  C27_43
DOCKED: REMARK   31  A    between atoms: N8_45  and  C28_46
DOCKED: REMARK   32  A    between atoms: C28_46  and  C29_47
DOCKED: REMARK   33  A    between atoms: C28_46  and  C32_52
DOCKED: REMARK   34  A    between atoms: C29_47  and  C30_48
DOCKED: REMARK   35  A    between atoms: C30_48  and  C31_49
DOCKED: REMARK   36  A    between atoms: C31_49  and  O12_51
DOCKED: REMARK   37  A    between atoms: N9_54  and  C33_55
DOCKED: REMARK   38  A    between atoms: C33_55  and  C34_56
DOCKED: REMARK   39  A    between atoms: C33_55  and  C41_63
DOCKED: REMARK   40  A    between atoms: C34_56  and  C35_57
DOCKED: REMARK   41  A    between atoms: C41_63  and  O15_65
DOCKED: REMARK   42  A    between atoms: C42_66  and  C43_67
DOCKED: REMARK   43  A    between atoms: C42_66  and  C44_68
DOCKED: REMARK                            x       y       z     vdW  Elec       q    Type
DOCKED: REMARK                         _______ _______ _______ _____ _____    ______ ____
DOCKED: USER                              x       y       z     vdW  Elec       q    Type
DOCKED: USER                           _______ _______ _______ _____ _____    ______ ____
DOCKED: ROOT
DOCKED: ATOM      1  C21 UNL     1       9.741  -1.196  -1.756 +0.00 +0.00    +0.129 C  
DOCKED: ENDROOT
DOCKED: BRANCH   1   2
DOCKED: ATOM      2  C22 UNL     1      11.065  -0.744  -1.184 +0.00 +0.00    +0.216 C  
DOCKED: ATOM      3  O8  UNL     1      11.160  -0.093  -0.147 +0.00 -0.00    -0.276 OA 
DOCKED: ATOM      4  N6  UNL     1      12.137  -1.156  -1.932 +0.00 -0.00    -0.304 N  
DOCKED: ATOM      5  H39 UNL     1      11.977  -1.648  -2.811 +0.00 +0.00    +0.149 HD 
DOCKED: BRANCH   4   6
DOCKED: ATOM      6  C23 UNL     1      13.508  -0.684  -1.726 +0.00 +0.00    +0.161 C  
DOCKED: BRANCH   6   7
DOCKED: ATOM      7  C24 UNL     1      14.178  -0.821  -3.111 +0.00 +0.00    +0.234 C  
DOCKED: ATOM      8  O9  UNL     1      13.905  -1.762  -3.863 +0.00 -0.00    -0.274 OA 
DOCKED: ATOM      9  N7  UNL     1      15.077   0.154  -3.460 +0.00 -0.00    -0.303 N  
DOCKED: ATOM     10  H41 UNL     1      15.371   0.849  -2.782 +0.00 +0.00    +0.149 HD 
DOCKED: BRANCH   9  11
DOCKED: ATOM     11  C25 UNL     1      15.868   0.065  -4.682 +0.00 +0.00    +0.156 C  
DOCKED: ATOM     12  C26 UNL     1      16.310  -1.369  -4.938 +0.00 +0.00    +0.038 C  
DOCKED: BRANCH  11  13
DOCKED: ATOM     13  C27 UNL     1      15.024   0.593  -5.853 +0.00 +0.00    +0.234 C  
DOCKED: ATOM     14  O10 UNL     1      15.414   1.500  -6.591 +0.00 -0.00    -0.274 OA 
DOCKED: ATOM     15  N8  UNL     1      13.799  -0.013  -5.991 +0.00 -0.00    -0.302 N  
DOCKED: ATOM     16  H46 UNL     1      13.502  -0.741  -5.346 +0.00 +0.00    +0.150 HD 
DOCKED: BRANCH  15  17
DOCKED: ATOM     17  C28 UNL     1      12.853   0.340  -7.050 +0.00 +0.00    +0.159 C  
DOCKED: BRANCH  17  18
DOCKED: ATOM     18  C32 UNL     1      12.339   1.752  -6.706 +0.00 +0.00    +0.234 C  
DOCKED: ATOM     19  O13 UNL     1      11.865   2.495  -7.570 +0.00 -0.00    -0.274 OA 
DOCKED: ATOM     20  N9  UNL     1      12.463   2.128  -5.390 +0.00 -0.00    -0.301 N  
DOCKED: ATOM     21  H53 UNL     1      12.712   1.430  -4.686 +0.00 +0.00    +0.150 HD 
DOCKED: BRANCH  20  22
DOCKED: ATOM     22  C33 UNL     1      11.950   3.417  -4.908 +0.00 +0.00    +0.186 C  
DOCKED: BRANCH  22  23
DOCKED: ATOM     23  C41 UNL     1      10.437   3.414  -5.099 +0.00 +0.00    +0.326 C  
DOCKED: ATOM     24  O14 UNL     1       9.816   4.034  -5.952 +0.00 -0.00    -0.249 OA 
DOCKED: BRANCH  23  25
DOCKED: ATOM     25  O15 UNL     1       9.781   2.641  -4.213 +0.00 -0.00    -0.479 OA 
DOCKED: ATOM     26  H62 UNL     1      10.367   1.869  -4.065 +0.00 +0.00    +0.295 HD 
DOCKED: ENDBRANCH  23  25
DOCKED: ENDBRANCH  22  23
DOCKED: BRANCH  22  27
DOCKED: ATOM     27  C34 UNL     1      12.587   4.577  -5.686 +0.00 +0.00    +0.069 C  
DOCKED: BRANCH  27  28
DOCKED: ATOM     28  C35 UNL     1      14.095   4.511  -5.737 +0.00 -0.00    -0.045 A  
DOCKED: ATOM     29  C36 UNL     1      14.815   4.082  -4.612 +0.00 +0.00    +0.004 A  
DOCKED: ATOM     30  C37 UNL     1      16.207   4.004  -4.649 +0.00 +0.00    +0.000 A  
DOCKED: ATOM     31  C38 UNL     1      16.894   4.352  -5.810 +0.00 +0.00    +0.000 A  
DOCKED: ATOM     32  C39 UNL     1      16.189   4.785  -6.932 +0.00 +0.00    +0.000 A  
DOCKED: ATOM     33  C40 UNL     1      14.796   4.866  -6.896 +0.00 +0.00    +0.004 A  
DOCKED: ENDBRANCH  27  28
DOCKED: ENDBRANCH  22  27
DOCKED: ENDBRANCH  20  22
DOCKED: ENDBRANCH  17  18
DOCKED: BRANCH  17  34
DOCKED: ATOM     34  C29 UNL     1      11.722  -0.703  -7.115 +0.00 +0.00    +0.043 C  
DOCKED: BRANCH  34  35
DOCKED: ATOM     35  C30 UNL     1      11.308  -1.337  -5.789 +0.00 +0.00    +0.123 C  
DOCKED: BRANCH  35  36
DOCKED: ATOM     36  C31 UNL     1      10.738  -0.322  -4.840 +0.00 +0.00    +0.305 C  
DOCKED: ATOM     37  O11 UNL     1       9.558  -0.004  -4.797 +0.00 -0.00    -0.251 OA 
DOCKED: BRANCH  36  38
DOCKED: ATOM     38  O12 UNL     1      11.642   0.173  -3.981 +0.00 -0.00    -0.481 OA 
DOCKED: ATOM     39  H52 UNL     1      11.201   0.939  -3.556 +0.00 +0.00    +0.295 HD 
DOCKED: ENDBRANCH  36  38
DOCKED: ENDBRANCH  35  36
DOCKED: ENDBRANCH  34  35
DOCKED: ENDBRANCH  17  34
DOCKED: ENDBRANCH  15  17
DOCKED: ENDBRANCH  11  13
DOCKED: ENDBRANCH   9  11
DOCKED: ENDBRANCH   6   7
DOCKED: BRANCH   6  40
DOCKED: ATOM     40  C42 UNL     1      14.195  -1.470  -0.587 +0.00 +0.00    +0.012 C  
DOCKED: ATOM     41  C43 UNL     1      15.699  -1.188  -0.500 +0.00 +0.00    +0.009 C  
DOCKED: ATOM     42  C44 UNL     1      13.951  -2.979  -0.669 +0.00 +0.00    +0.009 C  
DOCKED: ENDBRANCH   6  40
DOCKED: ENDBRANCH   4   6
DOCKED: ENDBRANCH   1   2
DOCKED: BRANCH   1  43
DOCKED: ATOM     43  C20 UNL     1       8.742  -0.034  -1.827 +0.00 +0.00    +0.143 C  
DOCKED: BRANCH  43  44
DOCKED: ATOM     44  O7  UNL     1       9.422   1.164  -2.249 +0.00 -0.00    -0.389 OA 
DOCKED: ATOM     45  H36 UNL     1      10.005   0.877  -2.983 +0.00 +0.00    +0.210 HD 
DOCKED: ENDBRANCH  43  44
DOCKED: BRANCH  43  46
DOCKED: ATOM     46  C5  UNL     1       8.043   0.156  -0.443 +0.00 +0.00    +0.102 C  
DOCKED: BRANCH  46  47
DOCKED: ATOM     47  N1  UNL     1       8.901   0.808   0.532 +0.00 -0.00    -0.308 N  
DOCKED: ATOM     48  C6  UNL     1       8.994   0.332   1.824 +0.00 +0.00    +0.234 C  
DOCKED: ATOM     49  O1  UNL     1       8.380  -0.660   2.219 +0.00 -0.00    -0.274 OA 
DOCKED: ATOM     50  H11 UNL     1       9.633   1.407   0.182 +0.00 +0.00    +0.149 HD 
DOCKED: BRANCH  48  51
DOCKED: ATOM     51  C7  UNL     1       9.922   1.161   2.734 +0.00 +0.00    +0.168 C  
DOCKED: BRANCH  51  52
DOCKED: ATOM     52  N3  UNL     1      11.117   1.541   1.985 +0.00 -0.00    -0.302 N  
DOCKED: ATOM     53  C10 UNL     1      12.334   0.998   2.347 +0.00 +0.00    +0.234 C  
DOCKED: ATOM     54  O3  UNL     1      12.505   0.431   3.429 +0.00 -0.00    -0.274 OA 
DOCKED: ATOM     55  H17 UNL     1      10.951   1.710   0.992 +0.00 +0.00    +0.150 HD 
DOCKED: BRANCH  53  56
DOCKED: ATOM     56  C11 UNL     1      13.477   1.141   1.310 +0.00 +0.00    +0.161 C  
DOCKED: BRANCH  56  57
DOCKED: ATOM     57  N4  UNL     1      12.956   1.983   0.226 +0.00 -0.00    -0.302 N  
DOCKED: ATOM     58  C12 UNL     1      13.697   2.275  -0.899 +0.00 +0.00    +0.230 C  
DOCKED: ATOM     59  O4  UNL     1      14.896   2.034  -1.002 +0.00 -0.00    -0.274 OA 
DOCKED: ATOM     60  H19 UNL     1      11.962   1.870   0.069 +0.00 +0.00    +0.150 HD 
DOCKED: BRANCH  58  61
DOCKED: ATOM     61  C13 UNL     1      12.881   2.917  -2.045 +0.00 +0.00    +0.138 C  
DOCKED: BRANCH  61  62
DOCKED: ATOM     62  N5  UNL     1      11.749   2.041  -2.392 +0.00 -0.00    -0.320 NA 
DOCKED: ATOM     63  H21 UNL     1      11.492   1.501  -1.562 +0.00 +0.00    +0.119 HD 
DOCKED: ATOM     64  H22 UNL     1      10.919   2.593  -2.619 +0.00 +0.00    +0.119 HD 
DOCKED: ENDBRANCH  61  62
DOCKED: BRANCH  61  65
DOCKED: ATOM     65  C14 UNL     1      12.425   4.341  -1.679 +0.00 +0.00    +0.039 C  
DOCKED: BRANCH  65  66
DOCKED: ATOM     66  C15 UNL     1      10.991   4.652  -2.109 +0.00 +0.00    +0.122 C  
DOCKED: BRANCH  66  67
DOCKED: ATOM     67  C16 UNL     1       9.980   4.199  -1.092 +0.00 +0.00    +0.305 C  
DOCKED: ATOM     68  O5  UNL     1       8.949   4.770  -0.774 +0.00 -0.00    -0.251 OA 
DOCKED: BRANCH  67  69
DOCKED: ATOM     69  O6  UNL     1      10.283   2.992  -0.570 +0.00 -0.00    -0.481 OA 
DOCKED: ATOM     70  H27 UNL     1       9.954   2.361  -1.243 +0.00 +0.00    +0.295 HD 
DOCKED: ENDBRANCH  67  69
DOCKED: ENDBRANCH  66  67
DOCKED: ENDBRANCH  65  66
DOCKED: ENDBRANCH  61  65
DOCKED: ENDBRANCH  58  61
DOCKED: ENDBRANCH  56  57
DOCKED: BRANCH  56  71
DOCKED: ATOM     71  C17 UNL     1      14.768   1.752   1.901 +0.00 +0.00    +0.012 C  
DOCKED: ATOM     72  C18 UNL     1      15.591   0.751   2.721 +0.00 +0.00    +0.009 C  
DOCKED: ATOM     73  C19 UNL     1      14.437   2.975   2.765 +0.00 +0.00    +0.009 C  
DOCKED: ENDBRANCH  56  71
DOCKED: ENDBRANCH  53  56
DOCKED: ENDBRANCH  51  52
DOCKED: BRANCH  51  74
DOCKED: ATOM     74  C8  UNL     1       9.154   2.346   3.317 +0.00 +0.00    +0.127 C  
DOCKED: BRANCH  74  75
DOCKED: ATOM     75  C9  UNL     1       9.703   3.674   2.840 +0.00 +0.00    +0.213 C  
DOCKED: ATOM     76  N2  UNL     1       9.206   4.115   1.647 +0.00 -0.00    -0.329 N  
DOCKED: ATOM     77  O2  UNL     1      10.468   4.370   3.499 +0.00 -0.00    -0.276 OA 
DOCKED: ATOM     78  H15 UNL     1       8.826   3.463   0.964 +0.00 +0.00    +0.145 HD 
DOCKED: ATOM     79  H16 UNL     1       9.645   4.947   1.277 +0.00 +0.00    +0.145 HD 
DOCKED: ENDBRANCH  74  75
DOCKED: ENDBRANCH  51  74
DOCKED: ENDBRANCH  48  51
DOCKED: ENDBRANCH  46  47
DOCKED: BRANCH  46  80
DOCKED: ATOM     80  C4  UNL     1       6.726   0.935  -0.603 +0.00 +0.00    +0.028 C  
DOCKED: BRANCH  80  82
DOCKED: ATOM     81  C1  UNL     1       6.590   3.035  -1.979 +0.00 +0.00    +0.007 C  
DOCKED: ATOM     82  C2  UNL     1       6.876   2.473  -0.585 +0.00 -0.00    -0.015 C  
DOCKED: ATOM     83  C3  UNL     1       5.957   3.143   0.437 +0.00 +0.00    +0.007 C  
DOCKED: ENDBRANCH  80  82
DOCKED: ENDBRANCH  46  80
DOCKED: ENDBRANCH  43  46
DOCKED: ENDBRANCH   1  43
DOCKED: TORSDOF 36
DOCKED: TER
DOCKED: ENDMDL
________________________________________________________________________________


    FINAL DOCKED STATE:
    ________________________


Run:   13 / 20
Time taken for this run:   7.704s

DOCKED: MODEL        13
DOCKED: USER    Run = 13
DOCKED: USER
DOCKED: USER    Estimated Free Energy of Binding    = +10.74 kcal/mol  [=(1)+(2)+(3)-(4)]
DOCKED: USER
DOCKED: USER    (1) Final Intermolecular Energy     =  +0.00 kcal/mol
DOCKED: USER        vdW + Hbond + desolv Energy     =  +0.00 kcal/mol
DOCKED: USER        Electrostatic Energy            =  +0.00 kcal/mol
DOCKED: USER        Moving Ligand-Fixed Receptor    =  +0.00 kcal/mol
DOCKED: USER        Moving Ligand-Moving Receptor   =  +0.00 kcal/mol
DOCKED: USER    (2) Final Total Internal Energy     = -33.60 kcal/mol
DOCKED: USER    (3) Torsional Free Energy           = +10.74 kcal/mol
DOCKED: USER    (4) Unbound System's Energy         = -33.60 kcal/mol
DOCKED: USER
DOCKED: USER
DOCKED: REMARK  Name = ligands/ligand_15.pdb
DOCKED: REMARK  43 active torsions:
DOCKED: REMARK  status: ('A' for Active; 'I' for Inactive)
DOCKED: REMARK    1  A    between atoms: C1_1  and  C2_2
DOCKED: REMARK    2  A    between atoms: C2_2  and  C3_3
DOCKED: REMARK    3  A    between atoms: C2_2  and  C4_4
DOCKED: REMARK    4  A    between atoms: C4_4  and  C5_5
DOCKED: REMARK    5  A    between atoms: C5_5  and  N1_6
DOCKED: REMARK    6  A    between atoms: C5_5  and  C20_31
DOCKED: REMARK    7  A    between atoms: C6_7  and  C7_9
DOCKED: REMARK    8  A    between atoms: C7_9  and  C8_10
DOCKED: REMARK    9  A    between atoms: C7_9  and  N3_14
DOCKED: REMARK   10  A    between atoms: C8_10  and  C9_11
DOCKED: REMARK   11  A    between atoms: C10_15  and  C11_17
DOCKED: REMARK   12  A    between atoms: C11_17  and  N4_18
DOCKED: REMARK   13  A    between atoms: C11_17  and  C17_28
DOCKED: REMARK   14  A    between atoms: C12_19  and  C13_21
DOCKED: REMARK   15  A    between atoms: C13_21  and  N5_22
DOCKED: REMARK   16  A    between atoms: C13_21  and  C14_23
DOCKED: REMARK   17  A    between atoms: C14_23  and  C15_24
DOCKED: REMARK   18  A    between atoms: C15_24  and  C16_25
DOCKED: REMARK   19  A    between atoms: C16_25  and  O6_27
DOCKED: REMARK   20  A    between atoms: C17_28  and  C18_29
DOCKED: REMARK   21  A    between atoms: C17_28  and  C19_30
DOCKED: REMARK   22  A    between atoms: C20_31  and  O7_32
DOCKED: REMARK   23  A    between atoms: C20_31  and  C21_33
DOCKED: REMARK   24  A    between atoms: C21_33  and  C22_34
DOCKED: REMARK   25  A    between atoms: N6_36  and  C23_37
DOCKED: REMARK   26  A    between atoms: C23_37  and  C24_38
DOCKED: REMARK   27  A    between atoms: C23_37  and  C42_66
DOCKED: REMARK   28  A    between atoms: N7_40  and  C25_41
DOCKED: REMARK   29  A    between atoms: C25_41  and  C26_42
DOCKED: REMARK   30  A    between atoms: C25_41  and  C27_43
DOCKED: REMARK   31  A    between atoms: N8_45  and  C28_46
DOCKED: REMARK   32  A    between atoms: C28_46  and  C29_47
DOCKED: REMARK   33  A    between atoms: C28_46  and  C32_52
DOCKED: REMARK   34  A    between atoms: C29_47  and  C30_48
DOCKED: REMARK   35  A    between atoms: C30_48  and  C31_49
DOCKED: REMARK   36  A    between atoms: C31_49  and  O12_51
DOCKED: REMARK   37  A    between atoms: N9_54  and  C33_55
DOCKED: REMARK   38  A    between atoms: C33_55  and  C34_56
DOCKED: REMARK   39  A    between atoms: C33_55  and  C41_63
DOCKED: REMARK   40  A    between atoms: C34_56  and  C35_57
DOCKED: REMARK   41  A    between atoms: C41_63  and  O15_65
DOCKED: REMARK   42  A    between atoms: C42_66  and  C43_67
DOCKED: REMARK   43  A    between atoms: C42_66  and  C44_68
DOCKED: REMARK                            x       y       z     vdW  Elec       q    Type
DOCKED: REMARK                         _______ _______ _______ _____ _____    ______ ____
DOCKED: USER                              x       y       z     vdW  Elec       q    Type
DOCKED: USER                           _______ _______ _______ _____ _____    ______ ____
DOCKED: ROOT
DOCKED: ATOM      1  C21 UNL     1       9.651  -7.575  -4.053 +0.00 +0.00    +0.129 C  
DOCKED: ENDROOT
DOCKED: BRANCH   1   2
DOCKED: ATOM      2  C22 UNL     1       8.474  -8.171  -3.316 +0.00 +0.00    +0.216 C  
DOCKED: ATOM      3  O8  UNL     1       7.307  -7.984  -3.655 +0.00 -0.00    -0.276 OA 
DOCKED: ATOM      4  N6  UNL     1       8.848  -8.950  -2.254 +0.00 -0.00    -0.304 N  
DOCKED: ATOM      5  H39 UNL     1       9.834  -9.015  -2.001 +0.00 +0.00    +0.149 HD 
DOCKED: BRANCH   4   6
DOCKED: ATOM      6  C23 UNL     1       7.915  -9.469  -1.251 +0.00 +0.00    +0.161 C  
DOCKED: BRANCH   6   7
DOCKED: ATOM      7  C24 UNL     1       8.544  -9.077   0.104 +0.00 +0.00    +0.234 C  
DOCKED: ATOM      8  O9  UNL     1       9.738  -8.777   0.192 +0.00 -0.00    -0.274 OA 
DOCKED: ATOM      9  N7  UNL     1       7.709  -9.071   1.192 +0.00 -0.00    -0.303 N  
DOCKED: ATOM     10  H41 UNL     1       6.764  -9.431   1.117 +0.00 +0.00    +0.149 HD 
DOCKED: BRANCH   9  11
DOCKED: ATOM     11  C25 UNL     1       8.210  -8.843   2.542 +0.00 +0.00    +0.156 C  
DOCKED: ATOM     12  C26 UNL     1       9.470  -9.660   2.796 +0.00 +0.00    +0.038 C  
DOCKED: BRANCH  11  13
DOCKED: ATOM     13  C27 UNL     1       8.489  -7.342   2.718 +0.00 +0.00    +0.234 C  
DOCKED: ATOM     14  O10 UNL     1       7.666  -6.572   3.216 +0.00 -0.00    -0.274 OA 
DOCKED: ATOM     15  N8  UNL     1       9.716  -6.933   2.254 +0.00 -0.00    -0.302 N  
DOCKED: ATOM     16  H46 UNL     1      10.358  -7.595   1.826 +0.00 +0.00    +0.150 HD 
DOCKED: BRANCH  15  17
DOCKED: ATOM     17  C28 UNL     1      10.175  -5.546   2.339 +0.00 +0.00    +0.159 C  
DOCKED: BRANCH  17  18
DOCKED: ATOM     18  C32 UNL     1       9.944  -4.938   0.942 +0.00 +0.00    +0.234 C  
DOCKED: ATOM     19  O13 UNL     1       9.815  -3.721   0.781 +0.00 -0.00    -0.274 OA 
DOCKED: ATOM     20  N9  UNL     1       9.874  -5.835  -0.096 +0.00 -0.00    -0.301 N  
DOCKED: ATOM     21  H53 UNL     1      10.142  -6.810   0.059 +0.00 +0.00    +0.150 HD 
DOCKED: BRANCH  20  22
DOCKED: ATOM     22  C33 UNL     1       9.729  -5.390  -1.488 +0.00 +0.00    +0.186 C  
DOCKED: BRANCH  22  23
DOCKED: ATOM     23  C41 UNL     1      11.018  -4.678  -1.884 +0.00 +0.00    +0.326 C  
DOCKED: ATOM     24  O14 UNL     1      11.101  -3.605  -2.465 +0.00 -0.00    -0.249 OA 
DOCKED: BRANCH  23  25
DOCKED: ATOM     25  O15 UNL     1      12.135  -5.346  -1.535 +0.00 -0.00    -0.479 OA 
DOCKED: ATOM     26  H62 UNL     1      11.817  -6.184  -1.136 +0.00 +0.00    +0.295 HD 
DOCKED: ENDBRANCH  23  25
DOCKED: ENDBRANCH  22  23
DOCKED: BRANCH  22  27
DOCKED: ATOM     27  C34 UNL     1       8.529  -4.445  -1.631 +0.00 +0.00    +0.069 C  
DOCKED: BRANCH  27  28
DOCKED: ATOM     28  C35 UNL     1       7.307  -4.905  -0.872 +0.00 -0.00    -0.045 A  
DOCKED: ATOM     29  C36 UNL     1       6.832  -6.215  -1.037 +0.00 +0.00    +0.004 A  
DOCKED: ATOM     30  C37 UNL     1       5.714  -6.657  -0.333 +0.00 +0.00    +0.000 A  
DOCKED: ATOM     31  C38 UNL     1       5.057  -5.797   0.544 +0.00 +0.00    +0.000 A  
DOCKED: ATOM     32  C39 UNL     1       5.515  -4.491   0.712 +0.00 +0.00    +0.000 A  
DOCKED: ATOM     33  C40 UNL     1       6.634  -4.046   0.006 +0.00 +0.00    +0.004 A  
DOCKED: ENDBRANCH  27  28
DOCKED: ENDBRANCH  22  27
DOCKED: ENDBRANCH  20  22
DOCKED: ENDBRANCH  17  18
DOCKED: BRANCH  17  34
DOCKED: ATOM     34  C29 UNL     1      11.655  -5.506   2.767 +0.00 +0.00    +0.043 C  
DOCKED: BRANCH  34  35
DOCKED: ATOM     35  C30 UNL     1      12.684  -5.762   1.669 +0.00 +0.00    +0.123 C  
DOCKED: BRANCH  35  36
DOCKED: ATOM     36  C31 UNL     1      12.704  -7.204   1.249 +0.00 +0.00    +0.305 C  
DOCKED: ATOM     37  O11 UNL     1      13.467  -8.044   1.704 +0.00 -0.00    -0.251 OA 
DOCKED: BRANCH  36  38
DOCKED: ATOM     38  O12 UNL     1      11.751  -7.514   0.357 +0.00 -0.00    -0.481 OA 
DOCKED: ATOM     39  H52 UNL     1      12.129  -8.240  -0.183 +0.00 +0.00    +0.295 HD 
DOCKED: ENDBRANCH  36  38
DOCKED: ENDBRANCH  35  36
DOCKED: ENDBRANCH  34  35
DOCKED: ENDBRANCH  17  34
DOCKED: ENDBRANCH  15  17
DOCKED: ENDBRANCH  11  13
DOCKED: ENDBRANCH   9  11
DOCKED: ENDBRANCH   6   7
DOCKED: BRANCH   6  40
DOCKED: ATOM     40  C42 UNL     1       7.682 -10.984  -1.448 +0.00 +0.00    +0.012 C  
DOCKED: ATOM     41  C43 UNL     1       6.197 -11.359  -1.433 +0.00 +0.00    +0.009 C  
DOCKED: ATOM     42  C44 UNL     1       8.448 -11.843  -0.439 +0.00 +0.00    +0.009 C  
DOCKED: ENDBRANCH   6  40
DOCKED: ENDBRANCH   4   6
DOCKED: ENDBRANCH   1   2
DOCKED: BRANCH   1  43
DOCKED: ATOM     43  C20 UNL     1      10.979  -8.013  -3.423 +0.00 +0.00    +0.143 C  
DOCKED: BRANCH  43  44
DOCKED: ATOM     44  O7  UNL     1      11.033  -7.572  -2.052 +0.00 -0.00    -0.389 OA 
DOCKED: ATOM     45  H36 UNL     1      11.987  -7.566  -1.827 +0.00 +0.00    +0.210 HD 
DOCKED: ENDBRANCH  43  44
DOCKED: BRANCH  43  46
DOCKED: ATOM     46  C5  UNL     1      12.177  -7.453  -4.256 +0.00 +0.00    +0.102 C  
DOCKED: BRANCH  46  47
DOCKED: ATOM     47  N1  UNL     1      13.229  -6.899  -3.420 +0.00 -0.00    -0.308 N  
DOCKED: ATOM     48  C6  UNL     1      14.398  -6.422  -3.977 +0.00 +0.00    +0.234 C  
DOCKED: ATOM     49  O1  UNL     1      14.612  -6.424  -5.190 +0.00 -0.00    -0.274 OA 
DOCKED: ATOM     50  H11 UNL     1      12.977  -6.600  -2.491 +0.00 +0.00    +0.149 HD 
DOCKED: BRANCH  48  51
DOCKED: ATOM     51  C7  UNL     1      15.419  -5.902  -2.946 +0.00 +0.00    +0.168 C  
DOCKED: BRANCH  51  52
DOCKED: ATOM     52  N3  UNL     1      15.842  -7.006  -2.089 +0.00 -0.00    -0.302 N  
DOCKED: ATOM     53  C10 UNL     1      14.900  -7.639  -1.300 +0.00 +0.00    +0.234 C  
DOCKED: ATOM     54  O3  UNL     1      13.791  -7.147  -1.080 +0.00 -0.00    -0.274 OA 
DOCKED: ATOM     55  H17 UNL     1      16.589  -7.578  -2.483 +0.00 +0.00    +0.150 HD 
DOCKED: BRANCH  53  56
DOCKED: ATOM     56  C11 UNL     1      15.319  -9.010  -0.710 +0.00 +0.00    +0.161 C  
DOCKED: BRANCH  56  57
DOCKED: ATOM     57  N4  UNL     1      14.079  -9.700  -0.335 +0.00 -0.00    -0.302 N  
DOCKED: ATOM     58  C12 UNL     1      14.067 -10.768   0.537 +0.00 +0.00    +0.230 C  
DOCKED: ATOM     59  O4  UNL     1      15.083 -11.351   0.907 +0.00 -0.00    -0.274 OA 
DOCKED: ATOM     60  H19 UNL     1      13.278  -9.084  -0.271 +0.00 +0.00    +0.150 HD 
DOCKED: BRANCH  58  61
DOCKED: ATOM     61  C13 UNL     1      12.658 -11.164   1.035 +0.00 +0.00    +0.138 C  
DOCKED: BRANCH  61  62
DOCKED: ATOM     62  N5  UNL     1      11.819  -9.958   1.141 +0.00 -0.00    -0.320 NA 
DOCKED: ATOM     63  H21 UNL     1      12.313  -9.181   0.696 +0.00 +0.00    +0.119 HD 
DOCKED: ATOM     64  H22 UNL     1      10.956 -10.068   0.604 +0.00 +0.00    +0.119 HD 
DOCKED: ENDBRANCH  61  62
DOCKED: BRANCH  61  65
DOCKED: ATOM     65  C14 UNL     1      12.025 -12.237   0.130 +0.00 +0.00    +0.039 C  
DOCKED: BRANCH  65  66
DOCKED: ATOM     66  C15 UNL     1      12.231 -11.975  -1.362 +0.00 +0.00    +0.122 C  
DOCKED: BRANCH  66  67
DOCKED: ATOM     67  C16 UNL     1      11.405 -10.820  -1.857 +0.00 +0.00    +0.305 C  
DOCKED: ATOM     68  O5  UNL     1      10.427 -10.873  -2.586 +0.00 -0.00    -0.251 OA 
DOCKED: BRANCH  67  69
DOCKED: ATOM     69  O6  UNL     1      11.811  -9.641  -1.342 +0.00 -0.00    -0.481 OA 
DOCKED: ATOM     70  H27 UNL     1      11.047  -9.348  -0.805 +0.00 +0.00    +0.295 HD 
DOCKED: ENDBRANCH  67  69
DOCKED: ENDBRANCH  66  67
DOCKED: ENDBRANCH  65  66
DOCKED: ENDBRANCH  61  65
DOCKED: ENDBRANCH  58  61
DOCKED: ENDBRANCH  56  57
DOCKED: BRANCH  56  71
DOCKED: ATOM     71  C17 UNL     1      16.146  -9.871  -1.691 +0.00 +0.00    +0.012 C  
DOCKED: ATOM     72  C18 UNL     1      15.418 -11.141  -2.145 +0.00 +0.00    +0.009 C  
DOCKED: ATOM     73  C19 UNL     1      17.497 -10.246  -1.069 +0.00 +0.00    +0.009 C  
DOCKED: ENDBRANCH  56  71
DOCKED: ENDBRANCH  53  56
DOCKED: ENDBRANCH  51  52
DOCKED: BRANCH  51  74
DOCKED: ATOM     74  C8  UNL     1      16.571  -5.201  -3.665 +0.00 +0.00    +0.127 C  
DOCKED: BRANCH  74  75
DOCKED: ATOM     75  C9  UNL     1      17.493  -6.181  -4.360 +0.00 +0.00    +0.213 C  
DOCKED: ATOM     76  N2  UNL     1      17.388  -6.214  -5.721 +0.00 -0.00    -0.329 N  
DOCKED: ATOM     77  O2  UNL     1      18.347  -6.841  -3.778 +0.00 -0.00    -0.276 OA 
DOCKED: ATOM     78  H15 UNL     1      16.531  -5.925  -6.188 +0.00 +0.00    +0.145 HD 
DOCKED: ATOM     79  H16 UNL     1      17.926  -6.937  -6.178 +0.00 +0.00    +0.145 HD 
DOCKED: ENDBRANCH  74  75
DOCKED: ENDBRANCH  51  74
DOCKED: ENDBRANCH  48  51
DOCKED: ENDBRANCH  46  47
DOCKED: BRANCH  46  80
DOCKED: ATOM     80  C4  UNL     1      12.746  -8.541  -5.184 +0.00 +0.00    +0.028 C  
DOCKED: BRANCH  80  82
DOCKED: ATOM     81  C1  UNL     1      13.106 -10.978  -4.681 +0.00 +0.00    +0.007 C  
DOCKED: ATOM     82  C2  UNL     1      13.668  -9.568  -4.490 +0.00 -0.00    -0.015 C  
DOCKED: ATOM     83  C3  UNL     1      15.106  -9.514  -5.007 +0.00 +0.00    +0.007 C  
DOCKED: ENDBRANCH  80  82
DOCKED: ENDBRANCH  46  80
DOCKED: ENDBRANCH  43  46
DOCKED: ENDBRANCH   1  43
DOCKED: TORSDOF 36
DOCKED: TER
DOCKED: ENDMDL
________________________________________________________________________________


    FINAL DOCKED STATE:
    ________________________


Run:   14 / 20
Time taken for this run:   7.704s

DOCKED: MODEL        14
DOCKED: USER    Run = 14
DOCKED: USER
DOCKED: USER    Estimated Free Energy of Binding    = +10.74 kcal/mol  [=(1)+(2)+(3)-(4)]
DOCKED: USER
DOCKED: USER    (1) Final Intermolecular Energy     =  +0.00 kcal/mol
DOCKED: USER        vdW + Hbond + desolv Energy     =  +0.00 kcal/mol
DOCKED: USER        Electrostatic Energy            =  +0.00 kcal/mol
DOCKED: USER        Moving Ligand-Fixed Receptor    =  +0.00 kcal/mol
DOCKED: USER        Moving Ligand-Moving Receptor   =  +0.00 kcal/mol
DOCKED: USER    (2) Final Total Internal Energy     = -32.59 kcal/mol
DOCKED: USER    (3) Torsional Free Energy           = +10.74 kcal/mol
DOCKED: USER    (4) Unbound System's Energy         = -32.59 kcal/mol
DOCKED: USER
DOCKED: USER
DOCKED: REMARK  Name = ligands/ligand_15.pdb
DOCKED: REMARK  43 active torsions:
DOCKED: REMARK  status: ('A' for Active; 'I' for Inactive)
DOCKED: REMARK    1  A    between atoms: C1_1  and  C2_2
DOCKED: REMARK    2  A    between atoms: C2_2  and  C3_3
DOCKED: REMARK    3  A    between atoms: C2_2  and  C4_4
DOCKED: REMARK    4  A    between atoms: C4_4  and  C5_5
DOCKED: REMARK    5  A    between atoms: C5_5  and  N1_6
DOCKED: REMARK    6  A    between atoms: C5_5  and  C20_31
DOCKED: REMARK    7  A    between atoms: C6_7  and  C7_9
DOCKED: REMARK    8  A    between atoms: C7_9  and  C8_10
DOCKED: REMARK    9  A    between atoms: C7_9  and  N3_14
DOCKED: REMARK   10  A    between atoms: C8_10  and  C9_11
DOCKED: REMARK   11  A    between atoms: C10_15  and  C11_17
DOCKED: REMARK   12  A    between atoms: C11_17  and  N4_18
DOCKED: REMARK   13  A    between atoms: C11_17  and  C17_28
DOCKED: REMARK   14  A    between atoms: C12_19  and  C13_21
DOCKED: REMARK   15  A    between atoms: C13_21  and  N5_22
DOCKED: REMARK   16  A    between atoms: C13_21  and  C14_23
DOCKED: REMARK   17  A    between atoms: C14_23  and  C15_24
DOCKED: REMARK   18  A    between atoms: C15_24  and  C16_25
DOCKED: REMARK   19  A    between atoms: C16_25  and  O6_27
DOCKED: REMARK   20  A    between atoms: C17_28  and  C18_29
DOCKED: REMARK   21  A    between atoms: C17_28  and  C19_30
DOCKED: REMARK   22  A    between atoms: C20_31  and  O7_32
DOCKED: REMARK   23  A    between atoms: C20_31  and  C21_33
DOCKED: REMARK   24  A    between atoms: C21_33  and  C22_34
DOCKED: REMARK   25  A    between atoms: N6_36  and  C23_37
DOCKED: REMARK   26  A    between atoms: C23_37  and  C24_38
DOCKED: REMARK   27  A    between atoms: C23_37  and  C42_66
DOCKED: REMARK   28  A    between atoms: N7_40  and  C25_41
DOCKED: REMARK   29  A    between atoms: C25_41  and  C26_42
DOCKED: REMARK   30  A    between atoms: C25_41  and  C27_43
DOCKED: REMARK   31  A    between atoms: N8_45  and  C28_46
DOCKED: REMARK   32  A    between atoms: C28_46  and  C29_47
DOCKED: REMARK   33  A    between atoms: C28_46  and  C32_52
DOCKED: REMARK   34  A    between atoms: C29_47  and  C30_48
DOCKED: REMARK   35  A    between atoms: C30_48  and  C31_49
DOCKED: REMARK   36  A    between atoms: C31_49  and  O12_51
DOCKED: REMARK   37  A    between atoms: N9_54  and  C33_55
DOCKED: REMARK   38  A    between atoms: C33_55  and  C34_56
DOCKED: REMARK   39  A    between atoms: C33_55  and  C41_63
DOCKED: REMARK   40  A    between atoms: C34_56  and  C35_57
DOCKED: REMARK   41  A    between atoms: C41_63  and  O15_65
DOCKED: REMARK   42  A    between atoms: C42_66  and  C43_67
DOCKED: REMARK   43  A    between atoms: C42_66  and  C44_68
DOCKED: REMARK                            x       y       z     vdW  Elec       q    Type
DOCKED: REMARK                         _______ _______ _______ _____ _____    ______ ____
DOCKED: USER                              x       y       z     vdW  Elec       q    Type
DOCKED: USER                           _______ _______ _______ _____ _____    ______ ____
DOCKED: ROOT
DOCKED: ATOM      1  C21 UNL     1       5.634  -7.631   0.401 +0.00 +0.00    +0.129 C  
DOCKED: ENDROOT
DOCKED: BRANCH   1   2
DOCKED: ATOM      2  C22 UNL     1       4.732  -8.532  -0.411 +0.00 +0.00    +0.216 C  
DOCKED: ATOM      3  O8  UNL     1       3.885  -8.104  -1.193 +0.00 -0.00    -0.276 OA 
DOCKED: ATOM      4  N6  UNL     1       4.975  -9.863  -0.198 +0.00 -0.00    -0.304 N  
DOCKED: ATOM      5  H39 UNL     1       5.658 -10.143   0.505 +0.00 +0.00    +0.149 HD 
DOCKED: BRANCH   4   6
DOCKED: ATOM      6  C23 UNL     1       4.115 -10.941  -0.690 +0.00 +0.00    +0.161 C  
DOCKED: BRANCH   6   7
DOCKED: ATOM      7  C24 UNL     1       2.860 -10.876   0.208 +0.00 +0.00    +0.234 C  
DOCKED: ATOM      8  O9  UNL     1       2.668 -11.708   1.100 +0.00 -0.00    -0.274 OA 
DOCKED: ATOM      9  N7  UNL     1       1.984  -9.848  -0.031 +0.00 -0.00    -0.303 N  
DOCKED: ATOM     10  H41 UNL     1       2.102  -9.249  -0.840 +0.00 +0.00    +0.149 HD 
DOCKED: BRANCH   9  11
DOCKED: ATOM     11  C25 UNL     1       0.704  -9.755   0.662 +0.00 +0.00    +0.156 C  
DOCKED: ATOM     12  C26 UNL     1       0.038 -11.122   0.756 +0.00 +0.00    +0.038 C  
DOCKED: BRANCH  11  13
DOCKED: ATOM     13  C27 UNL     1       0.944  -9.168   2.062 +0.00 +0.00    +0.234 C  
DOCKED: ATOM     14  O10 UNL     1       0.431  -9.647   3.075 +0.00 -0.00    -0.274 OA 
DOCKED: ATOM     15  N8  UNL     1       1.754  -8.058   2.083 +0.00 -0.00    -0.302 N  
DOCKED: ATOM     16  H46 UNL     1       2.138  -7.678   1.222 +0.00 +0.00    +0.150 HD 
DOCKED: BRANCH  15  17
DOCKED: ATOM     17  C28 UNL     1       2.113  -7.360   3.318 +0.00 +0.00    +0.159 C  
DOCKED: BRANCH  17  18
DOCKED: ATOM     18  C32 UNL     1       1.491  -5.954   3.203 +0.00 +0.00    +0.234 C  
DOCKED: ATOM     19  O13 UNL     1       0.965  -5.400   4.173 +0.00 -0.00    -0.274 OA 
DOCKED: ATOM     20  N9  UNL     1       1.546  -5.376   1.958 +0.00 -0.00    -0.301 N  
DOCKED: ATOM     21  H53 UNL     1       2.126  -5.799   1.230 +0.00 +0.00    +0.150 HD 
DOCKED: BRANCH  20  22
DOCKED: ATOM     22  C33 UNL     1       1.057  -4.011   1.722 +0.00 +0.00    +0.186 C  
DOCKED: BRANCH  22  23
DOCKED: ATOM     23  C41 UNL     1       1.375  -3.648   0.276 +0.00 +0.00    +0.326 C  
DOCKED: ATOM     24  O14 UNL     1       0.686  -2.958  -0.463 +0.00 -0.00    -0.249 OA 
DOCKED: BRANCH  23  25
DOCKED: ATOM     25  O15 UNL     1       2.534  -4.169  -0.171 +0.00 -0.00    -0.479 OA 
DOCKED: ATOM     26  H62 UNL     1       2.481  -5.125   0.039 +0.00 +0.00    +0.295 HD 
DOCKED: ENDBRANCH  23  25
DOCKED: ENDBRANCH  22  23
DOCKED: BRANCH  22  27
DOCKED: ATOM     27  C34 UNL     1       1.731  -3.023   2.684 +0.00 +0.00    +0.069 C  
DOCKED: BRANCH  27  28
DOCKED: ATOM     28  C35 UNL     1       3.232  -2.963   2.532 +0.00 -0.00    -0.045 A  
DOCKED: ATOM     29  C36 UNL     1       3.827  -1.865   1.894 +0.00 +0.00    +0.004 A  
DOCKED: ATOM     30  C37 UNL     1       5.213  -1.790   1.758 +0.00 +0.00    +0.000 A  
DOCKED: ATOM     31  C38 UNL     1       6.019  -2.810   2.258 +0.00 +0.00    +0.000 A  
DOCKED: ATOM     32  C39 UNL     1       5.438  -3.910   2.888 +0.00 +0.00    +0.000 A  
DOCKED: ATOM     33  C40 UNL     1       4.051  -3.987   3.023 +0.00 +0.00    +0.004 A  
DOCKED: ENDBRANCH  27  28
DOCKED: ENDBRANCH  22  27
DOCKED: ENDBRANCH  20  22
DOCKED: ENDBRANCH  17  18
DOCKED: BRANCH  17  34
DOCKED: ATOM     34  C29 UNL     1       3.644  -7.321   3.476 +0.00 +0.00    +0.043 C  
DOCKED: BRANCH  34  35
DOCKED: ATOM     35  C30 UNL     1       4.286  -8.530   4.152 +0.00 +0.00    +0.123 C  
DOCKED: BRANCH  35  36
DOCKED: ATOM     36  C31 UNL     1       4.075  -9.788   3.361 +0.00 +0.00    +0.305 C  
DOCKED: ATOM     37  O11 UNL     1       4.825 -10.183   2.479 +0.00 -0.00    -0.251 OA 
DOCKED: BRANCH  36  38
DOCKED: ATOM     38  O12 UNL     1       3.003 -10.493   3.753 +0.00 -0.00    -0.481 OA 
DOCKED: ATOM     39  H52 UNL     1       2.432 -10.559   2.958 +0.00 +0.00    +0.295 HD 
DOCKED: ENDBRANCH  36  38
DOCKED: ENDBRANCH  35  36
DOCKED: ENDBRANCH  34  35
DOCKED: ENDBRANCH  17  34
DOCKED: ENDBRANCH  15  17
DOCKED: ENDBRANCH  11  13
DOCKED: ENDBRANCH   9  11
DOCKED: ENDBRANCH   6   7
DOCKED: BRANCH   6  40
DOCKED: ATOM     40  C42 UNL     1       4.861 -12.293  -0.672 +0.00 +0.00    +0.012 C  
DOCKED: ATOM     41  C43 UNL     1       6.381 -12.129  -0.777 +0.00 +0.00    +0.009 C  
DOCKED: ATOM     42  C44 UNL     1       4.367 -13.264  -1.747 +0.00 +0.00    +0.009 C  
DOCKED: ENDBRANCH   6  40
DOCKED: ENDBRANCH   4   6
DOCKED: ENDBRANCH   1   2
DOCKED: BRANCH   1  43
DOCKED: ATOM     43  C20 UNL     1       5.103  -6.193   0.430 +0.00 +0.00    +0.143 C  
DOCKED: BRANCH  43  44
DOCKED: ATOM     44  O7  UNL     1       3.662  -6.210   0.452 +0.00 -0.00    -0.389 OA 
DOCKED: ATOM     45  H36 UNL     1       3.395  -6.150  -0.489 +0.00 +0.00    +0.210 HD 
DOCKED: ENDBRANCH  43  44
DOCKED: BRANCH  43  46
DOCKED: ATOM     46  C5  UNL     1       5.652  -5.395  -0.795 +0.00 +0.00    +0.102 C  
DOCKED: BRANCH  46  47
DOCKED: ATOM     47  N1  UNL     1       5.189  -5.930  -2.065 +0.00 -0.00    -0.308 N  
DOCKED: ATOM     48  C6  UNL     1       6.078  -6.466  -2.973 +0.00 +0.00    +0.234 C  
DOCKED: ATOM     49  O1  UNL     1       7.290  -6.535  -2.765 +0.00 -0.00    -0.274 OA 
DOCKED: ATOM     50  H11 UNL     1       4.212  -6.172  -2.140 +0.00 +0.00    +0.149 HD 
DOCKED: BRANCH  48  51
DOCKED: ATOM     51  C7  UNL     1       5.423  -6.956  -4.280 +0.00 +0.00    +0.168 C  
DOCKED: BRANCH  51  52
DOCKED: ATOM     52  N3  UNL     1       4.074  -7.437  -3.991 +0.00 -0.00    -0.302 N  
DOCKED: ATOM     53  C10 UNL     1       3.707  -8.698  -4.417 +0.00 +0.00    +0.234 C  
DOCKED: ATOM     54  O3  UNL     1       4.360  -9.323  -5.257 +0.00 -0.00    -0.274 OA 
DOCKED: ATOM     55  H17 UNL     1       3.697  -7.111  -3.101 +0.00 +0.00    +0.150 HD 
DOCKED: BRANCH  53  56
DOCKED: ATOM     56  C11 UNL     1       2.426  -9.288  -3.773 +0.00 +0.00    +0.161 C  
DOCKED: BRANCH  56  57
DOCKED: ATOM     57  N4  UNL     1       1.868  -8.236  -2.914 +0.00 -0.00    -0.302 N  
DOCKED: ATOM     58  C12 UNL     1       0.624  -8.347  -2.331 +0.00 +0.00    +0.230 C  
DOCKED: ATOM     59  O4  UNL     1      -0.190  -9.215  -2.633 +0.00 -0.00    -0.274 OA 
DOCKED: ATOM     60  H19 UNL     1       2.565  -7.762  -2.353 +0.00 +0.00    +0.150 HD 
DOCKED: BRANCH  58  61
DOCKED: ATOM     61  C13 UNL     1       0.341  -7.291  -1.237 +0.00 +0.00    +0.138 C  
DOCKED: BRANCH  61  62
DOCKED: ATOM     62  N5  UNL     1       1.579  -7.019  -0.487 +0.00 -0.00    -0.320 NA 
DOCKED: ATOM     63  H21 UNL     1       2.373  -7.332  -1.049 +0.00 +0.00    +0.119 HD 
DOCKED: ATOM     64  H22 UNL     1       1.717  -6.014  -0.367 +0.00 +0.00    +0.119 HD 
DOCKED: ENDBRANCH  61  62
DOCKED: BRANCH  61  65
DOCKED: ATOM     65  C14 UNL     1      -0.270  -6.012  -1.837 +0.00 +0.00    +0.039 C  
DOCKED: BRANCH  65  66
DOCKED: ATOM     66  C15 UNL     1       0.416  -5.555  -3.125 +0.00 +0.00    +0.122 C  
DOCKED: BRANCH  66  67
DOCKED: ATOM     67  C16 UNL     1       1.697  -4.813  -2.856 +0.00 +0.00    +0.305 C  
DOCKED: ATOM     68  O5  UNL     1       1.913  -3.626  -3.042 +0.00 -0.00    -0.251 OA 
DOCKED: BRANCH  67  69
DOCKED: ATOM     69  O6  UNL     1       2.635  -5.598  -2.286 +0.00 -0.00    -0.481 OA 
DOCKED: ATOM     70  H27 UNL     1       2.632  -5.317  -1.348 +0.00 +0.00    +0.295 HD 
DOCKED: ENDBRANCH  67  69
DOCKED: ENDBRANCH  66  67
DOCKED: ENDBRANCH  65  66
DOCKED: ENDBRANCH  61  65
DOCKED: ENDBRANCH  58  61
DOCKED: ENDBRANCH  56  57
DOCKED: BRANCH  56  71
DOCKED: ATOM     71  C17 UNL     1       1.380  -9.755  -4.810 +0.00 +0.00    +0.012 C  
DOCKED: ATOM     72  C18 UNL     1       1.701 -11.125  -5.419 +0.00 +0.00    +0.009 C  
DOCKED: ATOM     73  C19 UNL     1       1.231  -8.717  -5.929 +0.00 +0.00    +0.009 C  
DOCKED: ENDBRANCH  56  71
DOCKED: ENDBRANCH  53  56
DOCKED: ENDBRANCH  51  52
DOCKED: BRANCH  51  74
DOCKED: ATOM     74  C8  UNL     1       5.473  -5.851  -5.333 +0.00 +0.00    +0.127 C  
DOCKED: BRANCH  74  75
DOCKED: ATOM     75  C9  UNL     1       4.092  -5.363  -5.717 +0.00 +0.00    +0.213 C  
DOCKED: ATOM     76  N2  UNL     1       3.505  -4.513  -4.823 +0.00 -0.00    -0.329 N  
DOCKED: ATOM     77  O2  UNL     1       3.553  -5.619  -6.788 +0.00 -0.00    -0.276 OA 
DOCKED: ATOM     78  H15 UNL     1       3.773  -4.519  -3.841 +0.00 +0.00    +0.145 HD 
DOCKED: ATOM     79  H16 UNL     1       2.546  -4.268  -5.026 +0.00 +0.00    +0.145 HD 
DOCKED: ENDBRANCH  74  75
DOCKED: ENDBRANCH  51  74
DOCKED: ENDBRANCH  48  51
DOCKED: ENDBRANCH  46  47
DOCKED: BRANCH  46  80
DOCKED: ATOM     80  C4  UNL     1       5.289  -3.904  -0.678 +0.00 +0.00    +0.028 C  
DOCKED: BRANCH  80  82
DOCKED: ATOM     81  C1  UNL     1       4.092  -1.942  -1.699 +0.00 +0.00    +0.007 C  
DOCKED: ATOM     82  C2  UNL     1       4.846  -3.238  -2.001 +0.00 -0.00    -0.015 C  
DOCKED: ATOM     83  C3  UNL     1       6.021  -2.943  -2.934 +0.00 +0.00    +0.007 C  
DOCKED: ENDBRANCH  80  82
DOCKED: ENDBRANCH  46  80
DOCKED: ENDBRANCH  43  46
DOCKED: ENDBRANCH   1  43
DOCKED: TORSDOF 36
DOCKED: TER
DOCKED: ENDMDL
________________________________________________________________________________


    FINAL DOCKED STATE:
    ________________________


Run:   15 / 20
Time taken for this run:   7.704s

DOCKED: MODEL        15
DOCKED: USER    Run = 15
DOCKED: USER
DOCKED: USER    Estimated Free Energy of Binding    = +10.74 kcal/mol  [=(1)+(2)+(3)-(4)]
DOCKED: USER
DOCKED: USER    (1) Final Intermolecular Energy     =  +0.00 kcal/mol
DOCKED: USER        vdW + Hbond + desolv Energy     =  +0.00 kcal/mol
DOCKED: USER        Electrostatic Energy            =  +0.00 kcal/mol
DOCKED: USER        Moving Ligand-Fixed Receptor    =  +0.00 kcal/mol
DOCKED: USER        Moving Ligand-Moving Receptor   =  +0.00 kcal/mol
DOCKED: USER    (2) Final Total Internal Energy     = -33.80 kcal/mol
DOCKED: USER    (3) Torsional Free Energy           = +10.74 kcal/mol
DOCKED: USER    (4) Unbound System's Energy         = -33.80 kcal/mol
DOCKED: USER
DOCKED: USER
DOCKED: REMARK  Name = ligands/ligand_15.pdb
DOCKED: REMARK  43 active torsions:
DOCKED: REMARK  status: ('A' for Active; 'I' for Inactive)
DOCKED: REMARK    1  A    between atoms: C1_1  and  C2_2
DOCKED: REMARK    2  A    between atoms: C2_2  and  C3_3
DOCKED: REMARK    3  A    between atoms: C2_2  and  C4_4
DOCKED: REMARK    4  A    between atoms: C4_4  and  C5_5
DOCKED: REMARK    5  A    between atoms: C5_5  and  N1_6
DOCKED: REMARK    6  A    between atoms: C5_5  and  C20_31
DOCKED: REMARK    7  A    between atoms: C6_7  and  C7_9
DOCKED: REMARK    8  A    between atoms: C7_9  and  C8_10
DOCKED: REMARK    9  A    between atoms: C7_9  and  N3_14
DOCKED: REMARK   10  A    between atoms: C8_10  and  C9_11
DOCKED: REMARK   11  A    between atoms: C10_15  and  C11_17
DOCKED: REMARK   12  A    between atoms: C11_17  and  N4_18
DOCKED: REMARK   13  A    between atoms: C11_17  and  C17_28
DOCKED: REMARK   14  A    between atoms: C12_19  and  C13_21
DOCKED: REMARK   15  A    between atoms: C13_21  and  N5_22
DOCKED: REMARK   16  A    between atoms: C13_21  and  C14_23
DOCKED: REMARK   17  A    between atoms: C14_23  and  C15_24
DOCKED: REMARK   18  A    between atoms: C15_24  and  C16_25
DOCKED: REMARK   19  A    between atoms: C16_25  and  O6_27
DOCKED: REMARK   20  A    between atoms: C17_28  and  C18_29
DOCKED: REMARK   21  A    between atoms: C17_28  and  C19_30
DOCKED: REMARK   22  A    between atoms: C20_31  and  O7_32
DOCKED: REMARK   23  A    between atoms: C20_31  and  C21_33
DOCKED: REMARK   24  A    between atoms: C21_33  and  C22_34
DOCKED: REMARK   25  A    between atoms: N6_36  and  C23_37
DOCKED: REMARK   26  A    between atoms: C23_37  and  C24_38
DOCKED: REMARK   27  A    between atoms: C23_37  and  C42_66
DOCKED: REMARK   28  A    between atoms: N7_40  and  C25_41
DOCKED: REMARK   29  A    between atoms: C25_41  and  C26_42
DOCKED: REMARK   30  A    between atoms: C25_41  and  C27_43
DOCKED: REMARK   31  A    between atoms: N8_45  and  C28_46
DOCKED: REMARK   32  A    between atoms: C28_46  and  C29_47
DOCKED: REMARK   33  A    between atoms: C28_46  and  C32_52
DOCKED: REMARK   34  A    between atoms: C29_47  and  C30_48
DOCKED: REMARK   35  A    between atoms: C30_48  and  C31_49
DOCKED: REMARK   36  A    between atoms: C31_49  and  O12_51
DOCKED: REMARK   37  A    between atoms: N9_54  and  C33_55
DOCKED: REMARK   38  A    between atoms: C33_55  and  C34_56
DOCKED: REMARK   39  A    between atoms: C33_55  and  C41_63
DOCKED: REMARK   40  A    between atoms: C34_56  and  C35_57
DOCKED: REMARK   41  A    between atoms: C41_63  and  O15_65
DOCKED: REMARK   42  A    between atoms: C42_66  and  C43_67
DOCKED: REMARK   43  A    between atoms: C42_66  and  C44_68
DOCKED: REMARK                            x       y       z     vdW  Elec       q    Type
DOCKED: REMARK                         _______ _______ _______ _____ _____    ______ ____
DOCKED: USER                              x       y       z     vdW  Elec       q    Type
DOCKED: USER                           _______ _______ _______ _____ _____    ______ ____
DOCKED: ROOT
DOCKED: ATOM      1  C21 UNL     1       3.308  -5.089  -2.260 +0.00 +0.00    +0.129 C  
DOCKED: ENDROOT
DOCKED: BRANCH   1   2
DOCKED: ATOM      2  C22 UNL     1       3.490  -6.360  -1.463 +0.00 +0.00    +0.216 C  
DOCKED: ATOM      3  O8  UNL     1       3.562  -6.377  -0.236 +0.00 -0.00    -0.276 OA 
DOCKED: ATOM      4  N6  UNL     1       3.545  -7.480  -2.249 +0.00 -0.00    -0.304 N  
DOCKED: ATOM      5  H39 UNL     1       3.532  -7.382  -3.265 +0.00 +0.00    +0.149 HD 
DOCKED: BRANCH   4   6
DOCKED: ATOM      6  C23 UNL     1       3.924  -8.807  -1.759 +0.00 +0.00    +0.161 C  
DOCKED: BRANCH   6   7
DOCKED: ATOM      7  C24 UNL     1       4.784  -9.408  -2.892 +0.00 +0.00    +0.234 C  
DOCKED: ATOM      8  O9  UNL     1       5.334  -8.686  -3.729 +0.00 -0.00    -0.274 OA 
DOCKED: ATOM      9  N7  UNL     1       4.908 -10.774  -2.912 +0.00 -0.00    -0.303 N  
DOCKED: ATOM     10  H41 UNL     1       4.355 -11.350  -2.288 +0.00 +0.00    +0.149 HD 
DOCKED: BRANCH   9  11
DOCKED: ATOM     11  C25 UNL     1       5.585 -11.466  -4.003 +0.00 +0.00    +0.156 C  
DOCKED: ATOM     12  C26 UNL     1       6.208 -12.767  -3.515 +0.00 +0.00    +0.038 C  
DOCKED: BRANCH  11  13
DOCKED: ATOM     13  C27 UNL     1       4.567 -11.736  -5.122 +0.00 +0.00    +0.234 C  
DOCKED: ATOM     14  O10 UNL     1       4.321 -12.872  -5.531 +0.00 -0.00    -0.274 OA 
DOCKED: ATOM     15  N8  UNL     1       3.976 -10.607  -5.639 +0.00 -0.00    -0.302 N  
DOCKED: ATOM     16  H46 UNL     1       4.224  -9.684  -5.292 +0.00 +0.00    +0.150 HD 
DOCKED: BRANCH  15  17
DOCKED: ATOM     17  C28 UNL     1       2.972 -10.652  -6.702 +0.00 +0.00    +0.159 C  
DOCKED: BRANCH  17  18
DOCKED: ATOM     18  C32 UNL     1       3.558  -9.835  -7.871 +0.00 +0.00    +0.234 C  
DOCKED: ATOM     19  O13 UNL     1       3.934 -10.378  -8.914 +0.00 -0.00    -0.274 OA 
DOCKED: ATOM     20  N9  UNL     1       3.647  -8.479  -7.665 +0.00 -0.00    -0.301 N  
DOCKED: ATOM     21  H53 UNL     1       3.182  -8.058  -6.858 +0.00 +0.00    +0.150 HD 
DOCKED: BRANCH  20  22
DOCKED: ATOM     22  C33 UNL     1       4.119  -7.572  -8.720 +0.00 +0.00    +0.186 C  
DOCKED: BRANCH  22  23
DOCKED: ATOM     23  C41 UNL     1       4.643  -6.310  -8.045 +0.00 +0.00    +0.326 C  
DOCKED: ATOM     24  O14 UNL     1       5.297  -5.424  -8.579 +0.00 -0.00    -0.249 OA 
DOCKED: BRANCH  23  25
DOCKED: ATOM     25  O15 UNL     1       4.326  -6.221  -6.739 +0.00 -0.00    -0.479 OA 
DOCKED: ATOM     26  H62 UNL     1       4.997  -6.768  -6.277 +0.00 +0.00    +0.295 HD 
DOCKED: ENDBRANCH  23  25
DOCKED: ENDBRANCH  22  23
DOCKED: BRANCH  22  27
DOCKED: ATOM     27  C34 UNL     1       2.977  -7.229  -9.687 +0.00 +0.00    +0.069 C  
DOCKED: BRANCH  27  28
DOCKED: ATOM     28  C35 UNL     1       1.609  -7.296  -9.051 +0.00 -0.00    -0.045 A  
DOCKED: ATOM     29  C36 UNL     1       1.218  -6.315  -8.127 +0.00 +0.00    +0.004 A  
DOCKED: ATOM     30  C37 UNL     1      -0.047  -6.356  -7.543 +0.00 +0.00    +0.000 A  
DOCKED: ATOM     31  C38 UNL     1      -0.935  -7.377  -7.873 +0.00 +0.00    +0.000 A  
DOCKED: ATOM     32  C39 UNL     1      -0.555  -8.361  -8.785 +0.00 +0.00    +0.000 A  
DOCKED: ATOM     33  C40 UNL     1       0.712  -8.322  -9.370 +0.00 +0.00    +0.004 A  
DOCKED: ENDBRANCH  27  28
DOCKED: ENDBRANCH  22  27
DOCKED: ENDBRANCH  20  22
DOCKED: ENDBRANCH  17  18
DOCKED: BRANCH  17  34
DOCKED: ATOM     34  C29 UNL     1       1.636 -10.083  -6.190 +0.00 +0.00    +0.043 C  
DOCKED: BRANCH  34  35
DOCKED: ATOM     35  C30 UNL     1       1.670  -9.398  -4.826 +0.00 +0.00    +0.123 C  
DOCKED: BRANCH  35  36
DOCKED: ATOM     36  C31 UNL     1       2.329  -8.050  -4.895 +0.00 +0.00    +0.305 C  
DOCKED: ATOM     37  O11 UNL     1       1.787  -7.000  -4.581 +0.00 -0.00    -0.251 OA 
DOCKED: BRANCH  36  38
DOCKED: ATOM     38  O12 UNL     1       3.613  -8.102  -5.280 +0.00 -0.00    -0.481 OA 
DOCKED: ATOM     39  H52 UNL     1       4.031  -7.303  -4.895 +0.00 +0.00    +0.295 HD 
DOCKED: ENDBRANCH  36  38
DOCKED: ENDBRANCH  35  36
DOCKED: ENDBRANCH  34  35
DOCKED: ENDBRANCH  17  34
DOCKED: ENDBRANCH  15  17
DOCKED: ENDBRANCH  11  13
DOCKED: ENDBRANCH   9  11
DOCKED: ENDBRANCH   6   7
DOCKED: BRANCH   6  40
DOCKED: ATOM     40  C42 UNL     1       2.674  -9.631  -1.380 +0.00 +0.00    +0.012 C  
DOCKED: ATOM     41  C43 UNL     1       1.389  -8.797  -1.400 +0.00 +0.00    +0.009 C  
DOCKED: ATOM     42  C44 UNL     1       2.812 -10.343  -0.031 +0.00 +0.00    +0.009 C  
DOCKED: ENDBRANCH   6  40
DOCKED: ENDBRANCH   4   6
DOCKED: ENDBRANCH   1   2
DOCKED: BRANCH   1  43
DOCKED: ATOM     43  C20 UNL     1       4.468  -4.879  -3.243 +0.00 +0.00    +0.143 C  
DOCKED: BRANCH  43  44
DOCKED: ATOM     44  O7  UNL     1       4.353  -5.814  -4.333 +0.00 -0.00    -0.389 OA 
DOCKED: ATOM     45  H36 UNL     1       5.026  -5.524  -4.985 +0.00 +0.00    +0.210 HD 
DOCKED: ENDBRANCH  43  44
DOCKED: BRANCH  43  46
DOCKED: ATOM     46  C5  UNL     1       5.833  -5.024  -2.498 +0.00 +0.00    +0.102 C  
DOCKED: BRANCH  46  47
DOCKED: ATOM     47  N1  UNL     1       6.248  -6.410  -2.356 +0.00 -0.00    -0.308 N  
DOCKED: ATOM     48  C6  UNL     1       6.601  -6.920  -1.124 +0.00 +0.00    +0.234 C  
DOCKED: ATOM     49  O1  UNL     1       6.576  -6.252  -0.089 +0.00 -0.00    -0.274 OA 
DOCKED: ATOM     50  H11 UNL     1       5.990  -7.051  -3.091 +0.00 +0.00    +0.149 HD 
DOCKED: BRANCH  48  51
DOCKED: ATOM     51  C7  UNL     1       7.047  -8.395  -1.158 +0.00 +0.00    +0.168 C  
DOCKED: BRANCH  51  52
DOCKED: ATOM     52  N3  UNL     1       7.985  -8.589  -2.261 +0.00 -0.00    -0.302 N  
DOCKED: ATOM     53  C10 UNL     1       8.378  -9.872  -2.588 +0.00 +0.00    +0.234 C  
DOCKED: ATOM     54  O3  UNL     1       8.193 -10.828  -1.831 +0.00 -0.00    -0.274 OA 
DOCKED: ATOM     55  H17 UNL     1       7.877  -7.919  -3.023 +0.00 +0.00    +0.150 HD 
DOCKED: BRANCH  53  56
DOCKED: ATOM     56  C11 UNL     1       9.062 -10.042  -3.969 +0.00 +0.00    +0.161 C  
DOCKED: BRANCH  56  57
DOCKED: ATOM     57  N4  UNL     1       8.210  -9.353  -4.945 +0.00 -0.00    -0.302 N  
DOCKED: ATOM     58  C12 UNL     1       8.114  -9.766  -6.257 +0.00 +0.00    +0.230 C  
DOCKED: ATOM     59  O4  UNL     1       8.865 -10.596  -6.763 +0.00 -0.00    -0.274 OA 
DOCKED: ATOM     60  H19 UNL     1       7.354  -8.986  -4.547 +0.00 +0.00    +0.150 HD 
DOCKED: BRANCH  58  61
DOCKED: ATOM     61  C13 UNL     1       6.955  -9.110  -7.044 +0.00 +0.00    +0.138 C  
DOCKED: BRANCH  61  62
DOCKED: ATOM     62  N5  UNL     1       5.799  -8.923  -6.151 +0.00 -0.00    -0.320 NA 
DOCKED: ATOM     63  H21 UNL     1       6.132  -8.941  -5.184 +0.00 +0.00    +0.119 HD 
DOCKED: ATOM     64  H22 UNL     1       5.391  -7.995  -6.276 +0.00 +0.00    +0.119 HD 
DOCKED: ENDBRANCH  61  62
DOCKED: BRANCH  61  65
DOCKED: ATOM     65  C14 UNL     1       7.402  -7.793  -7.704 +0.00 +0.00    +0.039 C  
DOCKED: BRANCH  65  66
DOCKED: ATOM     66  C15 UNL     1       8.027  -6.801  -6.722 +0.00 +0.00    +0.122 C  
DOCKED: BRANCH  66  67
DOCKED: ATOM     67  C16 UNL     1       7.000  -6.157  -5.831 +0.00 +0.00    +0.305 C  
DOCKED: ATOM     68  O5  UNL     1       6.494  -5.054  -5.968 +0.00 -0.00    -0.251 OA 
DOCKED: BRANCH  67  69
DOCKED: ATOM     69  O6  UNL     1       6.598  -6.975  -4.837 +0.00 -0.00    -0.481 OA 
DOCKED: ATOM     70  H27 UNL     1       5.659  -7.152  -5.049 +0.00 +0.00    +0.295 HD 
DOCKED: ENDBRANCH  67  69
DOCKED: ENDBRANCH  66  67
DOCKED: ENDBRANCH  65  66
DOCKED: ENDBRANCH  61  65
DOCKED: ENDBRANCH  58  61
DOCKED: ENDBRANCH  56  57
DOCKED: BRANCH  56  71
DOCKED: ATOM     71  C17 UNL     1      10.501  -9.481  -4.011 +0.00 +0.00    +0.012 C  
DOCKED: ATOM     72  C18 UNL     1      11.242  -9.614  -2.676 +0.00 +0.00    +0.009 C  
DOCKED: ATOM     73  C19 UNL     1      10.493  -8.013  -4.451 +0.00 +0.00    +0.009 C  
DOCKED: ENDBRANCH  56  71
DOCKED: ENDBRANCH  53  56
DOCKED: ENDBRANCH  51  52
DOCKED: BRANCH  51  74
DOCKED: ATOM     74  C8  UNL     1       7.603  -8.802   0.206 +0.00 +0.00    +0.127 C  
DOCKED: BRANCH  74  75
DOCKED: ATOM     75  C9  UNL     1       6.508  -9.177   1.182 +0.00 +0.00    +0.213 C  
DOCKED: ATOM     76  N2  UNL     1       5.304  -8.570   0.968 +0.00 -0.00    -0.329 N  
DOCKED: ATOM     77  O2  UNL     1       6.636 -10.030   2.053 +0.00 -0.00    -0.276 OA 
DOCKED: ATOM     78  H15 UNL     1       5.245  -7.680   0.477 +0.00 +0.00    +0.145 HD 
DOCKED: ATOM     79  H16 UNL     1       4.603  -8.738   1.676 +0.00 +0.00    +0.145 HD 
DOCKED: ENDBRANCH  74  75
DOCKED: ENDBRANCH  51  74
DOCKED: ENDBRANCH  48  51
DOCKED: ENDBRANCH  46  47
DOCKED: BRANCH  46  80
DOCKED: ATOM     80  C4  UNL     1       6.927  -4.208  -3.209 +0.00 +0.00    +0.028 C  
DOCKED: BRANCH  80  82
DOCKED: ATOM     81  C1  UNL     1       9.268  -4.150  -4.125 +0.00 +0.00    +0.007 C  
DOCKED: ATOM     82  C2  UNL     1       8.355  -4.783  -3.073 +0.00 -0.00    -0.015 C  
DOCKED: ATOM     83  C3  UNL     1       8.949  -4.565  -1.681 +0.00 +0.00    +0.007 C  
DOCKED: ENDBRANCH  80  82
DOCKED: ENDBRANCH  46  80
DOCKED: ENDBRANCH  43  46
DOCKED: ENDBRANCH   1  43
DOCKED: TORSDOF 36
DOCKED: TER
DOCKED: ENDMDL
________________________________________________________________________________


    FINAL DOCKED STATE:
    ________________________


Run:   16 / 20
Time taken for this run:   7.704s

DOCKED: MODEL        16
DOCKED: USER    Run = 16
DOCKED: USER
DOCKED: USER    Estimated Free Energy of Binding    = +10.74 kcal/mol  [=(1)+(2)+(3)-(4)]
DOCKED: USER
DOCKED: USER    (1) Final Intermolecular Energy     =  +0.00 kcal/mol
DOCKED: USER        vdW + Hbond + desolv Energy     =  +0.00 kcal/mol
DOCKED: USER        Electrostatic Energy            =  +0.00 kcal/mol
DOCKED: USER        Moving Ligand-Fixed Receptor    =  +0.00 kcal/mol
DOCKED: USER        Moving Ligand-Moving Receptor   =  +0.00 kcal/mol
DOCKED: USER    (2) Final Total Internal Energy     = -32.09 kcal/mol
DOCKED: USER    (3) Torsional Free Energy           = +10.74 kcal/mol
DOCKED: USER    (4) Unbound System's Energy         = -32.09 kcal/mol
DOCKED: USER
DOCKED: USER
DOCKED: REMARK  Name = ligands/ligand_15.pdb
DOCKED: REMARK  43 active torsions:
DOCKED: REMARK  status: ('A' for Active; 'I' for Inactive)
DOCKED: REMARK    1  A    between atoms: C1_1  and  C2_2
DOCKED: REMARK    2  A    between atoms: C2_2  and  C3_3
DOCKED: REMARK    3  A    between atoms: C2_2  and  C4_4
DOCKED: REMARK    4  A    between atoms: C4_4  and  C5_5
DOCKED: REMARK    5  A    between atoms: C5_5  and  N1_6
DOCKED: REMARK    6  A    between atoms: C5_5  and  C20_31
DOCKED: REMARK    7  A    between atoms: C6_7  and  C7_9
DOCKED: REMARK    8  A    between atoms: C7_9  and  C8_10
DOCKED: REMARK    9  A    between atoms: C7_9  and  N3_14
DOCKED: REMARK   10  A    between atoms: C8_10  and  C9_11
DOCKED: REMARK   11  A    between atoms: C10_15  and  C11_17
DOCKED: REMARK   12  A    between atoms: C11_17  and  N4_18
DOCKED: REMARK   13  A    between atoms: C11_17  and  C17_28
DOCKED: REMARK   14  A    between atoms: C12_19  and  C13_21
DOCKED: REMARK   15  A    between atoms: C13_21  and  N5_22
DOCKED: REMARK   16  A    between atoms: C13_21  and  C14_23
DOCKED: REMARK   17  A    between atoms: C14_23  and  C15_24
DOCKED: REMARK   18  A    between atoms: C15_24  and  C16_25
DOCKED: REMARK   19  A    between atoms: C16_25  and  O6_27
DOCKED: REMARK   20  A    between atoms: C17_28  and  C18_29
DOCKED: REMARK   21  A    between atoms: C17_28  and  C19_30
DOCKED: REMARK   22  A    between atoms: C20_31  and  O7_32
DOCKED: REMARK   23  A    between atoms: C20_31  and  C21_33
DOCKED: REMARK   24  A    between atoms: C21_33  and  C22_34
DOCKED: REMARK   25  A    between atoms: N6_36  and  C23_37
DOCKED: REMARK   26  A    between atoms: C23_37  and  C24_38
DOCKED: REMARK   27  A    between atoms: C23_37  and  C42_66
DOCKED: REMARK   28  A    between atoms: N7_40  and  C25_41
DOCKED: REMARK   29  A    between atoms: C25_41  and  C26_42
DOCKED: REMARK   30  A    between atoms: C25_41  and  C27_43
DOCKED: REMARK   31  A    between atoms: N8_45  and  C28_46
DOCKED: REMARK   32  A    between atoms: C28_46  and  C29_47
DOCKED: REMARK   33  A    between atoms: C28_46  and  C32_52
DOCKED: REMARK   34  A    between atoms: C29_47  and  C30_48
DOCKED: REMARK   35  A    between atoms: C30_48  and  C31_49
DOCKED: REMARK   36  A    between atoms: C31_49  and  O12_51
DOCKED: REMARK   37  A    between atoms: N9_54  and  C33_55
DOCKED: REMARK   38  A    between atoms: C33_55  and  C34_56
DOCKED: REMARK   39  A    between atoms: C33_55  and  C41_63
DOCKED: REMARK   40  A    between atoms: C34_56  and  C35_57
DOCKED: REMARK   41  A    between atoms: C41_63  and  O15_65
DOCKED: REMARK   42  A    between atoms: C42_66  and  C43_67
DOCKED: REMARK   43  A    between atoms: C42_66  and  C44_68
DOCKED: REMARK                            x       y       z     vdW  Elec       q    Type
DOCKED: REMARK                         _______ _______ _______ _____ _____    ______ ____
DOCKED: USER                              x       y       z     vdW  Elec       q    Type
DOCKED: USER                           _______ _______ _______ _____ _____    ______ ____
DOCKED: ROOT
DOCKED: ATOM      1  C21 UNL     1       9.891  -0.739  -4.468 +0.00 +0.00    +0.129 C  
DOCKED: ENDROOT
DOCKED: BRANCH   1   2
DOCKED: ATOM      2  C22 UNL     1      10.505  -1.926  -3.762 +0.00 +0.00    +0.216 C  
DOCKED: ATOM      3  O8  UNL     1       9.961  -2.503  -2.823 +0.00 -0.00    -0.276 OA 
DOCKED: ATOM      4  N6  UNL     1      11.712  -2.296  -4.293 +0.00 -0.00    -0.304 N  
DOCKED: ATOM      5  H39 UNL     1      12.127  -1.736  -5.038 +0.00 +0.00    +0.149 HD 
DOCKED: BRANCH   4   6
DOCKED: ATOM      6  C23 UNL     1      12.615  -3.270  -3.674 +0.00 +0.00    +0.161 C  
DOCKED: BRANCH   6   7
DOCKED: ATOM      7  C24 UNL     1      14.028  -2.807  -4.091 +0.00 +0.00    +0.234 C  
DOCKED: ATOM      8  O9  UNL     1      14.917  -2.631  -3.252 +0.00 -0.00    -0.274 OA 
DOCKED: ATOM      9  N7  UNL     1      14.243  -2.614  -5.431 +0.00 -0.00    -0.303 N  
DOCKED: ATOM     10  H41 UNL     1      13.470  -2.652  -6.087 +0.00 +0.00    +0.149 HD 
DOCKED: BRANCH   9  11
DOCKED: ATOM     11  C25 UNL     1      15.493  -2.056  -5.936 +0.00 +0.00    +0.156 C  
DOCKED: ATOM     12  C26 UNL     1      16.619  -3.077  -5.838 +0.00 +0.00    +0.038 C  
DOCKED: BRANCH  11  13
DOCKED: ATOM     13  C27 UNL     1      15.282  -1.614  -7.392 +0.00 +0.00    +0.234 C  
DOCKED: ATOM     14  O10 UNL     1      15.572  -2.335  -8.349 +0.00 -0.00    -0.274 OA 
DOCKED: ATOM     15  N8  UNL     1      14.769  -0.347  -7.534 +0.00 -0.00    -0.302 N  
DOCKED: ATOM     16  H46 UNL     1      14.566   0.227  -6.720 +0.00 +0.00    +0.150 HD 
DOCKED: BRANCH  15  17
DOCKED: ATOM     17  C28 UNL     1      14.486   0.254  -8.838 +0.00 +0.00    +0.159 C  
DOCKED: BRANCH  17  18
DOCKED: ATOM     18  C32 UNL     1      14.291   1.760  -8.576 +0.00 +0.00    +0.234 C  
DOCKED: ATOM     19  O13 UNL     1      14.666   2.610  -9.388 +0.00 -0.00    -0.274 OA 
DOCKED: ATOM     20  N9  UNL     1      13.697   2.086  -7.381 +0.00 -0.00    -0.301 N  
DOCKED: ATOM     21  H53 UNL     1      13.263   1.353  -6.815 +0.00 +0.00    +0.150 HD 
DOCKED: BRANCH  20  22
DOCKED: ATOM     22  C33 UNL     1      13.384   3.478  -7.033 +0.00 +0.00    +0.186 C  
DOCKED: BRANCH  22  23
DOCKED: ATOM     23  C41 UNL     1      12.545   3.461  -5.760 +0.00 +0.00    +0.326 C  
DOCKED: ATOM     24  O14 UNL     1      11.889   4.393  -5.316 +0.00 -0.00    -0.249 OA 
DOCKED: BRANCH  23  25
DOCKED: ATOM     25  O15 UNL     1      12.571   2.282  -5.110 +0.00 -0.00    -0.479 OA 
DOCKED: ATOM     26  H62 UNL     1      12.471   1.603  -5.810 +0.00 +0.00    +0.295 HD 
DOCKED: ENDBRANCH  23  25
DOCKED: ENDBRANCH  22  23
DOCKED: BRANCH  22  27
DOCKED: ATOM     27  C34 UNL     1      12.617   4.161  -8.173 +0.00 +0.00    +0.069 C  
DOCKED: BRANCH  27  28
DOCKED: ATOM     28  C35 UNL     1      11.389   3.400  -8.612 +0.00 -0.00    -0.045 A  
DOCKED: ATOM     29  C36 UNL     1      11.449   2.563  -9.737 +0.00 +0.00    +0.004 A  
DOCKED: ATOM     30  C37 UNL     1      10.326   1.843 -10.145 +0.00 +0.00    +0.000 A  
DOCKED: ATOM     31  C38 UNL     1       9.132   1.952  -9.436 +0.00 +0.00    +0.000 A  
DOCKED: ATOM     32  C39 UNL     1       9.059   2.786  -8.321 +0.00 +0.00    +0.000 A  
DOCKED: ATOM     33  C40 UNL     1      10.181   3.508  -7.911 +0.00 +0.00    +0.004 A  
DOCKED: ENDBRANCH  27  28
DOCKED: ENDBRANCH  22  27
DOCKED: ENDBRANCH  20  22
DOCKED: ENDBRANCH  17  18
DOCKED: BRANCH  17  34
DOCKED: ATOM     34  C29 UNL     1      13.243  -0.406  -9.464 +0.00 +0.00    +0.043 C  
DOCKED: BRANCH  34  35
DOCKED: ATOM     35  C30 UNL     1      12.283  -1.095  -8.496 +0.00 +0.00    +0.123 C  
DOCKED: BRANCH  35  36
DOCKED: ATOM     36  C31 UNL     1      11.988  -0.238  -7.299 +0.00 +0.00    +0.305 C  
DOCKED: ATOM     37  O11 UNL     1      11.196   0.693  -7.295 +0.00 -0.00    -0.251 OA 
DOCKED: BRANCH  36  38
DOCKED: ATOM     38  O12 UNL     1      12.635  -0.629  -6.190 +0.00 -0.00    -0.481 OA 
DOCKED: ATOM     39  H52 UNL     1      12.693   0.174  -5.629 +0.00 +0.00    +0.295 HD 
DOCKED: ENDBRANCH  36  38
DOCKED: ENDBRANCH  35  36
DOCKED: ENDBRANCH  34  35
DOCKED: ENDBRANCH  17  34
DOCKED: ENDBRANCH  15  17
DOCKED: ENDBRANCH  11  13
DOCKED: ENDBRANCH   9  11
DOCKED: ENDBRANCH   6   7
DOCKED: BRANCH   6  40
DOCKED: ATOM     40  C42 UNL     1      12.247  -4.709  -4.097 +0.00 +0.00    +0.012 C  
DOCKED: ATOM     41  C43 UNL     1      13.407  -5.693  -3.912 +0.00 +0.00    +0.009 C  
DOCKED: ATOM     42  C44 UNL     1      11.715  -4.793  -5.530 +0.00 +0.00    +0.009 C  
DOCKED: ENDBRANCH   6  40
DOCKED: ENDBRANCH   4   6
DOCKED: ENDBRANCH   1   2
DOCKED: BRANCH   1  43
DOCKED: ATOM     43  C20 UNL     1      10.687   0.543  -4.195 +0.00 +0.00    +0.143 C  
DOCKED: BRANCH  43  44
DOCKED: ATOM     44  O7  UNL     1      12.092   0.232  -4.117 +0.00 -0.00    -0.389 OA 
DOCKED: ATOM     45  H36 UNL     1      12.534   1.097  -3.981 +0.00 +0.00    +0.210 HD 
DOCKED: ENDBRANCH  43  44
DOCKED: BRANCH  43  46
DOCKED: ATOM     46  C5  UNL     1      10.173   1.224  -2.887 +0.00 +0.00    +0.102 C  
DOCKED: BRANCH  46  47
DOCKED: ATOM     47  N1  UNL     1      11.250   1.785  -2.088 +0.00 -0.00    -0.308 N  
DOCKED: ATOM     48  C6  UNL     1      11.002   2.318  -0.840 +0.00 +0.00    +0.234 C  
DOCKED: ATOM     49  O1  UNL     1       9.881   2.339  -0.331 +0.00 -0.00    -0.274 OA 
DOCKED: ATOM     50  H11 UNL     1      12.193   1.514  -2.322 +0.00 +0.00    +0.149 HD 
DOCKED: BRANCH  48  51
DOCKED: ATOM     51  C7  UNL     1      12.249   2.900  -0.145 +0.00 +0.00    +0.168 C  
DOCKED: BRANCH  51  52
DOCKED: ATOM     52  N3  UNL     1      13.406   2.063  -0.454 +0.00 -0.00    -0.302 N  
DOCKED: ATOM     53  C10 UNL     1      13.284   0.691  -0.354 +0.00 +0.00    +0.234 C  
DOCKED: ATOM     54  O3  UNL     1      12.345   0.157   0.240 +0.00 -0.00    -0.274 OA 
DOCKED: ATOM     55  H17 UNL     1      14.002   2.432  -1.195 +0.00 +0.00    +0.150 HD 
DOCKED: BRANCH  53  56
DOCKED: ATOM     56  C11 UNL     1      14.399  -0.141  -1.037 +0.00 +0.00    +0.161 C  
DOCKED: BRANCH  56  57
DOCKED: ATOM     57  N4  UNL     1      14.666   0.498  -2.331 +0.00 -0.00    -0.302 N  
DOCKED: ATOM     58  C12 UNL     1      15.803   0.231  -3.063 +0.00 +0.00    +0.230 C  
DOCKED: ATOM     59  O4  UNL     1      16.764  -0.391  -2.618 +0.00 -0.00    -0.274 OA 
DOCKED: ATOM     60  H19 UNL     1      13.830   0.663  -2.879 +0.00 +0.00    +0.150 HD 
DOCKED: BRANCH  58  61
DOCKED: ATOM     61  C13 UNL     1      15.762   0.764  -4.514 +0.00 +0.00    +0.138 C  
DOCKED: BRANCH  61  62
DOCKED: ATOM     62  N5  UNL     1      14.392   0.642  -5.042 +0.00 -0.00    -0.320 NA 
DOCKED: ATOM     63  H21 UNL     1      14.037  -0.287  -4.808 +0.00 +0.00    +0.119 HD 
DOCKED: ATOM     64  H22 UNL     1      13.763   1.295  -4.571 +0.00 +0.00    +0.119 HD 
DOCKED: ENDBRANCH  61  62
DOCKED: BRANCH  61  65
DOCKED: ATOM     65  C14 UNL     1      16.293   2.206  -4.596 +0.00 +0.00    +0.039 C  
DOCKED: BRANCH  65  66
DOCKED: ATOM     66  C15 UNL     1      16.019   3.030  -3.337 +0.00 +0.00    +0.122 C  
DOCKED: BRANCH  66  67
DOCKED: ATOM     67  C16 UNL     1      14.636   3.623  -3.334 +0.00 +0.00    +0.305 C  
DOCKED: ATOM     68  O5  UNL     1      14.319   4.753  -3.670 +0.00 -0.00    -0.251 OA 
DOCKED: BRANCH  67  69
DOCKED: ATOM     69  O6  UNL     1      13.695   2.726  -2.973 +0.00 -0.00    -0.481 OA 
DOCKED: ATOM     70  H27 UNL     1      13.524   2.226  -3.797 +0.00 +0.00    +0.295 HD 
DOCKED: ENDBRANCH  67  69
DOCKED: ENDBRANCH  66  67
DOCKED: ENDBRANCH  65  66
DOCKED: ENDBRANCH  61  65
DOCKED: ENDBRANCH  58  61
DOCKED: ENDBRANCH  56  57
DOCKED: BRANCH  56  71
DOCKED: ATOM     71  C17 UNL     1      15.694  -0.234  -0.199 +0.00 +0.00    +0.012 C  
DOCKED: ATOM     72  C18 UNL     1      15.521  -1.036   1.096 +0.00 +0.00    +0.009 C  
DOCKED: ATOM     73  C19 UNL     1      16.223   1.167   0.130 +0.00 +0.00    +0.009 C  
DOCKED: ENDBRANCH  56  71
DOCKED: ENDBRANCH  53  56
DOCKED: ENDBRANCH  51  52
DOCKED: BRANCH  51  74
DOCKED: ATOM     74  C8  UNL     1      12.424   4.366  -0.536 +0.00 +0.00    +0.127 C  
DOCKED: BRANCH  74  75
DOCKED: ATOM     75  C9  UNL     1      11.354   4.834  -1.500 +0.00 +0.00    +0.213 C  
DOCKED: ATOM     76  N2  UNL     1      11.542   4.470  -2.802 +0.00 -0.00    -0.329 N  
DOCKED: ATOM     77  O2  UNL     1      10.332   5.417  -1.151 +0.00 -0.00    -0.276 OA 
DOCKED: ATOM     78  H15 UNL     1      12.473   4.264  -3.159 +0.00 +0.00    +0.145 HD 
DOCKED: ATOM     79  H16 UNL     1      10.886   4.866  -3.461 +0.00 +0.00    +0.145 HD 
DOCKED: ENDBRANCH  74  75
DOCKED: ENDBRANCH  51  74
DOCKED: ENDBRANCH  48  51
DOCKED: ENDBRANCH  46  47
DOCKED: BRANCH  46  80
DOCKED: ATOM     80  C4  UNL     1       9.128   2.305  -3.213 +0.00 +0.00    +0.028 C  
DOCKED: BRANCH  80  82
DOCKED: ATOM     81  C1  UNL     1       7.876   1.959  -5.366 +0.00 +0.00    +0.007 C  
DOCKED: ATOM     82  C2  UNL     1       9.044   2.695  -4.706 +0.00 -0.00    -0.015 C  
DOCKED: ATOM     83  C3  UNL     1       8.884   4.201  -4.914 +0.00 +0.00    +0.007 C  
DOCKED: ENDBRANCH  80  82
DOCKED: ENDBRANCH  46  80
DOCKED: ENDBRANCH  43  46
DOCKED: ENDBRANCH   1  43
DOCKED: TORSDOF 36
DOCKED: TER
DOCKED: ENDMDL
________________________________________________________________________________


    FINAL DOCKED STATE:
    ________________________


Run:   17 / 20
Time taken for this run:   7.704s

DOCKED: MODEL        17
DOCKED: USER    Run = 17
DOCKED: USER
DOCKED: USER    Estimated Free Energy of Binding    = +10.74 kcal/mol  [=(1)+(2)+(3)-(4)]
DOCKED: USER
DOCKED: USER    (1) Final Intermolecular Energy     =  +0.00 kcal/mol
DOCKED: USER        vdW + Hbond + desolv Energy     =  +0.00 kcal/mol
DOCKED: USER        Electrostatic Energy            =  +0.00 kcal/mol
DOCKED: USER        Moving Ligand-Fixed Receptor    =  +0.00 kcal/mol
DOCKED: USER        Moving Ligand-Moving Receptor   =  +0.00 kcal/mol
DOCKED: USER    (2) Final Total Internal Energy     = -31.27 kcal/mol
DOCKED: USER    (3) Torsional Free Energy           = +10.74 kcal/mol
DOCKED: USER    (4) Unbound System's Energy         = -31.27 kcal/mol
DOCKED: USER
DOCKED: USER
DOCKED: REMARK  Name = ligands/ligand_15.pdb
DOCKED: REMARK  43 active torsions:
DOCKED: REMARK  status: ('A' for Active; 'I' for Inactive)
DOCKED: REMARK    1  A    between atoms: C1_1  and  C2_2
DOCKED: REMARK    2  A    between atoms: C2_2  and  C3_3
DOCKED: REMARK    3  A    between atoms: C2_2  and  C4_4
DOCKED: REMARK    4  A    between atoms: C4_4  and  C5_5
DOCKED: REMARK    5  A    between atoms: C5_5  and  N1_6
DOCKED: REMARK    6  A    between atoms: C5_5  and  C20_31
DOCKED: REMARK    7  A    between atoms: C6_7  and  C7_9
DOCKED: REMARK    8  A    between atoms: C7_9  and  C8_10
DOCKED: REMARK    9  A    between atoms: C7_9  and  N3_14
DOCKED: REMARK   10  A    between atoms: C8_10  and  C9_11
DOCKED: REMARK   11  A    between atoms: C10_15  and  C11_17
DOCKED: REMARK   12  A    between atoms: C11_17  and  N4_18
DOCKED: REMARK   13  A    between atoms: C11_17  and  C17_28
DOCKED: REMARK   14  A    between atoms: C12_19  and  C13_21
DOCKED: REMARK   15  A    between atoms: C13_21  and  N5_22
DOCKED: REMARK   16  A    between atoms: C13_21  and  C14_23
DOCKED: REMARK   17  A    between atoms: C14_23  and  C15_24
DOCKED: REMARK   18  A    between atoms: C15_24  and  C16_25
DOCKED: REMARK   19  A    between atoms: C16_25  and  O6_27
DOCKED: REMARK   20  A    between atoms: C17_28  and  C18_29
DOCKED: REMARK   21  A    between atoms: C17_28  and  C19_30
DOCKED: REMARK   22  A    between atoms: C20_31  and  O7_32
DOCKED: REMARK   23  A    between atoms: C20_31  and  C21_33
DOCKED: REMARK   24  A    between atoms: C21_33  and  C22_34
DOCKED: REMARK   25  A    between atoms: N6_36  and  C23_37
DOCKED: REMARK   26  A    between atoms: C23_37  and  C24_38
DOCKED: REMARK   27  A    between atoms: C23_37  and  C42_66
DOCKED: REMARK   28  A    between atoms: N7_40  and  C25_41
DOCKED: REMARK   29  A    between atoms: C25_41  and  C26_42
DOCKED: REMARK   30  A    between atoms: C25_41  and  C27_43
DOCKED: REMARK   31  A    between atoms: N8_45  and  C28_46
DOCKED: REMARK   32  A    between atoms: C28_46  and  C29_47
DOCKED: REMARK   33  A    between atoms: C28_46  and  C32_52
DOCKED: REMARK   34  A    between atoms: C29_47  and  C30_48
DOCKED: REMARK   35  A    between atoms: C30_48  and  C31_49
DOCKED: REMARK   36  A    between atoms: C31_49  and  O12_51
DOCKED: REMARK   37  A    between atoms: N9_54  and  C33_55
DOCKED: REMARK   38  A    between atoms: C33_55  and  C34_56
DOCKED: REMARK   39  A    between atoms: C33_55  and  C41_63
DOCKED: REMARK   40  A    between atoms: C34_56  and  C35_57
DOCKED: REMARK   41  A    between atoms: C41_63  and  O15_65
DOCKED: REMARK   42  A    between atoms: C42_66  and  C43_67
DOCKED: REMARK   43  A    between atoms: C42_66  and  C44_68
DOCKED: REMARK                            x       y       z     vdW  Elec       q    Type
DOCKED: REMARK                         _______ _______ _______ _____ _____    ______ ____
DOCKED: USER                              x       y       z     vdW  Elec       q    Type
DOCKED: USER                           _______ _______ _______ _____ _____    ______ ____
DOCKED: ROOT
DOCKED: ATOM      1  C21 UNL     1      13.053  -3.226  -0.737 +0.00 +0.00    +0.129 C  
DOCKED: ENDROOT
DOCKED: BRANCH   1   2
DOCKED: ATOM      2  C22 UNL     1      13.165  -4.230   0.387 +0.00 +0.00    +0.216 C  
DOCKED: ATOM      3  O8  UNL     1      13.614  -5.364   0.231 +0.00 -0.00    -0.276 OA 
DOCKED: ATOM      4  N6  UNL     1      12.736  -3.735   1.590 +0.00 -0.00    -0.304 N  
DOCKED: ATOM      5  H39 UNL     1      12.326  -2.801   1.632 +0.00 +0.00    +0.149 HD 
DOCKED: BRANCH   4   6
DOCKED: ATOM      6  C23 UNL     1      12.538  -4.553   2.789 +0.00 +0.00    +0.161 C  
DOCKED: BRANCH   6   7
DOCKED: ATOM      7  C24 UNL     1      13.876  -4.448   3.554 +0.00 +0.00    +0.234 C  
DOCKED: ATOM      8  O9  UNL     1      14.701  -3.571   3.282 +0.00 -0.00    -0.274 OA 
DOCKED: ATOM      9  N7  UNL     1      14.090  -5.367   4.549 +0.00 -0.00    -0.303 N  
DOCKED: ATOM     10  H41 UNL     1      13.453  -6.146   4.676 +0.00 +0.00    +0.149 HD 
DOCKED: BRANCH   9  11
DOCKED: ATOM     11  C25 UNL     1      15.364  -5.451   5.254 +0.00 +0.00    +0.156 C  
DOCKED: ATOM     12  C26 UNL     1      16.520  -5.574   4.270 +0.00 +0.00    +0.038 C  
DOCKED: BRANCH  11  13
DOCKED: ATOM     13  C27 UNL     1      15.525  -4.200   6.132 +0.00 +0.00    +0.234 C  
DOCKED: ATOM     14  O10 UNL     1      15.120  -4.153   7.294 +0.00 -0.00    -0.274 OA 
DOCKED: ATOM     15  N8  UNL     1      16.135  -3.140   5.505 +0.00 -0.00    -0.302 N  
DOCKED: ATOM     16  H46 UNL     1      16.433  -3.210   4.535 +0.00 +0.00    +0.150 HD 
DOCKED: BRANCH  15  17
DOCKED: ATOM     17  C28 UNL     1      16.391  -1.863   6.172 +0.00 +0.00    +0.159 C  
DOCKED: BRANCH  17  18
DOCKED: ATOM     18  C32 UNL     1      15.529  -0.820   5.433 +0.00 +0.00    +0.234 C  
DOCKED: ATOM     19  O13 UNL     1      15.232   0.258   5.956 +0.00 -0.00    -0.274 OA 
DOCKED: ATOM     20  N9  UNL     1      15.105  -1.178   4.177 +0.00 -0.00    -0.301 N  
DOCKED: ATOM     21  H53 UNL     1      15.502  -2.005   3.725 +0.00 +0.00    +0.150 HD 
DOCKED: BRANCH  20  22
DOCKED: ATOM     22  C33 UNL     1      14.339  -0.253   3.332 +0.00 +0.00    +0.186 C  
DOCKED: BRANCH  22  23
DOCKED: ATOM     23  C41 UNL     1      14.103  -0.937   1.990 +0.00 +0.00    +0.326 C  
DOCKED: ATOM     24  O14 UNL     1      13.096  -0.848   1.301 +0.00 -0.00    -0.249 OA 
DOCKED: BRANCH  23  25
DOCKED: ATOM     25  O15 UNL     1      15.136  -1.698   1.581 +0.00 -0.00    -0.479 OA 
DOCKED: ATOM     26  H62 UNL     1      15.189  -2.428   2.234 +0.00 +0.00    +0.295 HD 
DOCKED: ENDBRANCH  23  25
DOCKED: ENDBRANCH  22  23
DOCKED: BRANCH  22  27
DOCKED: ATOM     27  C34 UNL     1      15.106   1.062   3.137 +0.00 +0.00    +0.069 C  
DOCKED: BRANCH  27  28
DOCKED: ATOM     28  C35 UNL     1      16.081   1.025   1.984 +0.00 -0.00    -0.045 A  
DOCKED: ATOM     29  C36 UNL     1      17.431   0.726   2.219 +0.00 +0.00    +0.004 A  
DOCKED: ATOM     30  C37 UNL     1      18.339   0.675   1.162 +0.00 +0.00    +0.000 A  
DOCKED: ATOM     31  C38 UNL     1      17.909   0.922  -0.140 +0.00 +0.00    +0.000 A  
DOCKED: ATOM     32  C39 UNL     1      16.570   1.226  -0.384 +0.00 +0.00    +0.000 A  
DOCKED: ATOM     33  C40 UNL     1      15.660   1.279   0.673 +0.00 +0.00    +0.004 A  
DOCKED: ENDBRANCH  27  28
DOCKED: ENDBRANCH  22  27
DOCKED: ENDBRANCH  20  22
DOCKED: ENDBRANCH  17  18
DOCKED: BRANCH  17  34
DOCKED: ATOM     34  C29 UNL     1      17.895  -1.534   6.122 +0.00 +0.00    +0.043 C  
DOCKED: BRANCH  34  35
DOCKED: ATOM     35  C30 UNL     1      18.483  -1.268   4.738 +0.00 +0.00    +0.123 C  
DOCKED: BRANCH  35  36
DOCKED: ATOM     36  C31 UNL     1      18.154  -2.368   3.772 +0.00 +0.00    +0.305 C  
DOCKED: ATOM     37  O11 UNL     1      18.595  -3.507   3.846 +0.00 -0.00    -0.251 OA 
DOCKED: BRANCH  36  38
DOCKED: ATOM     38  O12 UNL     1      17.266  -2.007   2.833 +0.00 -0.00    -0.481 OA 
DOCKED: ATOM     39  H52 UNL     1      16.614  -2.739   2.800 +0.00 +0.00    +0.295 HD 
DOCKED: ENDBRANCH  36  38
DOCKED: ENDBRANCH  35  36
DOCKED: ENDBRANCH  34  35
DOCKED: ENDBRANCH  17  34
DOCKED: ENDBRANCH  15  17
DOCKED: ENDBRANCH  11  13
DOCKED: ENDBRANCH   9  11
DOCKED: ENDBRANCH   6   7
DOCKED: BRANCH   6  40
DOCKED: ATOM     40  C42 UNL     1      12.113  -5.989   2.411 +0.00 +0.00    +0.012 C  
DOCKED: ATOM     41  C43 UNL     1      10.975  -6.017   1.387 +0.00 +0.00    +0.009 C  
DOCKED: ATOM     42  C44 UNL     1      11.742  -6.842   3.627 +0.00 +0.00    +0.009 C  
DOCKED: ENDBRANCH   6  40
DOCKED: ENDBRANCH   4   6
DOCKED: ENDBRANCH   1   2
DOCKED: BRANCH   1  43
DOCKED: ATOM     43  C20 UNL     1      14.275  -3.288  -1.661 +0.00 +0.00    +0.143 C  
DOCKED: BRANCH  43  44
DOCKED: ATOM     44  O7  UNL     1      14.170  -4.436  -2.527 +0.00 -0.00    -0.389 OA 
DOCKED: ATOM     45  H36 UNL     1      13.907  -5.173  -1.936 +0.00 +0.00    +0.210 HD 
DOCKED: ENDBRANCH  43  44
DOCKED: BRANCH  43  46
DOCKED: ATOM     46  C5  UNL     1      15.587  -3.323  -0.814 +0.00 +0.00    +0.102 C  
DOCKED: BRANCH  46  47
DOCKED: ATOM     47  N1  UNL     1      15.948  -4.668  -0.396 +0.00 -0.00    -0.308 N  
DOCKED: ATOM     48  C6  UNL     1      16.433  -4.909   0.872 +0.00 +0.00    +0.234 C  
DOCKED: ATOM     49  O1  UNL     1      16.576  -4.022   1.716 +0.00 -0.00    -0.274 OA 
DOCKED: ATOM     50  H11 UNL     1      15.565  -5.438  -0.924 +0.00 +0.00    +0.149 HD 
DOCKED: BRANCH  48  51
DOCKED: ATOM     51  C7  UNL     1      16.797  -6.383   1.137 +0.00 +0.00    +0.168 C  
DOCKED: BRANCH  51  52
DOCKED: ATOM     52  N3  UNL     1      15.677  -7.233   0.743 +0.00 -0.00    -0.302 N  
DOCKED: ATOM     53  C10 UNL     1      14.921  -7.842   1.727 +0.00 +0.00    +0.234 C  
DOCKED: ATOM     54  O3  UNL     1      15.307  -7.924   2.895 +0.00 -0.00    -0.274 OA 
DOCKED: ATOM     55  H17 UNL     1      15.193  -6.923  -0.100 +0.00 +0.00    +0.150 HD 
DOCKED: BRANCH  53  56
DOCKED: ATOM     56  C11 UNL     1      13.553  -8.414   1.276 +0.00 +0.00    +0.161 C  
DOCKED: BRANCH  56  57
DOCKED: ATOM     57  N4  UNL     1      13.463  -8.191  -0.172 +0.00 -0.00    -0.302 N  
DOCKED: ATOM     58  C12 UNL     1      12.324  -8.483  -0.892 +0.00 +0.00    +0.230 C  
DOCKED: ATOM     59  O4  UNL     1      11.382  -9.126  -0.437 +0.00 -0.00    -0.274 OA 
DOCKED: ATOM     60  H19 UNL     1      13.973  -7.375  -0.488 +0.00 +0.00    +0.150 HD 
DOCKED: BRANCH  58  61
DOCKED: ATOM     61  C13 UNL     1      12.317  -7.908  -2.327 +0.00 +0.00    +0.138 C  
DOCKED: BRANCH  61  62
DOCKED: ATOM     62  N5  UNL     1      12.802  -6.518  -2.301 +0.00 -0.00    -0.320 NA 
DOCKED: ATOM     63  H21 UNL     1      13.388  -6.396  -1.473 +0.00 +0.00    +0.119 HD 
DOCKED: ATOM     64  H22 UNL     1      13.418  -6.334  -3.095 +0.00 +0.00    +0.119 HD 
DOCKED: ENDBRANCH  61  62
DOCKED: BRANCH  61  65
DOCKED: ATOM     65  C14 UNL     1      13.132  -8.792  -3.288 +0.00 +0.00    +0.039 C  
DOCKED: BRANCH  65  66
DOCKED: ATOM     66  C15 UNL     1      14.558  -8.291  -3.517 +0.00 +0.00    +0.122 C  
DOCKED: BRANCH  66  67
DOCKED: ATOM     67  C16 UNL     1      15.239  -7.905  -2.232 +0.00 +0.00    +0.305 C  
DOCKED: ATOM     68  O5  UNL     1      15.728  -8.656  -1.403 +0.00 -0.00    -0.251 OA 
DOCKED: BRANCH  67  69
DOCKED: ATOM     69  O6  UNL     1      15.337  -6.567  -2.085 +0.00 -0.00    -0.481 OA 
DOCKED: ATOM     70  H27 UNL     1      14.869  -6.214  -2.869 +0.00 +0.00    +0.295 HD 
DOCKED: ENDBRANCH  67  69
DOCKED: ENDBRANCH  66  67
DOCKED: ENDBRANCH  65  66
DOCKED: ENDBRANCH  61  65
DOCKED: ENDBRANCH  58  61
DOCKED: ENDBRANCH  56  57
DOCKED: BRANCH  56  71
DOCKED: ATOM     71  C17 UNL     1      13.377  -9.912   1.608 +0.00 +0.00    +0.012 C  
DOCKED: ATOM     72  C18 UNL     1      13.081 -10.174   3.089 +0.00 +0.00    +0.009 C  
DOCKED: ATOM     73  C19 UNL     1      14.617 -10.707   1.183 +0.00 +0.00    +0.009 C  
DOCKED: ENDBRANCH  56  71
DOCKED: ENDBRANCH  53  56
DOCKED: ENDBRANCH  51  52
DOCKED: BRANCH  51  74
DOCKED: ATOM     74  C8  UNL     1      18.111  -6.727   0.437 +0.00 +0.00    +0.127 C  
DOCKED: BRANCH  74  75
DOCKED: ATOM     75  C9  UNL     1      19.244  -5.820   0.867 +0.00 +0.00    +0.213 C  
DOCKED: ATOM     76  N2  UNL     1      19.119  -5.285   2.118 +0.00 -0.00    -0.329 N  
DOCKED: ATOM     77  O2  UNL     1      20.258  -5.634   0.202 +0.00 -0.00    -0.276 OA 
DOCKED: ATOM     78  H15 UNL     1      18.205  -5.175   2.552 +0.00 +0.00    +0.145 HD 
DOCKED: ATOM     79  H16 UNL     1      19.820  -4.601   2.367 +0.00 +0.00    +0.145 HD 
DOCKED: ENDBRANCH  74  75
DOCKED: ENDBRANCH  51  74
DOCKED: ENDBRANCH  48  51
DOCKED: ENDBRANCH  46  47
DOCKED: BRANCH  46  80
DOCKED: ATOM     80  C4  UNL     1      16.748  -2.671  -1.585 +0.00 +0.00    +0.028 C  
DOCKED: BRANCH  80  82
DOCKED: ATOM     81  C1  UNL     1      19.113  -3.002  -2.370 +0.00 +0.00    +0.007 C  
DOCKED: ATOM     82  C2  UNL     1      18.153  -3.182  -1.193 +0.00 -0.00    -0.015 C  
DOCKED: ATOM     83  C3  UNL     1      18.715  -2.475   0.040 +0.00 +0.00    +0.007 C  
DOCKED: ENDBRANCH  80  82
DOCKED: ENDBRANCH  46  80
DOCKED: ENDBRANCH  43  46
DOCKED: ENDBRANCH   1  43
DOCKED: TORSDOF 36
DOCKED: TER
DOCKED: ENDMDL
________________________________________________________________________________


    FINAL DOCKED STATE:
    ________________________


Run:   18 / 20
Time taken for this run:   7.704s

DOCKED: MODEL        18
DOCKED: USER    Run = 18
DOCKED: USER
DOCKED: USER    Estimated Free Energy of Binding    = +10.74 kcal/mol  [=(1)+(2)+(3)-(4)]
DOCKED: USER
DOCKED: USER    (1) Final Intermolecular Energy     =  +0.00 kcal/mol
DOCKED: USER        vdW + Hbond + desolv Energy     =  +0.00 kcal/mol
DOCKED: USER        Electrostatic Energy            =  +0.00 kcal/mol
DOCKED: USER        Moving Ligand-Fixed Receptor    =  +0.00 kcal/mol
DOCKED: USER        Moving Ligand-Moving Receptor   =  +0.00 kcal/mol
DOCKED: USER    (2) Final Total Internal Energy     = -31.91 kcal/mol
DOCKED: USER    (3) Torsional Free Energy           = +10.74 kcal/mol
DOCKED: USER    (4) Unbound System's Energy         = -31.91 kcal/mol
DOCKED: USER
DOCKED: USER
DOCKED: REMARK  Name = ligands/ligand_15.pdb
DOCKED: REMARK  43 active torsions:
DOCKED: REMARK  status: ('A' for Active; 'I' for Inactive)
DOCKED: REMARK    1  A    between atoms: C1_1  and  C2_2
DOCKED: REMARK    2  A    between atoms: C2_2  and  C3_3
DOCKED: REMARK    3  A    between atoms: C2_2  and  C4_4
DOCKED: REMARK    4  A    between atoms: C4_4  and  C5_5
DOCKED: REMARK    5  A    between atoms: C5_5  and  N1_6
DOCKED: REMARK    6  A    between atoms: C5_5  and  C20_31
DOCKED: REMARK    7  A    between atoms: C6_7  and  C7_9
DOCKED: REMARK    8  A    between atoms: C7_9  and  C8_10
DOCKED: REMARK    9  A    between atoms: C7_9  and  N3_14
DOCKED: REMARK   10  A    between atoms: C8_10  and  C9_11
DOCKED: REMARK   11  A    between atoms: C10_15  and  C11_17
DOCKED: REMARK   12  A    between atoms: C11_17  and  N4_18
DOCKED: REMARK   13  A    between atoms: C11_17  and  C17_28
DOCKED: REMARK   14  A    between atoms: C12_19  and  C13_21
DOCKED: REMARK   15  A    between atoms: C13_21  and  N5_22
DOCKED: REMARK   16  A    between atoms: C13_21  and  C14_23
DOCKED: REMARK   17  A    between atoms: C14_23  and  C15_24
DOCKED: REMARK   18  A    between atoms: C15_24  and  C16_25
DOCKED: REMARK   19  A    between atoms: C16_25  and  O6_27
DOCKED: REMARK   20  A    between atoms: C17_28  and  C18_29
DOCKED: REMARK   21  A    between atoms: C17_28  and  C19_30
DOCKED: REMARK   22  A    between atoms: C20_31  and  O7_32
DOCKED: REMARK   23  A    between atoms: C20_31  and  C21_33
DOCKED: REMARK   24  A    between atoms: C21_33  and  C22_34
DOCKED: REMARK   25  A    between atoms: N6_36  and  C23_37
DOCKED: REMARK   26  A    between atoms: C23_37  and  C24_38
DOCKED: REMARK   27  A    between atoms: C23_37  and  C42_66
DOCKED: REMARK   28  A    between atoms: N7_40  and  C25_41
DOCKED: REMARK   29  A    between atoms: C25_41  and  C26_42
DOCKED: REMARK   30  A    between atoms: C25_41  and  C27_43
DOCKED: REMARK   31  A    between atoms: N8_45  and  C28_46
DOCKED: REMARK   32  A    between atoms: C28_46  and  C29_47
DOCKED: REMARK   33  A    between atoms: C28_46  and  C32_52
DOCKED: REMARK   34  A    between atoms: C29_47  and  C30_48
DOCKED: REMARK   35  A    between atoms: C30_48  and  C31_49
DOCKED: REMARK   36  A    between atoms: C31_49  and  O12_51
DOCKED: REMARK   37  A    between atoms: N9_54  and  C33_55
DOCKED: REMARK   38  A    between atoms: C33_55  and  C34_56
DOCKED: REMARK   39  A    between atoms: C33_55  and  C41_63
DOCKED: REMARK   40  A    between atoms: C34_56  and  C35_57
DOCKED: REMARK   41  A    between atoms: C41_63  and  O15_65
DOCKED: REMARK   42  A    between atoms: C42_66  and  C43_67
DOCKED: REMARK   43  A    between atoms: C42_66  and  C44_68
DOCKED: REMARK                            x       y       z     vdW  Elec       q    Type
DOCKED: REMARK                         _______ _______ _______ _____ _____    ______ ____
DOCKED: USER                              x       y       z     vdW  Elec       q    Type
DOCKED: USER                           _______ _______ _______ _____ _____    ______ ____
DOCKED: ROOT
DOCKED: ATOM      1  C21 UNL     1      10.027  -6.493  -0.519 +0.00 +0.00    +0.129 C  
DOCKED: ENDROOT
DOCKED: BRANCH   1   2
DOCKED: ATOM      2  C22 UNL     1       9.029  -7.261   0.317 +0.00 +0.00    +0.216 C  
DOCKED: ATOM      3  O8  UNL     1       8.218  -8.050  -0.164 +0.00 -0.00    -0.276 OA 
DOCKED: ATOM      4  N6  UNL     1       9.141  -6.998   1.656 +0.00 -0.00    -0.304 N  
DOCKED: ATOM      5  H39 UNL     1       9.802  -6.291   1.976 +0.00 +0.00    +0.149 HD 
DOCKED: BRANCH   4   6
DOCKED: ATOM      6  C23 UNL     1       8.170  -7.440   2.661 +0.00 +0.00    +0.161 C  
DOCKED: BRANCH   6   7
DOCKED: ATOM      7  C24 UNL     1       8.077  -6.260   3.653 +0.00 +0.00    +0.234 C  
DOCKED: ATOM      8  O9  UNL     1       8.864  -5.311   3.595 +0.00 -0.00    -0.274 OA 
DOCKED: ATOM      9  N7  UNL     1       7.076  -6.320   4.589 +0.00 -0.00    -0.303 N  
DOCKED: ATOM     10  H41 UNL     1       6.518  -7.161   4.692 +0.00 +0.00    +0.149 HD 
DOCKED: BRANCH   9  11
DOCKED: ATOM     11  C25 UNL     1       6.965  -5.334   5.658 +0.00 +0.00    +0.156 C  
DOCKED: ATOM     12  C26 UNL     1       8.279  -5.209   6.417 +0.00 +0.00    +0.038 C  
DOCKED: BRANCH  11  13
DOCKED: ATOM     13  C27 UNL     1       6.559  -3.986   5.044 +0.00 +0.00    +0.234 C  
DOCKED: ATOM     14  O10 UNL     1       5.381  -3.658   4.890 +0.00 -0.00    -0.274 OA 
DOCKED: ATOM     15  N8  UNL     1       7.614  -3.193   4.663 +0.00 -0.00    -0.302 N  
DOCKED: ATOM     16  H46 UNL     1       8.573  -3.509   4.783 +0.00 +0.00    +0.150 HD 
DOCKED: BRANCH  15  17
DOCKED: ATOM     17  C28 UNL     1       7.438  -1.867   4.068 +0.00 +0.00    +0.159 C  
DOCKED: BRANCH  17  18
DOCKED: ATOM     18  C32 UNL     1       7.603  -2.061   2.548 +0.00 +0.00    +0.234 C  
DOCKED: ATOM     19  O13 UNL     1       6.887  -1.461   1.740 +0.00 -0.00    -0.274 OA 
DOCKED: ATOM     20  N9  UNL     1       8.576  -2.950   2.161 +0.00 -0.00    -0.301 N  
DOCKED: ATOM     21  H53 UNL     1       9.245  -3.300   2.851 +0.00 +0.00    +0.150 HD 
DOCKED: BRANCH  20  22
DOCKED: ATOM     22  C33 UNL     1       8.890  -3.177   0.744 +0.00 +0.00    +0.186 C  
DOCKED: BRANCH  22  23
DOCKED: ATOM     23  C41 UNL     1      10.248  -3.866   0.675 +0.00 +0.00    +0.326 C  
DOCKED: ATOM     24  O14 UNL     1      11.064  -3.765  -0.232 +0.00 -0.00    -0.249 OA 
DOCKED: BRANCH  23  25
DOCKED: ATOM     25  O15 UNL     1      10.514  -4.647   1.739 +0.00 -0.00    -0.479 OA 
DOCKED: ATOM     26  H62 UNL     1      10.555  -4.033   2.502 +0.00 +0.00    +0.295 HD 
DOCKED: ENDBRANCH  23  25
DOCKED: ENDBRANCH  22  23
DOCKED: BRANCH  22  27
DOCKED: ATOM     27  C34 UNL     1       8.923  -1.847  -0.021 +0.00 +0.00    +0.069 C  
DOCKED: BRANCH  27  28
DOCKED: ATOM     28  C35 UNL     1       9.970  -0.885   0.488 +0.00 -0.00    -0.045 A  
DOCKED: ATOM     29  C36 UNL     1       9.626   0.085   1.441 +0.00 +0.00    +0.004 A  
DOCKED: ATOM     30  C37 UNL     1      10.585   0.970   1.930 +0.00 +0.00    +0.000 A  
DOCKED: ATOM     31  C38 UNL     1      11.899   0.897   1.472 +0.00 +0.00    +0.000 A  
DOCKED: ATOM     32  C39 UNL     1      12.252  -0.059   0.520 +0.00 +0.00    +0.000 A  
DOCKED: ATOM     33  C40 UNL     1      11.292  -0.945   0.028 +0.00 +0.00    +0.004 A  
DOCKED: ENDBRANCH  27  28
DOCKED: ENDBRANCH  22  27
DOCKED: ENDBRANCH  20  22
DOCKED: ENDBRANCH  17  18
DOCKED: BRANCH  17  34
DOCKED: ATOM     34  C29 UNL     1       8.468  -0.884   4.657 +0.00 +0.00    +0.043 C  
DOCKED: BRANCH  34  35
DOCKED: ATOM     35  C30 UNL     1       9.742  -1.502   5.230 +0.00 +0.00    +0.123 C  
DOCKED: BRANCH  35  36
DOCKED: ATOM     36  C31 UNL     1      10.421  -2.401   4.238 +0.00 +0.00    +0.305 C  
DOCKED: ATOM     37  O11 UNL     1      10.945  -2.015   3.203 +0.00 -0.00    -0.251 OA 
DOCKED: BRANCH  36  38
DOCKED: ATOM     38  O12 UNL     1      10.462  -3.686   4.622 +0.00 -0.00    -0.481 OA 
DOCKED: ATOM     39  H52 UNL     1      10.801  -4.177   3.844 +0.00 +0.00    +0.295 HD 
DOCKED: ENDBRANCH  36  38
DOCKED: ENDBRANCH  35  36
DOCKED: ENDBRANCH  34  35
DOCKED: ENDBRANCH  17  34
DOCKED: ENDBRANCH  15  17
DOCKED: ENDBRANCH  11  13
DOCKED: ENDBRANCH   9  11
DOCKED: ENDBRANCH   6   7
DOCKED: BRANCH   6  40
DOCKED: ATOM     40  C42 UNL     1       8.598  -8.786   3.285 +0.00 +0.00    +0.012 C  
DOCKED: ATOM     41  C43 UNL     1       9.430  -9.643   2.326 +0.00 +0.00    +0.009 C  
DOCKED: ATOM     42  C44 UNL     1       7.416  -9.600   3.819 +0.00 +0.00    +0.009 C  
DOCKED: ENDBRANCH   6  40
DOCKED: ENDBRANCH   4   6
DOCKED: ENDBRANCH   1   2
DOCKED: BRANCH   1  43
DOCKED: ATOM     43  C20 UNL     1      11.319  -7.294  -0.717 +0.00 +0.00    +0.143 C  
DOCKED: BRANCH  43  44
DOCKED: ATOM     44  O7  UNL     1      11.191  -8.584  -0.087 +0.00 -0.00    -0.389 OA 
DOCKED: ATOM     45  H36 UNL     1      12.095  -8.961  -0.100 +0.00 +0.00    +0.210 HD 
DOCKED: ENDBRANCH  43  44
DOCKED: BRANCH  43  46
DOCKED: ATOM     46  C5  UNL     1      12.537  -6.495  -0.153 +0.00 +0.00    +0.102 C  
DOCKED: BRANCH  46  47
DOCKED: ATOM     47  N1  UNL     1      12.743  -6.718   1.268 +0.00 -0.00    -0.308 N  
DOCKED: ATOM     48  C6  UNL     1      13.271  -7.906   1.729 +0.00 +0.00    +0.234 C  
DOCKED: ATOM     49  O1  UNL     1      13.606  -8.826   0.981 +0.00 -0.00    -0.274 OA 
DOCKED: ATOM     50  H11 UNL     1      12.777  -5.907   1.867 +0.00 +0.00    +0.149 HD 
DOCKED: BRANCH  48  51
DOCKED: ATOM     51  C7  UNL     1      13.391  -7.988   3.264 +0.00 +0.00    +0.168 C  
DOCKED: BRANCH  51  52
DOCKED: ATOM     52  N3  UNL     1      14.178  -6.856   3.746 +0.00 -0.00    -0.302 N  
DOCKED: ATOM     53  C10 UNL     1      15.516  -6.782   3.412 +0.00 +0.00    +0.234 C  
DOCKED: ATOM     54  O3  UNL     1      16.136  -7.749   2.964 +0.00 -0.00    -0.274 OA 
DOCKED: ATOM     55  H17 UNL     1      13.657  -5.981   3.808 +0.00 +0.00    +0.150 HD 
DOCKED: BRANCH  53  56
DOCKED: ATOM     56  C11 UNL     1      16.195  -5.405   3.628 +0.00 +0.00    +0.161 C  
DOCKED: BRANCH  56  57
DOCKED: ATOM     57  N4  UNL     1      15.140  -4.393   3.495 +0.00 -0.00    -0.302 N  
DOCKED: ATOM     58  C12 UNL     1      15.093  -3.516   2.433 +0.00 +0.00    +0.230 C  
DOCKED: ATOM     59  O4  UNL     1      16.013  -3.371   1.633 +0.00 -0.00    -0.274 OA 
DOCKED: ATOM     60  H19 UNL     1      14.239  -4.702   3.838 +0.00 +0.00    +0.150 HD 
DOCKED: BRANCH  58  61
DOCKED: ATOM     61  C13 UNL     1      13.762  -2.738   2.313 +0.00 +0.00    +0.138 C  
DOCKED: BRANCH  61  62
DOCKED: ATOM     62  N5  UNL     1      12.639  -3.690   2.268 +0.00 -0.00    -0.320 NA 
DOCKED: ATOM     63  H21 UNL     1      12.974  -4.600   2.593 +0.00 +0.00    +0.119 HD 
DOCKED: ATOM     64  H22 UNL     1      11.909  -3.421   2.931 +0.00 +0.00    +0.119 HD 
DOCKED: ENDBRANCH  61  62
DOCKED: BRANCH  61  65
DOCKED: ATOM     65  C14 UNL     1      13.610  -1.710   3.449 +0.00 +0.00    +0.039 C  
DOCKED: BRANCH  65  66
DOCKED: ATOM     66  C15 UNL     1      14.183  -2.188   4.784 +0.00 +0.00    +0.122 C  
DOCKED: BRANCH  66  67
DOCKED: ATOM     67  C16 UNL     1      13.254  -3.134   5.496 +0.00 +0.00    +0.305 C  
DOCKED: ATOM     68  O5  UNL     1      12.809  -3.016   6.627 +0.00 -0.00    -0.251 OA 
DOCKED: BRANCH  67  69
DOCKED: ATOM     69  O6  UNL     1      12.867  -4.160   4.711 +0.00 -0.00    -0.481 OA 
DOCKED: ATOM     70  H27 UNL     1      12.088  -3.805   4.235 +0.00 +0.00    +0.295 HD 
DOCKED: ENDBRANCH  67  69
DOCKED: ENDBRANCH  66  67
DOCKED: ENDBRANCH  65  66
DOCKED: ENDBRANCH  61  65
DOCKED: ENDBRANCH  58  61
DOCKED: ENDBRANCH  56  57
DOCKED: BRANCH  56  71
DOCKED: ATOM     71  C17 UNL     1      16.900  -5.280   4.998 +0.00 +0.00    +0.012 C  
DOCKED: ATOM     72  C18 UNL     1      16.025  -5.731   6.173 +0.00 +0.00    +0.009 C  
DOCKED: ATOM     73  C19 UNL     1      17.371  -3.839   5.230 +0.00 +0.00    +0.009 C  
DOCKED: ENDBRANCH  56  71
DOCKED: ENDBRANCH  53  56
DOCKED: ENDBRANCH  51  52
DOCKED: BRANCH  51  74
DOCKED: ATOM     74  C8  UNL     1      12.000  -8.085   3.888 +0.00 +0.00    +0.127 C  
DOCKED: BRANCH  74  75
DOCKED: ATOM     75  C9  UNL     1      11.376  -6.723   4.110 +0.00 +0.00    +0.213 C  
DOCKED: ATOM     76  N2  UNL     1      10.621  -6.605   5.241 +0.00 -0.00    -0.329 N  
DOCKED: ATOM     77  O2  UNL     1      11.592  -5.751   3.394 +0.00 -0.00    -0.276 OA 
DOCKED: ATOM     78  H15 UNL     1      10.192  -7.422   5.673 +0.00 +0.00    +0.145 HD 
DOCKED: ATOM     79  H16 UNL     1      10.121  -5.732   5.339 +0.00 +0.00    +0.145 HD 
DOCKED: ENDBRANCH  74  75
DOCKED: ENDBRANCH  51  74
DOCKED: ENDBRANCH  48  51
DOCKED: ENDBRANCH  46  47
DOCKED: BRANCH  46  80
DOCKED: ATOM     80  C4  UNL     1      13.817  -6.831  -0.939 +0.00 +0.00    +0.028 C  
DOCKED: BRANCH  80  82
DOCKED: ATOM     81  C1  UNL     1      14.192  -4.356  -0.702 +0.00 +0.00    +0.007 C  
DOCKED: ATOM     82  C2  UNL     1      14.869  -5.700  -0.977 +0.00 -0.00    -0.015 C  
DOCKED: ATOM     83  C3  UNL     1      16.005  -5.916   0.023 +0.00 +0.00    +0.007 C  
DOCKED: ENDBRANCH  80  82
DOCKED: ENDBRANCH  46  80
DOCKED: ENDBRANCH  43  46
DOCKED: ENDBRANCH   1  43
DOCKED: TORSDOF 36
DOCKED: TER
DOCKED: ENDMDL
________________________________________________________________________________


    FINAL DOCKED STATE:
    ________________________


Run:   19 / 20
Time taken for this run:   7.704s

DOCKED: MODEL        19
DOCKED: USER    Run = 19
DOCKED: USER
DOCKED: USER    Estimated Free Energy of Binding    = +10.74 kcal/mol  [=(1)+(2)+(3)-(4)]
DOCKED: USER
DOCKED: USER    (1) Final Intermolecular Energy     =  +0.00 kcal/mol
DOCKED: USER        vdW + Hbond + desolv Energy     =  +0.00 kcal/mol
DOCKED: USER        Electrostatic Energy            =  +0.00 kcal/mol
DOCKED: USER        Moving Ligand-Fixed Receptor    =  +0.00 kcal/mol
DOCKED: USER        Moving Ligand-Moving Receptor   =  +0.00 kcal/mol
DOCKED: USER    (2) Final Total Internal Energy     = -32.55 kcal/mol
DOCKED: USER    (3) Torsional Free Energy           = +10.74 kcal/mol
DOCKED: USER    (4) Unbound System's Energy         = -32.55 kcal/mol
DOCKED: USER
DOCKED: USER
DOCKED: REMARK  Name = ligands/ligand_15.pdb
DOCKED: REMARK  43 active torsions:
DOCKED: REMARK  status: ('A' for Active; 'I' for Inactive)
DOCKED: REMARK    1  A    between atoms: C1_1  and  C2_2
DOCKED: REMARK    2  A    between atoms: C2_2  and  C3_3
DOCKED: REMARK    3  A    between atoms: C2_2  and  C4_4
DOCKED: REMARK    4  A    between atoms: C4_4  and  C5_5
DOCKED: REMARK    5  A    between atoms: C5_5  and  N1_6
DOCKED: REMARK    6  A    between atoms: C5_5  and  C20_31
DOCKED: REMARK    7  A    between atoms: C6_7  and  C7_9
DOCKED: REMARK    8  A    between atoms: C7_9  and  C8_10
DOCKED: REMARK    9  A    between atoms: C7_9  and  N3_14
DOCKED: REMARK   10  A    between atoms: C8_10  and  C9_11
DOCKED: REMARK   11  A    between atoms: C10_15  and  C11_17
DOCKED: REMARK   12  A    between atoms: C11_17  and  N4_18
DOCKED: REMARK   13  A    between atoms: C11_17  and  C17_28
DOCKED: REMARK   14  A    between atoms: C12_19  and  C13_21
DOCKED: REMARK   15  A    between atoms: C13_21  and  N5_22
DOCKED: REMARK   16  A    between atoms: C13_21  and  C14_23
DOCKED: REMARK   17  A    between atoms: C14_23  and  C15_24
DOCKED: REMARK   18  A    between atoms: C15_24  and  C16_25
DOCKED: REMARK   19  A    between atoms: C16_25  and  O6_27
DOCKED: REMARK   20  A    between atoms: C17_28  and  C18_29
DOCKED: REMARK   21  A    between atoms: C17_28  and  C19_30
DOCKED: REMARK   22  A    between atoms: C20_31  and  O7_32
DOCKED: REMARK   23  A    between atoms: C20_31  and  C21_33
DOCKED: REMARK   24  A    between atoms: C21_33  and  C22_34
DOCKED: REMARK   25  A    between atoms: N6_36  and  C23_37
DOCKED: REMARK   26  A    between atoms: C23_37  and  C24_38
DOCKED: REMARK   27  A    between atoms: C23_37  and  C42_66
DOCKED: REMARK   28  A    between atoms: N7_40  and  C25_41
DOCKED: REMARK   29  A    between atoms: C25_41  and  C26_42
DOCKED: REMARK   30  A    between atoms: C25_41  and  C27_43
DOCKED: REMARK   31  A    between atoms: N8_45  and  C28_46
DOCKED: REMARK   32  A    between atoms: C28_46  and  C29_47
DOCKED: REMARK   33  A    between atoms: C28_46  and  C32_52
DOCKED: REMARK   34  A    between atoms: C29_47  and  C30_48
DOCKED: REMARK   35  A    between atoms: C30_48  and  C31_49
DOCKED: REMARK   36  A    between atoms: C31_49  and  O12_51
DOCKED: REMARK   37  A    between atoms: N9_54  and  C33_55
DOCKED: REMARK   38  A    between atoms: C33_55  and  C34_56
DOCKED: REMARK   39  A    between atoms: C33_55  and  C41_63
DOCKED: REMARK   40  A    between atoms: C34_56  and  C35_57
DOCKED: REMARK   41  A    between atoms: C41_63  and  O15_65
DOCKED: REMARK   42  A    between atoms: C42_66  and  C43_67
DOCKED: REMARK   43  A    between atoms: C42_66  and  C44_68
DOCKED: REMARK                            x       y       z     vdW  Elec       q    Type
DOCKED: REMARK                         _______ _______ _______ _____ _____    ______ ____
DOCKED: USER                              x       y       z     vdW  Elec       q    Type
DOCKED: USER                           _______ _______ _______ _____ _____    ______ ____
DOCKED: ROOT
DOCKED: ATOM      1  C21 UNL     1       9.969   1.889   0.589 +0.00 +0.00    +0.129 C  
DOCKED: ENDROOT
DOCKED: BRANCH   1   2
DOCKED: ATOM      2  C22 UNL     1       9.586   0.577   1.235 +0.00 +0.00    +0.216 C  
DOCKED: ATOM      3  O8  UNL     1       8.877   0.505   2.236 +0.00 -0.00    -0.276 OA 
DOCKED: ATOM      4  N6  UNL     1      10.095  -0.510   0.576 +0.00 -0.00    -0.304 N  
DOCKED: ATOM      5  H39 UNL     1      10.720  -0.370  -0.218 +0.00 +0.00    +0.149 HD 
DOCKED: BRANCH   4   6
DOCKED: ATOM      6  C23 UNL     1      10.056  -1.877   1.100 +0.00 +0.00    +0.161 C  
DOCKED: BRANCH   6   7
DOCKED: ATOM      7  C24 UNL     1      11.509  -2.385   0.967 +0.00 +0.00    +0.234 C  
DOCKED: ATOM      8  O9  UNL     1      12.397  -1.667   0.498 +0.00 -0.00    -0.274 OA 
DOCKED: ATOM      9  N7  UNL     1      11.758  -3.662   1.402 +0.00 -0.00    -0.303 N  
DOCKED: ATOM     10  H41 UNL     1      10.994  -4.271   1.673 +0.00 +0.00    +0.149 HD 
DOCKED: BRANCH   9  11
DOCKED: ATOM     11  C25 UNL     1      13.056  -4.298   1.210 +0.00 +0.00    +0.156 C  
DOCKED: ATOM     12  C26 UNL     1      13.102  -5.654   1.902 +0.00 +0.00    +0.038 C  
DOCKED: BRANCH  11  13
DOCKED: ATOM     13  C27 UNL     1      13.315  -4.446  -0.298 +0.00 +0.00    +0.234 C  
DOCKED: ATOM     14  O10 UNL     1      13.061  -5.483  -0.912 +0.00 -0.00    -0.274 OA 
DOCKED: ATOM     15  N8  UNL     1      13.870  -3.338  -0.892 +0.00 -0.00    -0.302 N  
DOCKED: ATOM     16  H46 UNL     1      14.088  -2.508  -0.345 +0.00 +0.00    +0.150 HD 
DOCKED: BRANCH  15  17
DOCKED: ATOM     17  C28 UNL     1      14.181  -3.274  -2.320 +0.00 +0.00    +0.159 C  
DOCKED: BRANCH  17  18
DOCKED: ATOM     18  C32 UNL     1      15.178  -2.110  -2.484 +0.00 +0.00    +0.234 C  
DOCKED: ATOM     19  O13 UNL     1      16.148  -2.193  -3.244 +0.00 -0.00    -0.274 OA 
DOCKED: ATOM     20  N9  UNL     1      14.926  -0.996  -1.720 +0.00 -0.00    -0.301 N  
DOCKED: ATOM     21  H53 UNL     1      14.033  -0.911  -1.230 +0.00 +0.00    +0.150 HD 
DOCKED: BRANCH  20  22
DOCKED: ATOM     22  C33 UNL     1      15.753   0.213  -1.830 +0.00 +0.00    +0.186 C  
DOCKED: BRANCH  22  23
DOCKED: ATOM     23  C41 UNL     1      15.217   1.233  -0.831 +0.00 +0.00    +0.326 C  
DOCKED: ATOM     24  O14 UNL     1      15.888   1.955  -0.107 +0.00 -0.00    -0.249 OA 
DOCKED: BRANCH  23  25
DOCKED: ATOM     25  O15 UNL     1      13.872   1.294  -0.788 +0.00 -0.00    -0.479 OA 
DOCKED: ATOM     26  H62 UNL     1      13.613   0.702  -0.050 +0.00 +0.00    +0.295 HD 
DOCKED: ENDBRANCH  23  25
DOCKED: ENDBRANCH  22  23
DOCKED: BRANCH  22  27
DOCKED: ATOM     27  C34 UNL     1      15.697   0.778  -3.256 +0.00 +0.00    +0.069 C  
DOCKED: BRANCH  27  28
DOCKED: ATOM     28  C35 UNL     1      14.683   1.884  -3.426 +0.00 -0.00    -0.045 A  
DOCKED: ATOM     29  C36 UNL     1      13.341   1.569  -3.685 +0.00 +0.00    +0.004 A  
DOCKED: ATOM     30  C37 UNL     1      12.392   2.579  -3.831 +0.00 +0.00    +0.000 A  
DOCKED: ATOM     31  C38 UNL     1      12.772   3.915  -3.721 +0.00 +0.00    +0.000 A  
DOCKED: ATOM     32  C39 UNL     1      14.105   4.240  -3.471 +0.00 +0.00    +0.000 A  
DOCKED: ATOM     33  C40 UNL     1      15.057   3.230  -3.325 +0.00 +0.00    +0.004 A  
DOCKED: ENDBRANCH  27  28
DOCKED: ENDBRANCH  22  27
DOCKED: ENDBRANCH  20  22
DOCKED: ENDBRANCH  17  18
DOCKED: BRANCH  17  34
DOCKED: ATOM     34  C29 UNL     1      12.889  -3.068  -3.133 +0.00 +0.00    +0.043 C  
DOCKED: BRANCH  34  35
DOCKED: ATOM     35  C30 UNL     1      12.451  -1.622  -3.353 +0.00 +0.00    +0.123 C  
DOCKED: BRANCH  35  36
DOCKED: ATOM     36  C31 UNL     1      11.609  -1.116  -2.218 +0.00 +0.00    +0.305 C  
DOCKED: ATOM     37  O11 UNL     1      10.531  -1.592  -1.892 +0.00 -0.00    -0.251 OA 
DOCKED: BRANCH  36  38
DOCKED: ATOM     38  O12 UNL     1      12.181  -0.113  -1.534 +0.00 -0.00    -0.481 OA 
DOCKED: ATOM     39  H52 UNL     1      12.637  -0.542  -0.779 +0.00 +0.00    +0.295 HD 
DOCKED: ENDBRANCH  36  38
DOCKED: ENDBRANCH  35  36
DOCKED: ENDBRANCH  34  35
DOCKED: ENDBRANCH  17  34
DOCKED: ENDBRANCH  15  17
DOCKED: ENDBRANCH  11  13
DOCKED: ENDBRANCH   9  11
DOCKED: ENDBRANCH   6   7
DOCKED: BRANCH   6  40
DOCKED: ATOM     40  C42 UNL     1       8.998  -2.723   0.357 +0.00 +0.00    +0.012 C  
DOCKED: ATOM     41  C43 UNL     1       7.847  -1.876  -0.193 +0.00 +0.00    +0.009 C  
DOCKED: ATOM     42  C44 UNL     1       8.443  -3.868   1.207 +0.00 +0.00    +0.009 C  
DOCKED: ENDBRANCH   6  40
DOCKED: ENDBRANCH   4   6
DOCKED: ENDBRANCH   1   2
DOCKED: BRANCH   1  43
DOCKED: ATOM     43  C20 UNL     1      11.473   2.157   0.724 +0.00 +0.00    +0.143 C  
DOCKED: BRANCH  43  44
DOCKED: ATOM     44  O7  UNL     1      12.180   0.905   0.832 +0.00 -0.00    -0.389 OA 
DOCKED: ATOM     45  H36 UNL     1      12.029   0.457  -0.027 +0.00 +0.00    +0.210 HD 
DOCKED: ENDBRANCH  43  44
DOCKED: BRANCH  43  46
DOCKED: ATOM     46  C5  UNL     1      11.744   3.080   1.955 +0.00 +0.00    +0.102 C  
DOCKED: BRANCH  46  47
DOCKED: ATOM     47  N1  UNL     1      12.060   2.329   3.159 +0.00 -0.00    -0.308 N  
DOCKED: ATOM     48  C6  UNL     1      12.023   2.933   4.399 +0.00 +0.00    +0.234 C  
DOCKED: ATOM     49  O1  UNL     1      11.716   4.114   4.561 +0.00 -0.00    -0.274 OA 
DOCKED: ATOM     50  H11 UNL     1      12.011   1.323   3.107 +0.00 +0.00    +0.149 HD 
DOCKED: BRANCH  48  51
DOCKED: ATOM     51  C7  UNL     1      12.418   2.002   5.563 +0.00 +0.00    +0.168 C  
DOCKED: BRANCH  51  52
DOCKED: ATOM     52  N3  UNL     1      12.742   0.680   5.033 +0.00 -0.00    -0.302 N  
DOCKED: ATOM     53  C10 UNL     1      11.728  -0.246   4.882 +0.00 +0.00    +0.234 C  
DOCKED: ATOM     54  O3  UNL     1      10.628  -0.110   5.422 +0.00 -0.00    -0.274 OA 
DOCKED: ATOM     55  H17 UNL     1      13.489   0.680   4.338 +0.00 +0.00    +0.150 HD 
DOCKED: BRANCH  53  56
DOCKED: ATOM     56  C11 UNL     1      12.054  -1.470   3.988 +0.00 +0.00    +0.161 C  
DOCKED: BRANCH  56  57
DOCKED: ATOM     57  N4  UNL     1      13.198  -1.085   3.152 +0.00 -0.00    -0.302 N  
DOCKED: ATOM     58  C12 UNL     1      14.288  -1.909   2.973 +0.00 +0.00    +0.230 C  
DOCKED: ATOM     59  O4  UNL     1      14.488  -2.922   3.638 +0.00 -0.00    -0.274 OA 
DOCKED: ATOM     60  H19 UNL     1      12.939  -0.532   2.344 +0.00 +0.00    +0.150 HD 
DOCKED: BRANCH  58  61
DOCKED: ATOM     61  C13 UNL     1      15.239  -1.464   1.837 +0.00 +0.00    +0.138 C  
DOCKED: BRANCH  61  62
DOCKED: ATOM     62  N5  UNL     1      14.477  -0.709   0.828 +0.00 -0.00    -0.320 NA 
DOCKED: ATOM     63  H21 UNL     1      13.510  -0.627   1.148 +0.00 +0.00    +0.119 HD 
DOCKED: ATOM     64  H22 UNL     1      14.819   0.251   0.760 +0.00 +0.00    +0.119 HD 
DOCKED: ENDBRANCH  61  62
DOCKED: BRANCH  61  65
DOCKED: ATOM     65  C14 UNL     1      16.432  -0.662   2.388 +0.00 +0.00    +0.039 C  
DOCKED: BRANCH  65  66
DOCKED: ATOM     66  C15 UNL     1      16.028   0.422   3.388 +0.00 +0.00    +0.122 C  
DOCKED: BRANCH  66  67
DOCKED: ATOM     67  C16 UNL     1      15.325   1.575   2.725 +0.00 +0.00    +0.305 C  
DOCKED: ATOM     68  O5  UNL     1      15.759   2.703   2.556 +0.00 -0.00    -0.251 OA 
DOCKED: BRANCH  67  69
DOCKED: ATOM     69  O6  UNL     1      14.118   1.225   2.233 +0.00 -0.00    -0.481 OA 
DOCKED: ATOM     70  H27 UNL     1      14.201   1.398   1.273 +0.00 +0.00    +0.295 HD 
DOCKED: ENDBRANCH  67  69
DOCKED: ENDBRANCH  66  67
DOCKED: ENDBRANCH  65  66
DOCKED: ENDBRANCH  61  65
DOCKED: ENDBRANCH  58  61
DOCKED: ENDBRANCH  56  57
DOCKED: BRANCH  56  71
DOCKED: ATOM     71  C17 UNL     1      12.375  -2.749   4.794 +0.00 +0.00    +0.012 C  
DOCKED: ATOM     72  C18 UNL     1      11.236  -3.774   4.782 +0.00 +0.00    +0.009 C  
DOCKED: ATOM     73  C19 UNL     1      12.734  -2.395   6.242 +0.00 +0.00    +0.009 C  
DOCKED: ENDBRANCH  56  71
DOCKED: ENDBRANCH  53  56
DOCKED: ENDBRANCH  51  52
DOCKED: BRANCH  51  74
DOCKED: ATOM     74  C8  UNL     1      13.546   2.636   6.375 +0.00 +0.00    +0.127 C  
DOCKED: BRANCH  74  75
DOCKED: ATOM     75  C9  UNL     1      14.779   2.895   5.536 +0.00 +0.00    +0.213 C  
DOCKED: ATOM     76  N2  UNL     1      14.737   4.026   4.771 +0.00 -0.00    -0.329 N  
DOCKED: ATOM     77  O2  UNL     1      15.795   2.210   5.588 +0.00 -0.00    -0.276 OA 
DOCKED: ATOM     78  H15 UNL     1      13.848   4.431   4.483 +0.00 +0.00    +0.145 HD 
DOCKED: ATOM     79  H16 UNL     1      15.513   4.147   4.135 +0.00 +0.00    +0.145 HD 
DOCKED: ENDBRANCH  74  75
DOCKED: ENDBRANCH  51  74
DOCKED: ENDBRANCH  48  51
DOCKED: ENDBRANCH  46  47
DOCKED: BRANCH  46  80
DOCKED: ATOM     80  C4  UNL     1      12.865   4.086   1.641 +0.00 +0.00    +0.028 C  
DOCKED: BRANCH  80  82
DOCKED: ATOM     81  C1  UNL     1      12.302   5.097  -0.591 +0.00 +0.00    +0.007 C  
DOCKED: ATOM     82  C2  UNL     1      13.265   4.167   0.151 +0.00 -0.00    -0.015 C  
DOCKED: ATOM     83  C3  UNL     1      14.701   4.650  -0.050 +0.00 +0.00    +0.007 C  
DOCKED: ENDBRANCH  80  82
DOCKED: ENDBRANCH  46  80
DOCKED: ENDBRANCH  43  46
DOCKED: ENDBRANCH   1  43
DOCKED: TORSDOF 36
DOCKED: TER
DOCKED: ENDMDL
________________________________________________________________________________


    FINAL DOCKED STATE:
    ________________________


Run:   20 / 20
Time taken for this run:   7.704s

DOCKED: MODEL        20
DOCKED: USER    Run = 20
DOCKED: USER
DOCKED: USER    Estimated Free Energy of Binding    = +10.74 kcal/mol  [=(1)+(2)+(3)-(4)]
DOCKED: USER
DOCKED: USER    (1) Final Intermolecular Energy     =  +0.00 kcal/mol
DOCKED: USER        vdW + Hbond + desolv Energy     =  +0.00 kcal/mol
DOCKED: USER        Electrostatic Energy            =  +0.00 kcal/mol
DOCKED: USER        Moving Ligand-Fixed Receptor    =  +0.00 kcal/mol
DOCKED: USER        Moving Ligand-Moving Receptor   =  +0.00 kcal/mol
DOCKED: USER    (2) Final Total Internal Energy     = -31.22 kcal/mol
DOCKED: USER    (3) Torsional Free Energy           = +10.74 kcal/mol
DOCKED: USER    (4) Unbound System's Energy         = -31.22 kcal/mol
DOCKED: USER
DOCKED: USER
DOCKED: REMARK  Name = ligands/ligand_15.pdb
DOCKED: REMARK  43 active torsions:
DOCKED: REMARK  status: ('A' for Active; 'I' for Inactive)
DOCKED: REMARK    1  A    between atoms: C1_1  and  C2_2
DOCKED: REMARK    2  A    between atoms: C2_2  and  C3_3
DOCKED: REMARK    3  A    between atoms: C2_2  and  C4_4
DOCKED: REMARK    4  A    between atoms: C4_4  and  C5_5
DOCKED: REMARK    5  A    between atoms: C5_5  and  N1_6
DOCKED: REMARK    6  A    between atoms: C5_5  and  C20_31
DOCKED: REMARK    7  A    between atoms: C6_7  and  C7_9
DOCKED: REMARK    8  A    between atoms: C7_9  and  C8_10
DOCKED: REMARK    9  A    between atoms: C7_9  and  N3_14
DOCKED: REMARK   10  A    between atoms: C8_10  and  C9_11
DOCKED: REMARK   11  A    between atoms: C10_15  and  C11_17
DOCKED: REMARK   12  A    between atoms: C11_17  and  N4_18
DOCKED: REMARK   13  A    between atoms: C11_17  and  C17_28
DOCKED: REMARK   14  A    between atoms: C12_19  and  C13_21
DOCKED: REMARK   15  A    between atoms: C13_21  and  N5_22
DOCKED: REMARK   16  A    between atoms: C13_21  and  C14_23
DOCKED: REMARK   17  A    between atoms: C14_23  and  C15_24
DOCKED: REMARK   18  A    between atoms: C15_24  and  C16_25
DOCKED: REMARK   19  A    between atoms: C16_25  and  O6_27
DOCKED: REMARK   20  A    between atoms: C17_28  and  C18_29
DOCKED: REMARK   21  A    between atoms: C17_28  and  C19_30
DOCKED: REMARK   22  A    between atoms: C20_31  and  O7_32
DOCKED: REMARK   23  A    between atoms: C20_31  and  C21_33
DOCKED: REMARK   24  A    between atoms: C21_33  and  C22_34
DOCKED: REMARK   25  A    between atoms: N6_36  and  C23_37
DOCKED: REMARK   26  A    between atoms: C23_37  and  C24_38
DOCKED: REMARK   27  A    between atoms: C23_37  and  C42_66
DOCKED: REMARK   28  A    between atoms: N7_40  and  C25_41
DOCKED: REMARK   29  A    between atoms: C25_41  and  C26_42
DOCKED: REMARK   30  A    between atoms: C25_41  and  C27_43
DOCKED: REMARK   31  A    between atoms: N8_45  and  C28_46
DOCKED: REMARK   32  A    between atoms: C28_46  and  C29_47
DOCKED: REMARK   33  A    between atoms: C28_46  and  C32_52
DOCKED: REMARK   34  A    between atoms: C29_47  and  C30_48
DOCKED: REMARK   35  A    between atoms: C30_48  and  C31_49
DOCKED: REMARK   36  A    between atoms: C31_49  and  O12_51
DOCKED: REMARK   37  A    between atoms: N9_54  and  C33_55
DOCKED: REMARK   38  A    between atoms: C33_55  and  C34_56
DOCKED: REMARK   39  A    between atoms: C33_55  and  C41_63
DOCKED: REMARK   40  A    between atoms: C34_56  and  C35_57
DOCKED: REMARK   41  A    between atoms: C41_63  and  O15_65
DOCKED: REMARK   42  A    between atoms: C42_66  and  C43_67
DOCKED: REMARK   43  A    between atoms: C42_66  and  C44_68
DOCKED: REMARK                            x       y       z     vdW  Elec       q    Type
DOCKED: REMARK                         _______ _______ _______ _____ _____    ______ ____
DOCKED: USER                              x       y       z     vdW  Elec       q    Type
DOCKED: USER                           _______ _______ _______ _____ _____    ______ ____
DOCKED: ROOT
DOCKED: ATOM      1  C21 UNL     1       9.951  -4.298  -2.471 +0.00 +0.00    +0.129 C  
DOCKED: ENDROOT
DOCKED: BRANCH   1   2
DOCKED: ATOM      2  C22 UNL     1       9.789  -3.250  -3.548 +0.00 +0.00    +0.216 C  
DOCKED: ATOM      3  O8  UNL     1       8.704  -2.752  -3.842 +0.00 -0.00    -0.276 OA 
DOCKED: ATOM      4  N6  UNL     1      10.976  -2.904  -4.139 +0.00 -0.00    -0.304 N  
DOCKED: ATOM      5  H39 UNL     1      11.829  -3.399  -3.879 +0.00 +0.00    +0.149 HD 
DOCKED: BRANCH   4   6
DOCKED: ATOM      6  C23 UNL     1      11.080  -2.078  -5.343 +0.00 +0.00    +0.161 C  
DOCKED: BRANCH   6   7
DOCKED: ATOM      7  C24 UNL     1      10.539  -2.975  -6.478 +0.00 +0.00    +0.234 C  
DOCKED: ATOM      8  O9  UNL     1      11.194  -3.172  -7.505 +0.00 -0.00    -0.274 OA 
DOCKED: ATOM      9  N7  UNL     1       9.306  -3.542  -6.279 +0.00 -0.00    -0.303 N  
DOCKED: ATOM     10  H41 UNL     1       8.739  -3.274  -5.483 +0.00 +0.00    +0.149 HD 
DOCKED: BRANCH   9  11
DOCKED: ATOM     11  C25 UNL     1       8.634  -4.302  -7.327 +0.00 +0.00    +0.156 C  
DOCKED: ATOM     12  C26 UNL     1       8.853  -5.797  -7.137 +0.00 +0.00    +0.038 C  
DOCKED: BRANCH  11  13
DOCKED: ATOM     13  C27 UNL     1       7.136  -3.962  -7.298 +0.00 +0.00    +0.234 C  
DOCKED: ATOM     14  O10 UNL     1       6.439  -3.963  -8.314 +0.00 -0.00    -0.274 OA 
DOCKED: ATOM     15  N8  UNL     1       6.649  -3.639  -6.054 +0.00 -0.00    -0.302 N  
DOCKED: ATOM     16  H46 UNL     1       7.262  -3.625  -5.242 +0.00 +0.00    +0.150 HD 
DOCKED: BRANCH  15  17
DOCKED: ATOM     17  C28 UNL     1       5.247  -3.295  -5.813 +0.00 +0.00    +0.159 C  
DOCKED: BRANCH  17  18
DOCKED: ATOM     18  C32 UNL     1       5.258  -1.885  -5.193 +0.00 +0.00    +0.234 C  
DOCKED: ATOM     19  O13 UNL     1       4.235  -1.196  -5.137 +0.00 -0.00    -0.274 OA 
DOCKED: ATOM     20  N9  UNL     1       6.474  -1.446  -4.728 +0.00 -0.00    -0.301 N  
DOCKED: ATOM     21  H53 UNL     1       7.253  -2.103  -4.650 +0.00 +0.00    +0.150 HD 
DOCKED: BRANCH  20  22
DOCKED: ATOM     22  C33 UNL     1       6.615  -0.151  -4.048 +0.00 +0.00    +0.186 C  
DOCKED: BRANCH  22  23
DOCKED: ATOM     23  C41 UNL     1       7.951  -0.157  -3.313 +0.00 +0.00    +0.326 C  
DOCKED: ATOM     24  O14 UNL     1       8.969   0.425  -3.660 +0.00 -0.00    -0.249 OA 
DOCKED: BRANCH  23  25
DOCKED: ATOM     25  O15 UNL     1       7.944  -0.892  -2.184 +0.00 -0.00    -0.479 OA 
DOCKED: ATOM     26  H62 UNL     1       7.796  -1.815  -2.481 +0.00 +0.00    +0.295 HD 
DOCKED: ENDBRANCH  23  25
DOCKED: ENDBRANCH  22  23
DOCKED: BRANCH  22  27
DOCKED: ATOM     27  C34 UNL     1       5.460   0.069  -3.062 +0.00 +0.00    +0.069 C  
DOCKED: BRANCH  27  28
DOCKED: ATOM     28  C35 UNL     1       5.293   1.510  -2.644 +0.00 -0.00    -0.045 A  
DOCKED: ATOM     29  C36 UNL     1       6.141   2.495  -3.172 +0.00 +0.00    +0.004 A  
DOCKED: ATOM     30  C37 UNL     1       5.989   3.832  -2.804 +0.00 +0.00    +0.000 A  
DOCKED: ATOM     31  C38 UNL     1       4.990   4.199  -1.906 +0.00 +0.00    +0.000 A  
DOCKED: ATOM     32  C39 UNL     1       4.147   3.228  -1.369 +0.00 +0.00    +0.000 A  
DOCKED: ATOM     33  C40 UNL     1       4.297   1.889  -1.735 +0.00 +0.00    +0.004 A  
DOCKED: ENDBRANCH  27  28
DOCKED: ENDBRANCH  22  27
DOCKED: ENDBRANCH  20  22
DOCKED: ENDBRANCH  17  18
DOCKED: BRANCH  17  34
DOCKED: ATOM     34  C29 UNL     1       4.599  -4.345  -4.891 +0.00 +0.00    +0.043 C  
DOCKED: BRANCH  34  35
DOCKED: ATOM     35  C30 UNL     1       5.554  -5.266  -4.136 +0.00 +0.00    +0.123 C  
DOCKED: BRANCH  35  36
DOCKED: ATOM     36  C31 UNL     1       6.257  -4.546  -3.022 +0.00 +0.00    +0.305 C  
DOCKED: ATOM     37  O11 UNL     1       6.721  -5.092  -2.031 +0.00 -0.00    -0.251 OA 
DOCKED: BRANCH  36  38
DOCKED: ATOM     38  O12 UNL     1       6.392  -3.228  -3.238 +0.00 -0.00    -0.481 OA 
DOCKED: ATOM     39  H52 UNL     1       6.976  -2.907  -2.518 +0.00 +0.00    +0.295 HD 
DOCKED: ENDBRANCH  36  38
DOCKED: ENDBRANCH  35  36
DOCKED: ENDBRANCH  34  35
DOCKED: ENDBRANCH  17  34
DOCKED: ENDBRANCH  15  17
DOCKED: ENDBRANCH  11  13
DOCKED: ENDBRANCH   9  11
DOCKED: ENDBRANCH   6   7
DOCKED: BRANCH   6  40
DOCKED: ATOM     40  C42 UNL     1      12.528  -1.575  -5.542 +0.00 +0.00    +0.012 C  
DOCKED: ATOM     41  C43 UNL     1      13.417  -1.840  -4.323 +0.00 +0.00    +0.009 C  
DOCKED: ATOM     42  C44 UNL     1      12.600  -0.096  -5.928 +0.00 +0.00    +0.009 C  
DOCKED: ENDBRANCH   6  40
DOCKED: ENDBRANCH   4   6
DOCKED: ENDBRANCH   1   2
DOCKED: BRANCH   1  43
DOCKED: ATOM     43  C20 UNL     1       9.761  -3.693  -1.074 +0.00 +0.00    +0.143 C  
DOCKED: BRANCH  43  44
DOCKED: ATOM     44  O7  UNL     1       8.408  -3.218  -0.932 +0.00 -0.00    -0.389 OA 
DOCKED: ATOM     45  H36 UNL     1       8.038  -3.239  -1.840 +0.00 +0.00    +0.210 HD 
DOCKED: ENDBRANCH  43  44
DOCKED: BRANCH  43  46
DOCKED: ATOM     46  C5  UNL     1      10.801  -2.551  -0.839 +0.00 +0.00    +0.102 C  
DOCKED: BRANCH  46  47
DOCKED: ATOM     47  N1  UNL     1      10.189  -1.233  -0.815 +0.00 -0.00    -0.308 N  
DOCKED: ATOM     48  C6  UNL     1      10.764  -0.174  -1.485 +0.00 +0.00    +0.234 C  
DOCKED: ATOM     49  O1  UNL     1      11.802  -0.278  -2.141 +0.00 -0.00    -0.274 OA 
DOCKED: ATOM     50  H11 UNL     1       9.214  -1.178  -0.564 +0.00 +0.00    +0.149 HD 
DOCKED: BRANCH  48  51
DOCKED: ATOM     51  C7  UNL     1      10.004   1.158  -1.326 +0.00 +0.00    +0.168 C  
DOCKED: BRANCH  51  52
DOCKED: ATOM     52  N3  UNL     1       8.905   0.974  -0.382 +0.00 -0.00    -0.302 N  
DOCKED: ATOM     53  C10 UNL     1       7.969   1.981  -0.240 +0.00 +0.00    +0.234 C  
DOCKED: ATOM     54  O3  UNL     1       8.165   3.123  -0.661 +0.00 -0.00    -0.274 OA 
DOCKED: ATOM     55  H17 UNL     1       8.578   0.011  -0.304 +0.00 +0.00    +0.150 HD 
DOCKED: BRANCH  53  56
DOCKED: ATOM     56  C11 UNL     1       6.652   1.588   0.477 +0.00 +0.00    +0.161 C  
DOCKED: BRANCH  56  57
DOCKED: ATOM     57  N4  UNL     1       6.514   0.134   0.332 +0.00 -0.00    -0.302 N  
DOCKED: ATOM     58  C12 UNL     1       5.334  -0.524   0.608 +0.00 +0.00    +0.230 C  
DOCKED: ATOM     59  O4  UNL     1       4.383   0.003   1.178 +0.00 -0.00    -0.274 OA 
DOCKED: ATOM     60  H19 UNL     1       7.048  -0.247  -0.440 +0.00 +0.00    +0.150 HD 
DOCKED: BRANCH  58  61
DOCKED: ATOM     61  C13 UNL     1       5.295  -1.989   0.114 +0.00 +0.00    +0.138 C  
DOCKED: BRANCH  61  62
DOCKED: ATOM     62  N5  UNL     1       6.189  -2.139  -1.046 +0.00 -0.00    -0.320 NA 
DOCKED: ATOM     63  H21 UNL     1       7.040  -1.601  -0.870 +0.00 +0.00    +0.119 HD 
DOCKED: ATOM     64  H22 UNL     1       6.501  -3.108  -1.141 +0.00 +0.00    +0.119 HD 
DOCKED: ENDBRANCH  61  62
DOCKED: BRANCH  61  65
DOCKED: ATOM     65  C14 UNL     1       5.641  -2.971   1.248 +0.00 +0.00    +0.039 C  
DOCKED: BRANCH  65  66
DOCKED: ATOM     66  C15 UNL     1       6.637  -2.405   2.262 +0.00 +0.00    +0.122 C  
DOCKED: BRANCH  66  67
DOCKED: ATOM     67  C16 UNL     1       8.053  -2.448   1.755 +0.00 +0.00    +0.305 C  
DOCKED: ATOM     68  O5  UNL     1       8.914  -3.264   2.043 +0.00 -0.00    -0.251 OA 
DOCKED: BRANCH  67  69
DOCKED: ATOM     69  O6  UNL     1       8.298  -1.490   0.837 +0.00 -0.00    -0.481 OA 
DOCKED: ATOM     70  H27 UNL     1       8.072  -1.921  -0.012 +0.00 +0.00    +0.295 HD 
DOCKED: ENDBRANCH  67  69
DOCKED: ENDBRANCH  66  67
DOCKED: ENDBRANCH  65  66
DOCKED: ENDBRANCH  61  65
DOCKED: ENDBRANCH  58  61
DOCKED: ENDBRANCH  56  57
DOCKED: BRANCH  56  71
DOCKED: ATOM     71  C17 UNL     1       6.625   1.991   1.969 +0.00 +0.00    +0.012 C  
DOCKED: ATOM     72  C18 UNL     1       6.697   3.506   2.188 +0.00 +0.00    +0.009 C  
DOCKED: ATOM     73  C19 UNL     1       7.765   1.305   2.732 +0.00 +0.00    +0.009 C  
DOCKED: ENDBRANCH  56  71
DOCKED: ENDBRANCH  53  56
DOCKED: ENDBRANCH  51  52
DOCKED: BRANCH  51  74
DOCKED: ATOM     74  C8  UNL     1      10.977   2.268  -0.933 +0.00 +0.00    +0.127 C  
DOCKED: BRANCH  74  75
DOCKED: ATOM     75  C9  UNL     1      11.785   2.765  -2.114 +0.00 +0.00    +0.213 C  
DOCKED: ATOM     76  N2  UNL     1      11.443   2.228  -3.322 +0.00 -0.00    -0.329 N  
DOCKED: ATOM     77  O2  UNL     1      12.628   3.653  -2.037 +0.00 -0.00    -0.276 OA 
DOCKED: ATOM     78  H15 UNL     1      10.987   1.320  -3.381 +0.00 +0.00    +0.145 HD 
DOCKED: ATOM     79  H16 UNL     1      12.046   2.479  -4.093 +0.00 +0.00    +0.145 HD 
DOCKED: ENDBRANCH  74  75
DOCKED: ENDBRANCH  51  74
DOCKED: ENDBRANCH  48  51
DOCKED: ENDBRANCH  46  47
DOCKED: BRANCH  46  80
DOCKED: ATOM     80  C4  UNL     1      11.594  -2.799   0.456 +0.00 +0.00    +0.028 C  
DOCKED: BRANCH  80  82
DOCKED: ATOM     81  C1  UNL     1      13.648  -2.412  -0.941 +0.00 +0.00    +0.007 C  
DOCKED: ATOM     82  C2  UNL     1      13.035  -2.240   0.450 +0.00 -0.00    -0.015 C  
DOCKED: ATOM     83  C3  UNL     1      13.099  -0.769   0.862 +0.00 +0.00    +0.007 C  
DOCKED: ENDBRANCH  80  82
DOCKED: ENDBRANCH  46  80
DOCKED: ENDBRANCH  43  46
DOCKED: ENDBRANCH   1  43
DOCKED: TORSDOF 36
DOCKED: TER
DOCKED: ENDMDL
________________________________________________________________________________


    CLUSTERING HISTOGRAM
    ____________________


________________________________________________________________________________
     |           |     |           |     |
Clus | Lowest    | Run | Mean      | Num | Histogram
-ter | Binding   |     | Binding   | in  |
Rank | Energy    |     | Energy    | Clus|    5    10   15   20   25   30   35
_____|___________|_____|___________|_____|____:____|____:____|____:____|____:___
   1 |    +10.74 |   1 |    +10.74 |   1 |#
   2 |    +10.74 |   2 |    +10.74 |   1 |#
   3 |    +10.74 |   3 |    +10.74 |   1 |#
   4 |    +10.74 |   4 |    +10.74 |   1 |#
   5 |    +10.74 |   5 |    +10.74 |   1 |#
   6 |    +10.74 |   6 |    +10.74 |   1 |#
   7 |    +10.74 |   7 |    +10.74 |   1 |#
   8 |    +10.74 |   8 |    +10.74 |   1 |#
   9 |    +10.74 |   9 |    +10.74 |   1 |#
  10 |    +10.74 |  10 |    +10.74 |   1 |#
  11 |    +10.74 |  11 |    +10.74 |   1 |#
  12 |    +10.74 |  12 |    +10.74 |   1 |#
  13 |    +10.74 |  13 |    +10.74 |   1 |#
  14 |    +10.74 |  14 |    +10.74 |   1 |#
  15 |    +10.74 |  15 |    +10.74 |   1 |#
  16 |    +10.74 |  16 |    +10.74 |   1 |#
  17 |    +10.74 |  17 |    +10.74 |   1 |#
  18 |    +10.74 |  18 |    +10.74 |   1 |#
  19 |    +10.74 |  19 |    +10.74 |   1 |#
  20 |    +10.74 |  20 |    +10.74 |   1 |#
_____|___________|_____|___________|_____|______________________________________


    RMSD TABLE
    __________


_______________________________________________________________________
     |      |      |           |         |                 |
Rank | Sub- | Run  | Binding   | Cluster | Reference       | Grep
     | Rank |      | Energy    | RMSD    | RMSD            | Pattern
_____|______|______|___________|_________|_________________|___________
   1      1      1      +10.74      0.00      9.57           RANKING
   2      1      2      +10.74      0.00      7.67           RANKING
   3      1      3      +10.74      0.00     11.09           RANKING
   4      1      4      +10.74      0.00      8.60           RANKING
   5      1      5      +10.74      0.00      8.95           RANKING
   6      1      6      +10.74      0.00      8.35           RANKING
   7      1      7      +10.74      0.00      7.62           RANKING
   8      1      8      +10.74      0.00      9.02           RANKING
   9      1      9      +10.74      0.00     12.60           RANKING
  10      1     10      +10.74      0.00      7.72           RANKING
  11      1     11      +10.74      0.00     12.56           RANKING
  12      1     12      +10.74      0.00      8.68           RANKING
  13      1     13      +10.74      0.00     10.81           RANKING
  14      1     14      +10.74      0.00      8.25           RANKING
  15      1     15      +10.74      0.00      9.21           RANKING
  16      1     16      +10.74      0.00      8.36           RANKING
  17      1     17      +10.74      0.00     12.55           RANKING
  18      1     18      +10.74      0.00      9.72           RANKING
  19      1     19      +10.74      0.00      9.10           RANKING
  20      1     20      +10.74      0.00      6.66           RANKING

Run time 155.307 sec
Idle time 0.288 sec
