REMARK  Name = ligands/ligand_16.pdb
REMARK  41 active torsions:
REMARK  status: ('A' for Active; 'I' for Inactive)
REMARK    1  A    between atoms: C1_1  and  C2_2
REMARK    2  A    between atoms: C2_2  and  C3_3
REMARK    3  A    between atoms: C2_2  and  C4_4
REMARK    4  A    between atoms: C4_4  and  N1_5
REMARK    5  A    between atoms: C4_4  and  C10_15
REMARK    6  A    between atoms: C5_6  and  C6_8
REMARK    7  A    between atoms: C6_8  and  N2_9
REMARK    8  A    between atoms: C6_8  and  C7_10
REMARK    9  A    between atoms: C7_10  and  C8_11
REMARK   10  A    between atoms: C8_11  and  C9_12
REMARK   11  A    between atoms: C9_12  and  O3_14
REMARK   12  A    between atoms: N3_17  and  C11_18
REMARK   13  A    between atoms: C11_18  and  C12_19
REMARK   14  A    between atoms: C11_18  and  C14_23
REMARK   15  A    between atoms: C12_19  and  C13_20
REMARK   16  A    between atoms: N5_25  and  C15_26
REMARK   17  A    between atoms: C15_26  and  C16_27
REMARK   18  A    between atoms: C15_26  and  C23_34
REMARK   19  A    between atoms: C16_27  and  C17_28
REMARK   20  A    between atoms: C23_34  and  O7_35
REMARK   21  A    between atoms: C23_34  and  C24_36
REMARK   22  A    between atoms: C24_36  and  C25_37
REMARK   23  A    between atoms: C25_37  and  C26_38
REMARK   24  A    between atoms: C25_37  and  C44_66
REMARK   25  A    between atoms: N6_40  and  C27_41
REMARK   26  A    between atoms: C27_41  and  C28_42
REMARK   27  A    between atoms: C27_41  and  C29_43
REMARK   28  A    between atoms: N7_45  and  C30_46
REMARK   29  A    between atoms: C30_46  and  C31_47
REMARK   30  A    between atoms: C30_46  and  C34_52
REMARK   31  A    between atoms: C31_47  and  C32_48
REMARK   32  A    between atoms: C32_48  and  C33_49
REMARK   33  A    between atoms: C33_49  and  O11_51
REMARK   34  A    between atoms: N8_54  and  C35_55
REMARK   35  A    between atoms: C35_55  and  C36_56
REMARK   36  A    between atoms: C35_55  and  C43_63
REMARK   37  A    between atoms: C36_56  and  C37_57
REMARK   38  A    between atoms: C43_63  and  O14_65
REMARK   39  A    between atoms: C44_66  and  C45_67
REMARK   40  A    between atoms: C44_66  and  C46_68
REMARK   41  A    between atoms: C44_66  and  O15_69
REMARK                            x       y       z     vdW  Elec       q    Type
REMARK                         _______ _______ _______ _____ _____    ______ ____
ROOT
ATOM      1  C23 UNL     1      -1.217  -1.609   4.305  0.00  0.00    +0.135 C 
ENDROOT
BRANCH   1   2
ATOM      2  O7  UNL     1      -0.144  -2.545   4.377  0.00  0.00    -0.390 OA
ATOM      3  H40 UNL     1      -0.268  -3.166   3.640  0.00  0.00    +0.210 HD
ENDBRANCH   1   2
BRANCH   1   4
ATOM      4  C24 UNL     1      -0.690  -0.246   4.800  0.00  0.00    +0.048 C 
BRANCH   4   5
ATOM      5  C25 UNL     1       0.714   0.307   4.423  0.00  0.00    +0.108 C 
BRANCH   5   6
ATOM      6  C26 UNL     1       0.760   0.946   3.029  0.00  0.00    +0.220 C 
ATOM      7  O8  UNL     1       0.725   2.169   2.908  0.00  0.00    -0.275 OA
ATOM      8  N6  UNL     1       0.840   0.093   1.963  0.00  0.00    -0.304 N 
ATOM      9  H44 UNL     1       0.725  -0.905   2.135  0.00  0.00    +0.149 HD
BRANCH   8  10
ATOM     10  C27 UNL     1       0.768   0.481   0.553  0.00  0.00    +0.156 C 
ATOM     11  C28 UNL     1       1.550   1.729   0.166  0.00  0.00    +0.038 C 
BRANCH  10  12
ATOM     12  C29 UNL     1      -0.693   0.579   0.054  0.00  0.00    +0.234 C 
ATOM     13  O9  UNL     1      -1.619   1.030   0.727  0.00  0.00    -0.274 OA
ATOM     14  N7  UNL     1      -0.887   0.127  -1.240  0.00  0.00    -0.302 N 
ATOM     15  H49 UNL     1      -0.227  -0.566  -1.595  0.00  0.00    +0.150 HD
BRANCH  14  16
ATOM     16  C30 UNL     1      -2.232   0.098  -1.819  0.00  0.00    +0.159 C 
BRANCH  16  17
ATOM     17  C34 UNL     1      -2.067   0.204  -3.347  0.00  0.00    +0.234 C 
ATOM     18  O12 UNL     1      -1.928  -0.774  -4.078  0.00  0.00    -0.274 OA
ATOM     19  N8  UNL     1      -2.011   1.493  -3.819  0.00  0.00    -0.301 N 
ATOM     20  H56 UNL     1      -2.194   2.269  -3.184  0.00  0.00    +0.150 HD
BRANCH  19  21
ATOM     21  C35 UNL     1      -2.077   1.794  -5.251  0.00  0.00    +0.186 C 
BRANCH  21  22
ATOM     22  C43 UNL     1      -2.710   3.172  -5.430  0.00  0.00    +0.326 C 
ATOM     23  O13 UNL     1      -3.030   3.940  -4.533  0.00  0.00    -0.249 OA
BRANCH  22  24
ATOM     24  O14 UNL     1      -2.951   3.495  -6.718  0.00  0.00    -0.479 OA
ATOM     25  H65 UNL     1      -3.372   4.379  -6.655  0.00  0.00    +0.295 HD
ENDBRANCH  22  24
ENDBRANCH  21  22
BRANCH  21  26
ATOM     26  C36 UNL     1      -0.723   1.676  -5.967  0.00  0.00    +0.069 C 
BRANCH  26  27
ATOM     27  C37 UNL     1       0.307   2.707  -5.563  0.00  0.00    -0.045 A 
ATOM     28  C38 UNL     1       1.041   2.552  -4.380  0.00  0.00    +0.004 A 
ATOM     29  C39 UNL     1       1.997   3.496  -4.007  0.00  0.00    +0.000 A 
ATOM     30  C40 UNL     1       2.228   4.610  -4.810  0.00  0.00    +0.000 A 
ATOM     31  C41 UNL     1       1.503   4.778  -5.988  0.00  0.00    +0.000 A 
ATOM     32  C42 UNL     1       0.547   3.832  -6.364  0.00  0.00    +0.004 A 
ENDBRANCH  26  27
ENDBRANCH  21  26
ENDBRANCH  19  21
ENDBRANCH  16  17
BRANCH  16  33
ATOM     33  C31 UNL     1      -2.966  -1.187  -1.395  0.00  0.00    +0.043 C 
BRANCH  33  34
ATOM     34  C32 UNL     1      -4.477  -1.126  -1.600  0.00  0.00    +0.123 C 
BRANCH  34  35
ATOM     35  C33 UNL     1      -4.856  -1.164  -3.051  0.00  0.00    +0.305 C 
ATOM     36  O10 UNL     1      -5.144  -0.198  -3.738  0.00  0.00    -0.251 OA
BRANCH  35  37
ATOM     37  O11 UNL     1      -4.799  -2.402  -3.573  0.00  0.00    -0.481 OA
ATOM     38  H55 UNL     1      -4.934  -2.265  -4.534  0.00  0.00    +0.295 HD
ENDBRANCH  35  37
ENDBRANCH  34  35
ENDBRANCH  33  34
ENDBRANCH  16  33
ENDBRANCH  14  16
ENDBRANCH  10  12
ENDBRANCH   8  10
ENDBRANCH   5   6
BRANCH   5  39
ATOM     39  C44 UNL     1       1.994  -0.472   4.875  0.00  0.00    +0.072 C 
ATOM     40  C45 UNL     1       3.009   0.513   5.484  0.00  0.00    +0.042 C 
ATOM     41  C46 UNL     1       2.741  -1.278   3.806  0.00  0.00    +0.042 C 
BRANCH  39  42
ATOM     42  O15 UNL     1       1.660  -1.391   5.926  0.00  0.00    -0.388 OA
ATOM     43  H72 UNL     1       1.052  -2.048   5.522  0.00  0.00    +0.210 HD
ENDBRANCH  39  42
ENDBRANCH   5  39
ENDBRANCH   4   5
ENDBRANCH   1   4
BRANCH   1  44
ATOM     44  C15 UNL     1      -1.970  -1.570   2.930  0.00  0.00    +0.102 C 
BRANCH  44  47
ATOM     45  C14 UNL     1      -0.691  -3.103   1.402  0.00  0.00    +0.234 C 
ATOM     46  O6  UNL     1       0.388  -2.597   1.715  0.00  0.00    -0.274 OA
ATOM     47  N5  UNL     1      -1.830  -2.808   2.116  0.00  0.00    -0.308 N 
ATOM     48  H24 UNL     1      -2.694  -3.088   1.644  0.00  0.00    +0.149 HD
BRANCH  45  49
ATOM     49  C11 UNL     1      -0.833  -4.071   0.195  0.00  0.00    +0.168 C 
BRANCH  49  52
ATOM     50  C10 UNL     1       1.230  -3.441  -1.037  0.00  0.00    +0.234 C 
ATOM     51  O4  UNL     1       0.717  -2.376  -1.398  0.00  0.00    -0.274 OA
ATOM     52  N3  UNL     1       0.522  -4.372  -0.301  0.00  0.00    -0.302 N 
ATOM     53  H18 UNL     1       1.075  -4.970   0.294  0.00  0.00    +0.150 HD
BRANCH  50  54
ATOM     54  C4  UNL     1       2.685  -3.849  -1.439  0.00  0.00    +0.161 C 
BRANCH  54  55
ATOM     55  N1  UNL     1       3.300  -2.645  -2.003  0.00  0.00    -0.302 N 
ATOM     56  C5  UNL     1       3.319  -2.414  -3.366  0.00  0.00    +0.230 C 
ATOM     57  O1  UNL     1       3.120  -3.290  -4.201  0.00  0.00    -0.274 OA
ATOM     58  H9  UNL     1       3.279  -1.817  -1.422  0.00  0.00    +0.150 HD
BRANCH  56  59
ATOM     59  C6  UNL     1       3.648  -0.952  -3.743  0.00  0.00    +0.138 C 
BRANCH  59  60
ATOM     60  N2  UNL     1       2.880  -0.040  -2.872  0.00  0.00    -0.320 NA
ATOM     61  H11 UNL     1       3.362   0.119  -1.986  0.00  0.00    +0.119 HD
ATOM     62  H12 UNL     1       1.964  -0.450  -2.684  0.00  0.00    +0.119 HD
ENDBRANCH  59  60
BRANCH  59  63
ATOM     63  C7  UNL     1       5.164  -0.722  -3.648  0.00  0.00    +0.039 C 
BRANCH  63  64
ATOM     64  C8  UNL     1       5.589   0.735  -3.849  0.00  0.00    +0.122 C 
BRANCH  64  65
ATOM     65  C9  UNL     1       5.466   1.545  -2.584  0.00  0.00    +0.305 C 
ATOM     66  O2  UNL     1       5.111   1.149  -1.484  0.00  0.00    -0.251 OA
BRANCH  65  67
ATOM     67  O3  UNL     1       5.822   2.831  -2.770  0.00  0.00    -0.481 OA
ATOM     68  H17 UNL     1       5.692   3.252  -1.896  0.00  0.00    +0.295 HD
ENDBRANCH  65  67
ENDBRANCH  64  65
ENDBRANCH  63  64
ENDBRANCH  59  63
ENDBRANCH  56  59
ENDBRANCH  54  55
BRANCH  54  70
ATOM     69  C1  UNL     1       3.503  -5.922  -0.158  0.00  0.00    +0.009 C 
ATOM     70  C2  UNL     1       3.633  -4.407  -0.350  0.00  0.00    +0.012 C 
ATOM     71  C3  UNL     1       3.554  -3.676   0.990  0.00  0.00    +0.009 C 
ENDBRANCH  54  70
ENDBRANCH  50  54
ENDBRANCH  49  52
BRANCH  49  72
ATOM     72  C12 UNL     1      -1.526  -5.385   0.561  0.00  0.00    +0.127 C 
BRANCH  72  73
ATOM     73  C13 UNL     1      -3.030  -5.245   0.541  0.00  0.00    +0.213 C 
ATOM     74  N4  UNL     1      -3.719  -6.420   0.548  0.00  0.00    -0.329 N 
ATOM     75  O5  UNL     1      -3.610  -4.167   0.594  0.00  0.00    -0.276 OA
ATOM     76  H22 UNL     1      -4.729  -6.370   0.493  0.00  0.00    +0.145 HD
ATOM     77  H23 UNL     1      -3.287  -7.316   0.360  0.00  0.00    +0.145 HD
ENDBRANCH  72  73
ENDBRANCH  49  72
ENDBRANCH  45  49
ENDBRANCH  44  47
BRANCH  44  78
ATOM     78  C16 UNL     1      -3.495  -1.280   3.055  0.00  0.00    +0.028 C 
BRANCH  78  79
ATOM     79  C17 UNL     1      -3.907   0.125   3.537  0.00  0.00    -0.009 C 
ATOM     80  C18 UNL     1      -5.178   0.599   2.789  0.00  0.00    +0.003 C 
ATOM     81  C19 UNL     1      -5.935   1.726   3.502  0.00  0.00    +0.000 C 
ATOM     82  C20 UNL     1      -5.042   2.515   4.448  0.00  0.00    +0.000 C 
ATOM     83  C21 UNL     1      -4.424   1.618   5.521  0.00  0.00    +0.000 C 
ATOM     84  C22 UNL     1      -4.179   0.182   5.047  0.00  0.00    +0.003 C 
ENDBRANCH  78  79
ENDBRANCH  44  78
ENDBRANCH   1  44
TORSDOF 36
