AutoDock-GPU version: v1.6

**********************************************************
**    AutoDock-GPU AUTODOCKTOOLS-COMPATIBLE DLG FILE    **
**********************************************************


    DOCKING PARAMETERS
    ________________________


Ligand file:                               ligands/ligand_41.pdbqt
Grid fld file:                             protein.maps.fld

Random seed:                               1770973478, 31706
Number of runs:                            20
Number of energy evaluations:              11594753
Number of generations:                     42000
Size of population:                        150
Rate of crossover:                         80.000000%
Tournament selection probability limit:    60.000000%
Rate of mutation:                          2.000000%
Maximal allowed delta movement:            +/- 6.000000A
Maximal allowed delta angle:               +/- 90.000000

Rate of local search:                      100.000000%
Maximal number of local search iterations: 300
Rho lower bound:                           0.010000
Spread of local search delta movement:     2.000000A
Spread of local search delta angle:        74.999999
Limit of consecutive successes/failures:   4

Handle symmetry during clustering:         YES
RMSD tolerance:                            2.000000A

Program call in command line was:          ./autodock-gpu --ffile protein.maps.fld --lfile ligands/ligand_41.pdbqt --nrun 20 


    GRID PARAMETERS
    ________________________


Receptor name:                             #MACROMOLECULE
Number of grid points (x, y, z):           61, 61, 61
Grid center (x, y, z):                     10.261000, -3.492000, -0.127000A
Grid size (x, y, z):                       22.500000, 22.500000, 22.500000A
Grid spacing:                              0.375000A


    LIGAND PARAMETERS
    ________________________


Ligand name:                               ligands/ligand_41
Number of atoms:                           71
Number of rotatable bonds:                 29
Number of atom types:                      6


    DUMMY DATA (only for ADT-compatibility)
    ________________________


DPF> outlev 1
DPF> ga_run 20
DPF> fld protein.maps.fld
DPF> move ligands/ligand_41.pdbqt


    COUNTER STATES
    ________________________


Number of energy evaluations performed:    11265437
Number of generations used:                460


    INPUT LIGAND PDBQT FILE:
    ________________________


INPUT-LIGAND-PDBQT: REMARK  Name = ligands/ligand_41.pdb
INPUT-LIGAND-PDBQT: REMARK  36 active torsions:
INPUT-LIGAND-PDBQT: REMARK  status: ('A' for Active; 'I' for Inactive)
INPUT-LIGAND-PDBQT: REMARK    1  A    between atoms: C1_1  and  S1_2
INPUT-LIGAND-PDBQT: REMARK    2  A    between atoms: S1_2  and  C2_3
INPUT-LIGAND-PDBQT: REMARK    3  A    between atoms: C2_3  and  C3_4
INPUT-LIGAND-PDBQT: REMARK    4  A    between atoms: C3_4  and  C4_5
INPUT-LIGAND-PDBQT: REMARK    5  A    between atoms: C4_5  and  N1_6
INPUT-LIGAND-PDBQT: REMARK    6  A    between atoms: C4_5  and  C12_17
INPUT-LIGAND-PDBQT: REMARK    7  A    between atoms: C5_7  and  C6_9
INPUT-LIGAND-PDBQT: REMARK    8  A    between atoms: C6_9  and  N2_10
INPUT-LIGAND-PDBQT: REMARK    9  A    between atoms: C6_9  and  C9_14
INPUT-LIGAND-PDBQT: REMARK   10  A    between atoms: C7_11  and  C8_12
INPUT-LIGAND-PDBQT: REMARK   11  A    between atoms: C9_14  and  C10_15
INPUT-LIGAND-PDBQT: REMARK   12  A    between atoms: C9_14  and  C11_16
INPUT-LIGAND-PDBQT: REMARK   13  A    between atoms: N3_19  and  C13_20
INPUT-LIGAND-PDBQT: REMARK   14  A    between atoms: C13_20  and  C14_21
INPUT-LIGAND-PDBQT: REMARK   15  A    between atoms: C13_20  and  C18_25
INPUT-LIGAND-PDBQT: REMARK   16  A    between atoms: C14_21  and  C15_22
INPUT-LIGAND-PDBQT: REMARK   17  A    between atoms: C15_22  and  C16_23
INPUT-LIGAND-PDBQT: REMARK   18  A    between atoms: C15_22  and  C17_24
INPUT-LIGAND-PDBQT: REMARK   19  A    between atoms: C18_25  and  O4_26
INPUT-LIGAND-PDBQT: REMARK   20  A    between atoms: C18_25  and  C19_27
INPUT-LIGAND-PDBQT: REMARK   21  A    between atoms: C19_27  and  C20_28
INPUT-LIGAND-PDBQT: REMARK   22  A    between atoms: C24_34  and  C25_35
INPUT-LIGAND-PDBQT: REMARK   23  A    between atoms: N5_37  and  C26_38
INPUT-LIGAND-PDBQT: REMARK   24  A    between atoms: C26_38  and  C27_39
INPUT-LIGAND-PDBQT: REMARK   25  A    between atoms: C26_38  and  C28_40
INPUT-LIGAND-PDBQT: REMARK   26  A    between atoms: N6_42  and  C29_43
INPUT-LIGAND-PDBQT: REMARK   27  A    between atoms: C29_43  and  C30_44
INPUT-LIGAND-PDBQT: REMARK   28  A    between atoms: C29_43  and  C33_49
INPUT-LIGAND-PDBQT: REMARK   29  A    between atoms: C30_44  and  C31_45
INPUT-LIGAND-PDBQT: REMARK   30  A    between atoms: C31_45  and  C32_46
INPUT-LIGAND-PDBQT: REMARK   31  A    between atoms: C32_46  and  O9_48
INPUT-LIGAND-PDBQT: REMARK   32  A    between atoms: N7_51  and  C34_52
INPUT-LIGAND-PDBQT: REMARK   33  A    between atoms: C34_52  and  C35_53
INPUT-LIGAND-PDBQT: REMARK   34  A    between atoms: C34_52  and  C42_60
INPUT-LIGAND-PDBQT: REMARK   35  A    between atoms: C35_53  and  C36_54
INPUT-LIGAND-PDBQT: REMARK   36  A    between atoms: C42_60  and  O12_62
INPUT-LIGAND-PDBQT: REMARK                            x       y       z     vdW  Elec       q    Type
INPUT-LIGAND-PDBQT: REMARK                         _______ _______ _______ _____ _____    ______ ____
INPUT-LIGAND-PDBQT: ROOT
INPUT-LIGAND-PDBQT: ATOM      1  C20 UNL     1      -0.692   1.646   0.564  0.00  0.00    +0.219 C 
INPUT-LIGAND-PDBQT: ATOM      2  O5  UNL     1      -1.640   1.110  -0.014  0.00  0.00    -0.275 OA
INPUT-LIGAND-PDBQT: ATOM      3  N4  UNL     1      -0.306   2.929   0.212  0.00  0.00    -0.290 N 
INPUT-LIGAND-PDBQT: ATOM      4  C21 UNL     1       0.803   3.644   0.831  0.00  0.00    +0.108 C 
INPUT-LIGAND-PDBQT: ATOM      5  C22 UNL     1       1.287   4.660  -0.195  0.00  0.00    +0.021 C 
INPUT-LIGAND-PDBQT: ATOM      6  C23 UNL     1       0.128   4.793  -1.157  0.00  0.00    +0.033 C 
INPUT-LIGAND-PDBQT: ATOM      7  C24 UNL     1      -0.536   3.414  -1.156  0.00  0.00    +0.162 C 
INPUT-LIGAND-PDBQT: ENDROOT
INPUT-LIGAND-PDBQT: BRANCH   7   8
INPUT-LIGAND-PDBQT: ATOM      8  C25 UNL     1      -1.945   3.613  -1.794  0.00  0.00    +0.234 C 
INPUT-LIGAND-PDBQT: ATOM      9  O6  UNL     1      -2.070   4.196  -2.873  0.00  0.00    -0.274 OA
INPUT-LIGAND-PDBQT: ATOM     10  N5  UNL     1      -3.006   3.041  -1.130  0.00  0.00    -0.303 N 
INPUT-LIGAND-PDBQT: ATOM     11  H44 UNL     1      -2.697   2.272  -0.528  0.00  0.00    +0.149 HD
INPUT-LIGAND-PDBQT: BRANCH  10  12
INPUT-LIGAND-PDBQT: ATOM     12  C26 UNL     1      -4.270   2.724  -1.803  0.00  0.00    +0.156 C 
INPUT-LIGAND-PDBQT: ATOM     13  C27 UNL     1      -4.889   3.872  -2.591  0.00  0.00    +0.038 C 
INPUT-LIGAND-PDBQT: BRANCH  12  14
INPUT-LIGAND-PDBQT: ATOM     14  C28 UNL     1      -4.090   1.411  -2.609  0.00  0.00    +0.234 C 
INPUT-LIGAND-PDBQT: ATOM     15  O7  UNL     1      -3.067   0.728  -2.564  0.00  0.00    -0.274 OA
INPUT-LIGAND-PDBQT: ATOM     16  N6  UNL     1      -5.208   0.973  -3.296  0.00  0.00    -0.302 N 
INPUT-LIGAND-PDBQT: ATOM     17  H49 UNL     1      -5.738   1.704  -3.758  0.00  0.00    +0.150 HD
INPUT-LIGAND-PDBQT: BRANCH  16  18
INPUT-LIGAND-PDBQT: ATOM     18  C29 UNL     1      -5.101  -0.286  -4.030  0.00  0.00    +0.159 C 
INPUT-LIGAND-PDBQT: BRANCH  18  19
INPUT-LIGAND-PDBQT: ATOM     19  C33 UNL     1      -4.402  -0.045  -5.375  0.00  0.00    +0.234 C 
INPUT-LIGAND-PDBQT: ATOM     20  O10 UNL     1      -4.593   0.969  -6.048  0.00  0.00    -0.274 OA
INPUT-LIGAND-PDBQT: ATOM     21  N7  UNL     1      -3.593  -1.074  -5.788  0.00  0.00    -0.301 N 
INPUT-LIGAND-PDBQT: ATOM     22  H56 UNL     1      -3.650  -1.954  -5.288  0.00  0.00    +0.150 HD
INPUT-LIGAND-PDBQT: BRANCH  21  23
INPUT-LIGAND-PDBQT: ATOM     23  C34 UNL     1      -3.060  -1.138  -7.148  0.00  0.00    +0.186 C 
INPUT-LIGAND-PDBQT: BRANCH  23  24
INPUT-LIGAND-PDBQT: ATOM     24  C42 UNL     1      -4.053  -1.910  -8.021  0.00  0.00    +0.326 C 
INPUT-LIGAND-PDBQT: ATOM     25  O11 UNL     1      -5.039  -2.519  -7.634  0.00  0.00    -0.249 OA
INPUT-LIGAND-PDBQT: BRANCH  24  26
INPUT-LIGAND-PDBQT: ATOM     26  O12 UNL     1      -3.749  -1.878  -9.332  0.00  0.00    -0.479 OA
INPUT-LIGAND-PDBQT: ATOM     27  H65 UNL     1      -4.480  -2.379  -9.751  0.00  0.00    +0.295 HD
INPUT-LIGAND-PDBQT: ENDBRANCH  24  26
INPUT-LIGAND-PDBQT: ENDBRANCH  23  24
INPUT-LIGAND-PDBQT: BRANCH  23  28
INPUT-LIGAND-PDBQT: ATOM     28  C35 UNL     1      -1.657  -1.749  -7.199  0.00  0.00    +0.069 C 
INPUT-LIGAND-PDBQT: BRANCH  28  29
INPUT-LIGAND-PDBQT: ATOM     29  C36 UNL     1      -1.540  -3.119  -6.572  0.00  0.00    -0.045 A 
INPUT-LIGAND-PDBQT: ATOM     30  C37 UNL     1      -1.884  -4.272  -7.293  0.00  0.00    +0.004 A 
INPUT-LIGAND-PDBQT: ATOM     31  C38 UNL     1      -1.797  -5.529  -6.694  0.00  0.00    +0.000 A 
INPUT-LIGAND-PDBQT: ATOM     32  C39 UNL     1      -1.354  -5.650  -5.381  0.00  0.00    +0.000 A 
INPUT-LIGAND-PDBQT: ATOM     33  C40 UNL     1      -0.987  -4.514  -4.661  0.00  0.00    +0.000 A 
INPUT-LIGAND-PDBQT: ATOM     34  C41 UNL     1      -1.081  -3.256  -5.254  0.00  0.00    +0.004 A 
INPUT-LIGAND-PDBQT: ENDBRANCH  28  29
INPUT-LIGAND-PDBQT: ENDBRANCH  23  28
INPUT-LIGAND-PDBQT: ENDBRANCH  21  23
INPUT-LIGAND-PDBQT: ENDBRANCH  18  19
INPUT-LIGAND-PDBQT: BRANCH  18  35
INPUT-LIGAND-PDBQT: ATOM     35  C30 UNL     1      -6.472  -0.955  -4.221  0.00  0.00    +0.043 C 
INPUT-LIGAND-PDBQT: BRANCH  35  36
INPUT-LIGAND-PDBQT: ATOM     36  C31 UNL     1      -7.418  -0.187  -5.142  0.00  0.00    +0.123 C 
INPUT-LIGAND-PDBQT: BRANCH  36  37
INPUT-LIGAND-PDBQT: ATOM     37  C32 UNL     1      -8.802  -0.740  -5.039  0.00  0.00    +0.305 C 
INPUT-LIGAND-PDBQT: ATOM     38  O8  UNL     1      -9.646  -0.398  -4.230  0.00  0.00    -0.251 OA
INPUT-LIGAND-PDBQT: BRANCH  37  39
INPUT-LIGAND-PDBQT: ATOM     39  O9  UNL     1      -9.039  -1.726  -5.923  0.00  0.00    -0.481 OA
INPUT-LIGAND-PDBQT: ATOM     40  H55 UNL     1      -9.962  -1.994  -5.756  0.00  0.00    +0.295 HD
INPUT-LIGAND-PDBQT: ENDBRANCH  37  39
INPUT-LIGAND-PDBQT: ENDBRANCH  36  37
INPUT-LIGAND-PDBQT: ENDBRANCH  35  36
INPUT-LIGAND-PDBQT: ENDBRANCH  18  35
INPUT-LIGAND-PDBQT: ENDBRANCH  16  18
INPUT-LIGAND-PDBQT: ENDBRANCH  12  14
INPUT-LIGAND-PDBQT: ENDBRANCH  10  12
INPUT-LIGAND-PDBQT: ENDBRANCH   7   8
INPUT-LIGAND-PDBQT: BRANCH   1  41
INPUT-LIGAND-PDBQT: ATOM     41  C19 UNL     1      -0.015   0.930   1.723  0.00  0.00    +0.129 C 
INPUT-LIGAND-PDBQT: BRANCH  41  42
INPUT-LIGAND-PDBQT: ATOM     42  C18 UNL     1       0.030  -0.589   1.460  0.00  0.00    +0.143 C 
INPUT-LIGAND-PDBQT: BRANCH  42  43
INPUT-LIGAND-PDBQT: ATOM     43  O4  UNL     1       1.129  -0.857   0.556  0.00  0.00    -0.389 OA
INPUT-LIGAND-PDBQT: ATOM     44  H34 UNL     1       1.962  -0.755   1.075  0.00  0.00    +0.210 HD
INPUT-LIGAND-PDBQT: ENDBRANCH  42  43
INPUT-LIGAND-PDBQT: BRANCH  42  45
INPUT-LIGAND-PDBQT: ATOM     45  C13 UNL     1       0.191  -1.471   2.732  0.00  0.00    +0.102 C 
INPUT-LIGAND-PDBQT: BRANCH  45  48
INPUT-LIGAND-PDBQT: ATOM     46  C12 UNL     1       2.344  -0.518   3.594  0.00  0.00    +0.234 C 
INPUT-LIGAND-PDBQT: ATOM     47  O3  UNL     1       2.857  -0.484   2.473  0.00  0.00    -0.274 OA
INPUT-LIGAND-PDBQT: ATOM     48  N3  UNL     1       1.019  -0.847   3.779  0.00  0.00    -0.308 N 
INPUT-LIGAND-PDBQT: ATOM     49  H22 UNL     1       0.747  -1.044   4.748  0.00  0.00    +0.149 HD
INPUT-LIGAND-PDBQT: BRANCH  46  50
INPUT-LIGAND-PDBQT: ATOM     50  C4  UNL     1       3.125  -0.173   4.890  0.00  0.00    +0.160 C 
INPUT-LIGAND-PDBQT: BRANCH  50  51
INPUT-LIGAND-PDBQT: ATOM     51  N1  UNL     1       4.535   0.032   4.533  0.00  0.00    -0.302 N 
INPUT-LIGAND-PDBQT: ATOM     52  C5  UNL     1       5.378  -1.052   4.457  0.00  0.00    +0.234 C 
INPUT-LIGAND-PDBQT: ATOM     53  O1  UNL     1       5.015  -2.173   4.834  0.00  0.00    -0.274 OA
INPUT-LIGAND-PDBQT: ATOM     54  H9  UNL     1       4.737   0.815   3.936  0.00  0.00    +0.150 HD
INPUT-LIGAND-PDBQT: BRANCH  52  55
INPUT-LIGAND-PDBQT: ATOM     55  C6  UNL     1       6.839  -0.798   3.993  0.00  0.00    +0.161 C 
INPUT-LIGAND-PDBQT: BRANCH  55  56
INPUT-LIGAND-PDBQT: ATOM     56  N2  UNL     1       7.449  -2.133   4.005  0.00  0.00    -0.304 N 
INPUT-LIGAND-PDBQT: ATOM     57  C7  UNL     1       8.800  -2.335   4.111  0.00  0.00    +0.211 C 
INPUT-LIGAND-PDBQT: ATOM     58  C8  UNL     1       9.199  -3.781   4.248  0.00  0.00    +0.109 C 
INPUT-LIGAND-PDBQT: ATOM     59  O2  UNL     1       9.625  -1.432   4.044  0.00  0.00    -0.276 OA
INPUT-LIGAND-PDBQT: ATOM     60  H11 UNL     1       6.825  -2.888   4.283  0.00  0.00    +0.149 HD
INPUT-LIGAND-PDBQT: ENDBRANCH  55  56
INPUT-LIGAND-PDBQT: BRANCH  55  61
INPUT-LIGAND-PDBQT: ATOM     61  C9  UNL     1       7.063  -0.106   2.626  0.00  0.00    +0.012 C 
INPUT-LIGAND-PDBQT: ATOM     62  C10 UNL     1       6.016  -0.424   1.564  0.00  0.00    +0.009 C 
INPUT-LIGAND-PDBQT: ATOM     63  C11 UNL     1       7.225   1.410   2.781  0.00  0.00    +0.009 C 
INPUT-LIGAND-PDBQT: ENDBRANCH  55  61
INPUT-LIGAND-PDBQT: ENDBRANCH  52  55
INPUT-LIGAND-PDBQT: ENDBRANCH  50  51
INPUT-LIGAND-PDBQT: BRANCH  50  64
INPUT-LIGAND-PDBQT: ATOM     64  C3  UNL     1       2.554   1.065   5.605  0.00  0.00    +0.042 C 
INPUT-LIGAND-PDBQT: BRANCH  64  65
INPUT-LIGAND-PDBQT: ATOM     65  C2  UNL     1       1.869   0.734   6.939  0.00  0.00    +0.071 C 
INPUT-LIGAND-PDBQT: BRANCH  65  67
INPUT-LIGAND-PDBQT: ATOM     66  C1  UNL     1      -0.795   1.101   6.239  0.00  0.00    +0.084 C 
INPUT-LIGAND-PDBQT: ATOM     67  S1  UNL     1       0.316  -0.216   6.801  0.00  0.00    -0.164 S 
INPUT-LIGAND-PDBQT: ENDBRANCH  65  67
INPUT-LIGAND-PDBQT: ENDBRANCH  64  65
INPUT-LIGAND-PDBQT: ENDBRANCH  50  64
INPUT-LIGAND-PDBQT: ENDBRANCH  46  50
INPUT-LIGAND-PDBQT: ENDBRANCH  45  48
INPUT-LIGAND-PDBQT: BRANCH  45  68
INPUT-LIGAND-PDBQT: ATOM     68  C14 UNL     1      -1.178  -1.884   3.335  0.00  0.00    +0.028 C 
INPUT-LIGAND-PDBQT: BRANCH  68  69
INPUT-LIGAND-PDBQT: ATOM     69  C15 UNL     1      -1.804  -3.139   2.692  0.00  0.00    -0.015 C 
INPUT-LIGAND-PDBQT: ATOM     70  C16 UNL     1      -2.746  -2.824   1.523  0.00  0.00    +0.007 C 
INPUT-LIGAND-PDBQT: ATOM     71  C17 UNL     1      -2.582  -3.942   3.754  0.00  0.00    +0.007 C 
INPUT-LIGAND-PDBQT: ENDBRANCH  68  69
INPUT-LIGAND-PDBQT: ENDBRANCH  45  68
INPUT-LIGAND-PDBQT: ENDBRANCH  42  45
INPUT-LIGAND-PDBQT: ENDBRANCH  41  42
INPUT-LIGAND-PDBQT: ENDBRANCH   1  41
INPUT-LIGAND-PDBQT: TORSDOF 29


    FINAL DOCKED STATE:
    ________________________


Run:   1 / 20
Time taken for this run:   5.123s

DOCKED: MODEL        1
DOCKED: USER    Run = 1
DOCKED: USER
DOCKED: USER    Estimated Free Energy of Binding    =  +8.65 kcal/mol  [=(1)+(2)+(3)-(4)]
DOCKED: USER
DOCKED: USER    (1) Final Intermolecular Energy     =  +0.00 kcal/mol
DOCKED: USER        vdW + Hbond + desolv Energy     =  +0.00 kcal/mol
DOCKED: USER        Electrostatic Energy            =  +0.00 kcal/mol
DOCKED: USER        Moving Ligand-Fixed Receptor    =  +0.00 kcal/mol
DOCKED: USER        Moving Ligand-Moving Receptor   =  +0.00 kcal/mol
DOCKED: USER    (2) Final Total Internal Energy     = -22.84 kcal/mol
DOCKED: USER    (3) Torsional Free Energy           =  +8.65 kcal/mol
DOCKED: USER    (4) Unbound System's Energy         = -22.84 kcal/mol
DOCKED: USER
DOCKED: USER
DOCKED: REMARK  Name = ligands/ligand_41.pdb
DOCKED: REMARK  36 active torsions:
DOCKED: REMARK  status: ('A' for Active; 'I' for Inactive)
DOCKED: REMARK    1  A    between atoms: C1_1  and  S1_2
DOCKED: REMARK    2  A    between atoms: S1_2  and  C2_3
DOCKED: REMARK    3  A    between atoms: C2_3  and  C3_4
DOCKED: REMARK    4  A    between atoms: C3_4  and  C4_5
DOCKED: REMARK    5  A    between atoms: C4_5  and  N1_6
DOCKED: REMARK    6  A    between atoms: C4_5  and  C12_17
DOCKED: REMARK    7  A    between atoms: C5_7  and  C6_9
DOCKED: REMARK    8  A    between atoms: C6_9  and  N2_10
DOCKED: REMARK    9  A    between atoms: C6_9  and  C9_14
DOCKED: REMARK   10  A    between atoms: C7_11  and  C8_12
DOCKED: REMARK   11  A    between atoms: C9_14  and  C10_15
DOCKED: REMARK   12  A    between atoms: C9_14  and  C11_16
DOCKED: REMARK   13  A    between atoms: N3_19  and  C13_20
DOCKED: REMARK   14  A    between atoms: C13_20  and  C14_21
DOCKED: REMARK   15  A    between atoms: C13_20  and  C18_25
DOCKED: REMARK   16  A    between atoms: C14_21  and  C15_22
DOCKED: REMARK   17  A    between atoms: C15_22  and  C16_23
DOCKED: REMARK   18  A    between atoms: C15_22  and  C17_24
DOCKED: REMARK   19  A    between atoms: C18_25  and  O4_26
DOCKED: REMARK   20  A    between atoms: C18_25  and  C19_27
DOCKED: REMARK   21  A    between atoms: C19_27  and  C20_28
DOCKED: REMARK   22  A    between atoms: C24_34  and  C25_35
DOCKED: REMARK   23  A    between atoms: N5_37  and  C26_38
DOCKED: REMARK   24  A    between atoms: C26_38  and  C27_39
DOCKED: REMARK   25  A    between atoms: C26_38  and  C28_40
DOCKED: REMARK   26  A    between atoms: N6_42  and  C29_43
DOCKED: REMARK   27  A    between atoms: C29_43  and  C30_44
DOCKED: REMARK   28  A    between atoms: C29_43  and  C33_49
DOCKED: REMARK   29  A    between atoms: C30_44  and  C31_45
DOCKED: REMARK   30  A    between atoms: C31_45  and  C32_46
DOCKED: REMARK   31  A    between atoms: C32_46  and  O9_48
DOCKED: REMARK   32  A    between atoms: N7_51  and  C34_52
DOCKED: REMARK   33  A    between atoms: C34_52  and  C35_53
DOCKED: REMARK   34  A    between atoms: C34_52  and  C42_60
DOCKED: REMARK   35  A    between atoms: C35_53  and  C36_54
DOCKED: REMARK   36  A    between atoms: C42_60  and  O12_62
DOCKED: REMARK                            x       y       z     vdW  Elec       q    Type
DOCKED: REMARK                         _______ _______ _______ _____ _____    ______ ____
DOCKED: USER                              x       y       z     vdW  Elec       q    Type
DOCKED: USER                           _______ _______ _______ _____ _____    ______ ____
DOCKED: ROOT
DOCKED: ATOM      1  C20 UNL     1      16.602  -6.137  -1.049 +0.00 +0.00    +0.219 C  
DOCKED: ATOM      2  O5  UNL     1      15.653  -5.786  -1.754 +0.00 -0.00    -0.275 OA 
DOCKED: ATOM      3  N4  UNL     1      17.886  -5.731  -1.371 +0.00 -0.00    -0.290 N  
DOCKED: ATOM      4  C21 UNL     1      19.071  -6.098  -0.606 +0.00 +0.00    +0.108 C  
DOCKED: ATOM      5  C22 UNL     1      20.247  -6.024  -1.571 +0.00 +0.00    +0.021 C  
DOCKED: ATOM      6  C23 UNL     1      19.740  -5.164  -2.706 +0.00 +0.00    +0.033 C  
DOCKED: ATOM      7  C24 UNL     1      18.239  -5.456  -2.771 +0.00 +0.00    +0.162 C  
DOCKED: ENDROOT
DOCKED: BRANCH   7   8
DOCKED: ATOM      8  C25 UNL     1      17.613  -4.312  -3.627 +0.00 +0.00    +0.234 C  
DOCKED: ATOM      9  O6  UNL     1      16.848  -3.492  -3.117 +0.00 -0.00    -0.274 OA 
DOCKED: ATOM     10  N5  UNL     1      18.023  -4.233  -4.939 +0.00 -0.00    -0.303 N  
DOCKED: ATOM     11  H44 UNL     1      18.931  -4.687  -5.073 +0.00 +0.00    +0.149 HD 
DOCKED: BRANCH  10  12
DOCKED: ATOM     12  C26 UNL     1      17.920  -2.993  -5.716 +0.00 +0.00    +0.156 C  
DOCKED: ATOM     13  C27 UNL     1      16.588  -2.782  -6.424 +0.00 +0.00    +0.038 C  
DOCKED: BRANCH  12  14
DOCKED: ATOM     14  C28 UNL     1      18.372  -1.807  -4.824 +0.00 +0.00    +0.234 C  
DOCKED: ATOM     15  O7  UNL     1      19.542  -1.433  -4.743 +0.00 -0.00    -0.274 OA 
DOCKED: ATOM     16  N6  UNL     1      17.354  -1.098  -4.212 +0.00 -0.00    -0.302 N  
DOCKED: ATOM     17  H49 UNL     1      16.603  -1.668  -3.839 +0.00 +0.00    +0.150 HD 
DOCKED: BRANCH  16  18
DOCKED: ATOM     18  C29 UNL     1      17.729   0.059  -3.401 +0.00 +0.00    +0.159 C  
DOCKED: BRANCH  18  19
DOCKED: ATOM     19  C33 UNL     1      18.434  -0.411  -2.121 +0.00 +0.00    +0.234 C  
DOCKED: ATOM     20  O10 UNL     1      19.561  -0.025  -1.807 +0.00 -0.00    -0.274 OA 
DOCKED: ATOM     21  N7  UNL     1      17.729  -1.333  -1.389 +0.00 -0.00    -0.301 N  
DOCKED: ATOM     22  H56 UNL     1      16.912  -1.755  -1.815 +0.00 +0.00    +0.150 HD 
DOCKED: BRANCH  21  23
DOCKED: ATOM     23  C34 UNL     1      18.345  -2.082  -0.295 +0.00 +0.00    +0.186 C  
DOCKED: BRANCH  23  24
DOCKED: ATOM     24  C42 UNL     1      17.409  -3.231   0.092 +0.00 +0.00    +0.326 C  
DOCKED: ATOM     25  O11 UNL     1      17.555  -4.002   1.028 +0.00 -0.00    -0.249 OA 
DOCKED: BRANCH  24  26
DOCKED: ATOM     26  O12 UNL     1      16.344  -3.349  -0.723 +0.00 -0.00    -0.479 OA 
DOCKED: ATOM     27  H65 UNL     1      15.887  -2.487  -0.632 +0.00 +0.00    +0.295 HD 
DOCKED: ENDBRANCH  24  26
DOCKED: ENDBRANCH  23  24
DOCKED: BRANCH  23  28
DOCKED: ATOM     28  C35 UNL     1      18.686  -1.193   0.904 +0.00 +0.00    +0.069 C  
DOCKED: BRANCH  28  29
DOCKED: ATOM     29  C36 UNL     1      17.624  -0.181   1.264 +0.00 -0.00    -0.045 A  
DOCKED: ATOM     30  C37 UNL     1      17.708   1.143   0.810 +0.00 +0.00    +0.004 A  
DOCKED: ATOM     31  C38 UNL     1      16.735   2.075   1.171 +0.00 +0.00    +0.000 A  
DOCKED: ATOM     32  C39 UNL     1      15.665   1.694   1.974 +0.00 +0.00    +0.000 A  
DOCKED: ATOM     33  C40 UNL     1      15.557   0.376   2.413 +0.00 +0.00    +0.000 A  
DOCKED: ATOM     34  C41 UNL     1      16.532  -0.555   2.061 +0.00 +0.00    +0.004 A  
DOCKED: ENDBRANCH  28  29
DOCKED: ENDBRANCH  23  28
DOCKED: ENDBRANCH  21  23
DOCKED: ENDBRANCH  18  19
DOCKED: BRANCH  18  35
DOCKED: ATOM     35  C30 UNL     1      16.517   0.949  -3.081 +0.00 +0.00    +0.043 C  
DOCKED: BRANCH  35  36
DOCKED: ATOM     36  C31 UNL     1      15.175   0.222  -3.142 +0.00 +0.00    +0.123 C  
DOCKED: BRANCH  36  37
DOCKED: ATOM     37  C32 UNL     1      15.101  -0.818  -2.072 +0.00 +0.00    +0.305 C  
DOCKED: ATOM     38  O8  UNL     1      15.246  -0.622  -0.879 +0.00 -0.00    -0.251 OA 
DOCKED: BRANCH  37  39
DOCKED: ATOM     39  O9  UNL     1      14.898  -2.056  -2.558 +0.00 -0.00    -0.481 OA 
DOCKED: ATOM     40  H55 UNL     1      15.236  -2.654  -1.865 +0.00 +0.00    +0.295 HD 
DOCKED: ENDBRANCH  37  39
DOCKED: ENDBRANCH  36  37
DOCKED: ENDBRANCH  35  36
DOCKED: ENDBRANCH  18  35
DOCKED: ENDBRANCH  16  18
DOCKED: ENDBRANCH  12  14
DOCKED: ENDBRANCH  10  12
DOCKED: ENDBRANCH   7   8
DOCKED: BRANCH   1  41
DOCKED: ATOM     41  C19 UNL     1      16.342  -6.933   0.221 +0.00 +0.00    +0.129 C  
DOCKED: BRANCH  41  42
DOCKED: ATOM     42  C18 UNL     1      15.102  -6.382   0.953 +0.00 +0.00    +0.143 C  
DOCKED: BRANCH  42  43
DOCKED: ATOM     43  O4  UNL     1      15.300  -4.964   1.171 +0.00 -0.00    -0.389 OA 
DOCKED: ATOM     44  H34 UNL     1      15.516  -4.565   0.295 +0.00 +0.00    +0.210 HD 
DOCKED: ENDBRANCH  42  43
DOCKED: BRANCH  42  45
DOCKED: ATOM     45  C13 UNL     1      13.751  -6.599   0.211 +0.00 +0.00    +0.102 C  
DOCKED: BRANCH  45  48
DOCKED: ATOM     46  C12 UNL     1      12.435  -5.569  -1.659 +0.00 +0.00    +0.234 C  
DOCKED: ATOM     47  O3  UNL     1      11.683  -6.541  -1.757 +0.00 -0.00    -0.274 OA 
DOCKED: ATOM     48  N3  UNL     1      13.362  -5.464  -0.645 +0.00 -0.00    -0.308 N  
DOCKED: ATOM     49  H22 UNL     1      14.066  -4.728  -0.769 +0.00 +0.00    +0.149 HD 
DOCKED: BRANCH  46  50
DOCKED: ATOM     50  C4  UNL     1      12.395  -4.369  -2.642 +0.00 +0.00    +0.160 C  
DOCKED: BRANCH  50  51
DOCKED: ATOM     51  N1  UNL     1      12.438  -3.130  -1.854 +0.00 -0.00    -0.302 N  
DOCKED: ATOM     52  C5  UNL     1      11.460  -2.891  -0.916 +0.00 +0.00    +0.234 C  
DOCKED: ATOM     53  O1  UNL     1      10.463  -3.618  -0.831 +0.00 -0.00    -0.274 OA 
DOCKED: ATOM     54  H9  UNL     1      13.348  -2.741  -1.680 +0.00 +0.00    +0.150 HD 
DOCKED: BRANCH  52  55
DOCKED: ATOM     55  C6  UNL     1      11.593  -1.610  -0.047 +0.00 +0.00    +0.161 C  
DOCKED: BRANCH  55  56
DOCKED: ATOM     56  N2  UNL     1      12.287  -2.074   1.160 +0.00 -0.00    -0.304 N  
DOCKED: ATOM     57  C7  UNL     1      13.570  -2.556   1.145 +0.00 +0.00    +0.211 C  
DOCKED: ATOM     58  C8  UNL     1      14.138  -2.842   2.510 +0.00 +0.00    +0.109 C  
DOCKED: ATOM     59  O2  UNL     1      14.190  -2.791   0.115 +0.00 -0.00    -0.276 OA 
DOCKED: ATOM     60  H11 UNL     1      11.921  -1.704   2.036 +0.00 +0.00    +0.149 HD 
DOCKED: ENDBRANCH  55  56
DOCKED: BRANCH  55  61
DOCKED: ATOM     61  C9  UNL     1      12.316  -0.384  -0.656 +0.00 +0.00    +0.012 C  
DOCKED: ATOM     62  C10 UNL     1      11.670   0.184  -1.916 +0.00 +0.00    +0.009 C  
DOCKED: ATOM     63  C11 UNL     1      12.524   0.723   0.384 +0.00 +0.00    +0.009 C  
DOCKED: ENDBRANCH  55  61
DOCKED: ENDBRANCH  52  55
DOCKED: ENDBRANCH  50  51
DOCKED: BRANCH  50  64
DOCKED: ATOM     64  C3  UNL     1      13.547  -4.410  -3.663 +0.00 +0.00    +0.042 C  
DOCKED: BRANCH  64  65
DOCKED: ATOM     65  C2  UNL     1      13.608  -5.723  -4.457 +0.00 +0.00    +0.071 C  
DOCKED: BRANCH  65  67
DOCKED: ATOM     66  C1  UNL     1      15.141  -7.962  -3.861 +0.00 +0.00    +0.084 C  
DOCKED: ATOM     67  S1  UNL     1      15.286  -6.383  -4.740 +0.00 -0.00    -0.164 S  
DOCKED: ENDBRANCH  65  67
DOCKED: ENDBRANCH  64  65
DOCKED: ENDBRANCH  50  64
DOCKED: ENDBRANCH  46  50
DOCKED: ENDBRANCH  45  48
DOCKED: BRANCH  45  68
DOCKED: ATOM     68  C14 UNL     1      13.748  -7.903  -0.630 +0.00 +0.00    +0.028 C  
DOCKED: BRANCH  68  69
DOCKED: ATOM     69  C15 UNL     1      12.804  -9.001  -0.097 +0.00 -0.00    -0.015 C  
DOCKED: ATOM     70  C16 UNL     1      11.986  -9.693  -1.196 +0.00 +0.00    +0.007 C  
DOCKED: ATOM     71  C17 UNL     1      11.834  -8.403   0.941 +0.00 +0.00    +0.007 C  
DOCKED: ENDBRANCH  68  69
DOCKED: ENDBRANCH  45  68
DOCKED: ENDBRANCH  42  45
DOCKED: ENDBRANCH  41  42
DOCKED: ENDBRANCH   1  41
DOCKED: TORSDOF 29
DOCKED: TER
DOCKED: ENDMDL
________________________________________________________________________________


    FINAL DOCKED STATE:
    ________________________


Run:   2 / 20
Time taken for this run:   5.123s

DOCKED: MODEL        2
DOCKED: USER    Run = 2
DOCKED: USER
DOCKED: USER    Estimated Free Energy of Binding    =  +8.65 kcal/mol  [=(1)+(2)+(3)-(4)]
DOCKED: USER
DOCKED: USER    (1) Final Intermolecular Energy     =  +0.00 kcal/mol
DOCKED: USER        vdW + Hbond + desolv Energy     =  +0.00 kcal/mol
DOCKED: USER        Electrostatic Energy            =  +0.00 kcal/mol
DOCKED: USER        Moving Ligand-Fixed Receptor    =  +0.00 kcal/mol
DOCKED: USER        Moving Ligand-Moving Receptor   =  +0.00 kcal/mol
DOCKED: USER    (2) Final Total Internal Energy     = -22.37 kcal/mol
DOCKED: USER    (3) Torsional Free Energy           =  +8.65 kcal/mol
DOCKED: USER    (4) Unbound System's Energy         = -22.37 kcal/mol
DOCKED: USER
DOCKED: USER
DOCKED: REMARK  Name = ligands/ligand_41.pdb
DOCKED: REMARK  36 active torsions:
DOCKED: REMARK  status: ('A' for Active; 'I' for Inactive)
DOCKED: REMARK    1  A    between atoms: C1_1  and  S1_2
DOCKED: REMARK    2  A    between atoms: S1_2  and  C2_3
DOCKED: REMARK    3  A    between atoms: C2_3  and  C3_4
DOCKED: REMARK    4  A    between atoms: C3_4  and  C4_5
DOCKED: REMARK    5  A    between atoms: C4_5  and  N1_6
DOCKED: REMARK    6  A    between atoms: C4_5  and  C12_17
DOCKED: REMARK    7  A    between atoms: C5_7  and  C6_9
DOCKED: REMARK    8  A    between atoms: C6_9  and  N2_10
DOCKED: REMARK    9  A    between atoms: C6_9  and  C9_14
DOCKED: REMARK   10  A    between atoms: C7_11  and  C8_12
DOCKED: REMARK   11  A    between atoms: C9_14  and  C10_15
DOCKED: REMARK   12  A    between atoms: C9_14  and  C11_16
DOCKED: REMARK   13  A    between atoms: N3_19  and  C13_20
DOCKED: REMARK   14  A    between atoms: C13_20  and  C14_21
DOCKED: REMARK   15  A    between atoms: C13_20  and  C18_25
DOCKED: REMARK   16  A    between atoms: C14_21  and  C15_22
DOCKED: REMARK   17  A    between atoms: C15_22  and  C16_23
DOCKED: REMARK   18  A    between atoms: C15_22  and  C17_24
DOCKED: REMARK   19  A    between atoms: C18_25  and  O4_26
DOCKED: REMARK   20  A    between atoms: C18_25  and  C19_27
DOCKED: REMARK   21  A    between atoms: C19_27  and  C20_28
DOCKED: REMARK   22  A    between atoms: C24_34  and  C25_35
DOCKED: REMARK   23  A    between atoms: N5_37  and  C26_38
DOCKED: REMARK   24  A    between atoms: C26_38  and  C27_39
DOCKED: REMARK   25  A    between atoms: C26_38  and  C28_40
DOCKED: REMARK   26  A    between atoms: N6_42  and  C29_43
DOCKED: REMARK   27  A    between atoms: C29_43  and  C30_44
DOCKED: REMARK   28  A    between atoms: C29_43  and  C33_49
DOCKED: REMARK   29  A    between atoms: C30_44  and  C31_45
DOCKED: REMARK   30  A    between atoms: C31_45  and  C32_46
DOCKED: REMARK   31  A    between atoms: C32_46  and  O9_48
DOCKED: REMARK   32  A    between atoms: N7_51  and  C34_52
DOCKED: REMARK   33  A    between atoms: C34_52  and  C35_53
DOCKED: REMARK   34  A    between atoms: C34_52  and  C42_60
DOCKED: REMARK   35  A    between atoms: C35_53  and  C36_54
DOCKED: REMARK   36  A    between atoms: C42_60  and  O12_62
DOCKED: REMARK                            x       y       z     vdW  Elec       q    Type
DOCKED: REMARK                         _______ _______ _______ _____ _____    ______ ____
DOCKED: USER                              x       y       z     vdW  Elec       q    Type
DOCKED: USER                           _______ _______ _______ _____ _____    ______ ____
DOCKED: ROOT
DOCKED: ATOM      1  C20 UNL     1      12.991  -9.393   3.120 +0.00 +0.00    +0.219 C  
DOCKED: ATOM      2  O5  UNL     1      11.930  -9.301   3.741 +0.00 -0.00    -0.275 OA 
DOCKED: ATOM      3  N4  UNL     1      13.576  -8.258   2.582 +0.00 -0.00    -0.290 N  
DOCKED: ATOM      4  C21 UNL     1      14.823  -8.265   1.828 +0.00 +0.00    +0.108 C  
DOCKED: ATOM      5  C22 UNL     1      14.783  -7.044   0.918 +0.00 +0.00    +0.021 C  
DOCKED: ATOM      6  C23 UNL     1      13.734  -6.152   1.544 +0.00 +0.00    +0.033 C  
DOCKED: ATOM      7  C24 UNL     1      12.736  -7.120   2.184 +0.00 +0.00    +0.162 C  
DOCKED: ENDROOT
DOCKED: BRANCH   7   8
DOCKED: ATOM      8  C25 UNL     1      11.883  -6.268   3.173 +0.00 +0.00    +0.234 C  
DOCKED: ATOM      9  O6  UNL     1      11.299  -5.253   2.787 +0.00 -0.00    -0.274 OA 
DOCKED: ATOM     10  N5  UNL     1      11.762  -6.753   4.456 +0.00 -0.00    -0.303 N  
DOCKED: ATOM     11  H44 UNL     1      11.933  -7.762   4.489 +0.00 +0.00    +0.149 HD 
DOCKED: BRANCH  10  12
DOCKED: ATOM     12  C26 UNL     1      10.658  -6.363   5.338 +0.00 +0.00    +0.156 C  
DOCKED: ATOM     13  C27 UNL     1      10.687  -4.915   5.810 +0.00 +0.00    +0.038 C  
DOCKED: BRANCH  12  14
DOCKED: ATOM     14  C28 UNL     1       9.320  -6.803   4.687 +0.00 +0.00    +0.234 C  
DOCKED: ATOM     15  O7  UNL     1       8.220  -6.583   5.193 +0.00 -0.00    -0.274 OA 
DOCKED: ATOM     16  N6  UNL     1       9.424  -7.354   3.422 +0.00 -0.00    -0.302 N  
DOCKED: ATOM     17  H49 UNL     1      10.205  -7.990   3.297 +0.00 +0.00    +0.150 HD 
DOCKED: BRANCH  16  18
DOCKED: ATOM     18  C29 UNL     1       8.186  -7.739   2.748 +0.00 +0.00    +0.159 C  
DOCKED: BRANCH  18  19
DOCKED: ATOM     19  C33 UNL     1       7.393  -6.482   2.363 +0.00 +0.00    +0.234 C  
DOCKED: ATOM     20  O10 UNL     1       6.233  -6.532   1.951 +0.00 -0.00    -0.274 OA 
DOCKED: ATOM     21  N7  UNL     1       8.100  -5.310   2.464 +0.00 -0.00    -0.301 N  
DOCKED: ATOM     22  H56 UNL     1       9.102  -5.370   2.607 +0.00 +0.00    +0.150 HD 
DOCKED: BRANCH  21  23
DOCKED: ATOM     23  C34 UNL     1       7.602  -4.058   1.896 +0.00 +0.00    +0.186 C  
DOCKED: BRANCH  23  24
DOCKED: ATOM     24  C42 UNL     1       8.763  -3.353   1.189 +0.00 +0.00    +0.326 C  
DOCKED: ATOM     25  O11 UNL     1       8.704  -2.734   0.137 +0.00 -0.00    -0.249 OA 
DOCKED: BRANCH  24  26
DOCKED: ATOM     26  O12 UNL     1       9.935  -3.468   1.841 +0.00 -0.00    -0.479 OA 
DOCKED: ATOM     27  H65 UNL     1      10.091  -4.435   1.868 +0.00 +0.00    +0.295 HD 
DOCKED: ENDBRANCH  24  26
DOCKED: ENDBRANCH  23  24
DOCKED: BRANCH  23  28
DOCKED: ATOM     28  C35 UNL     1       6.941  -3.161   2.946 +0.00 +0.00    +0.069 C  
DOCKED: BRANCH  28  29
DOCKED: ATOM     29  C36 UNL     1       6.658  -3.836   4.268 +0.00 -0.00    -0.045 A  
DOCKED: ATOM     30  C37 UNL     1       7.464  -3.589   5.390 +0.00 +0.00    +0.004 A  
DOCKED: ATOM     31  C38 UNL     1       7.208  -4.240   6.597 +0.00 +0.00    +0.000 A  
DOCKED: ATOM     32  C39 UNL     1       6.142  -5.127   6.703 +0.00 +0.00    +0.000 A  
DOCKED: ATOM     33  C40 UNL     1       5.320  -5.364   5.602 +0.00 +0.00    +0.000 A  
DOCKED: ATOM     34  C41 UNL     1       5.578  -4.722   4.392 +0.00 +0.00    +0.004 A  
DOCKED: ENDBRANCH  28  29
DOCKED: ENDBRANCH  23  28
DOCKED: ENDBRANCH  21  23
DOCKED: ENDBRANCH  18  19
DOCKED: BRANCH  18  35
DOCKED: ATOM     35  C30 UNL     1       7.341  -8.696   3.605 +0.00 +0.00    +0.043 C  
DOCKED: BRANCH  35  36
DOCKED: ATOM     36  C31 UNL     1       7.348 -10.142   3.115 +0.00 +0.00    +0.123 C  
DOCKED: BRANCH  36  37
DOCKED: ATOM     37  C32 UNL     1       8.749 -10.599   2.869 +0.00 +0.00    +0.305 C  
DOCKED: ATOM     38  O8  UNL     1       9.081 -11.511   2.134 +0.00 -0.00    -0.251 OA 
DOCKED: BRANCH  37  39
DOCKED: ATOM     39  O9  UNL     1       9.655  -9.920   3.596 +0.00 -0.00    -0.481 OA 
DOCKED: ATOM     40  H55 UNL     1      10.196 -10.609   4.025 +0.00 +0.00    +0.295 HD 
DOCKED: ENDBRANCH  37  39
DOCKED: ENDBRANCH  36  37
DOCKED: ENDBRANCH  35  36
DOCKED: ENDBRANCH  18  35
DOCKED: ENDBRANCH  16  18
DOCKED: ENDBRANCH  12  14
DOCKED: ENDBRANCH  10  12
DOCKED: ENDBRANCH   7   8
DOCKED: BRANCH   1  41
DOCKED: ATOM     41  C19 UNL     1      13.697 -10.738   3.031 +0.00 +0.00    +0.129 C  
DOCKED: BRANCH  41  42
DOCKED: ATOM     42  C18 UNL     1      12.764 -11.791   2.400 +0.00 +0.00    +0.143 C  
DOCKED: BRANCH  42  43
DOCKED: ATOM     43  O4  UNL     1      11.592 -11.915   3.241 +0.00 -0.00    -0.389 OA 
DOCKED: ATOM     44  H34 UNL     1      11.014 -11.139   3.049 +0.00 +0.00    +0.210 HD 
DOCKED: ENDBRANCH  42  43
DOCKED: BRANCH  42  45
DOCKED: ATOM     45  C13 UNL     1      12.314 -11.480   0.943 +0.00 +0.00    +0.102 C  
DOCKED: BRANCH  45  48
DOCKED: ATOM     46  C12 UNL     1      10.730  -9.968  -0.277 +0.00 +0.00    +0.234 C  
DOCKED: ATOM     47  O3  UNL     1      11.216 -10.234  -1.379 +0.00 -0.00    -0.274 OA 
DOCKED: ATOM     48  N3  UNL     1      11.111 -10.633   0.867 +0.00 -0.00    -0.308 N  
DOCKED: ATOM     49  H22 UNL     1      10.804 -10.204   1.747 +0.00 +0.00    +0.149 HD 
DOCKED: BRANCH  46  50
DOCKED: ATOM     50  C4  UNL     1       9.635  -8.886  -0.078 +0.00 +0.00    +0.160 C  
DOCKED: BRANCH  50  51
DOCKED: ATOM     51  N1  UNL     1       9.991  -7.719  -0.897 +0.00 -0.00    -0.302 N  
DOCKED: ATOM     52  C5  UNL     1      10.239  -6.513  -0.284 +0.00 +0.00    +0.234 C  
DOCKED: ATOM     53  O1  UNL     1      10.016  -6.350   0.922 +0.00 -0.00    -0.274 OA 
DOCKED: ATOM     54  H9  UNL     1      10.476  -7.906  -1.757 +0.00 +0.00    +0.150 HD 
DOCKED: BRANCH  52  55
DOCKED: ATOM     55  C6  UNL     1      10.695  -5.329  -1.181 +0.00 +0.00    +0.161 C  
DOCKED: BRANCH  55  56
DOCKED: ATOM     56  N2  UNL     1      11.451  -4.466  -0.266 +0.00 -0.00    -0.304 N  
DOCKED: ATOM     57  C7  UNL     1      11.908  -3.223  -0.620 +0.00 +0.00    +0.211 C  
DOCKED: ATOM     58  C8  UNL     1      12.534  -2.451   0.512 +0.00 +0.00    +0.109 C  
DOCKED: ATOM     59  O2  UNL     1      11.870  -2.790  -1.765 +0.00 -0.00    -0.276 OA 
DOCKED: ATOM     60  H11 UNL     1      11.319  -4.668   0.723 +0.00 +0.00    +0.149 HD 
DOCKED: ENDBRANCH  55  56
DOCKED: BRANCH  55  61
DOCKED: ATOM     61  C9  UNL     1      11.527  -5.648  -2.447 +0.00 +0.00    +0.012 C  
DOCKED: ATOM     62  C10 UNL     1      12.682  -6.620  -2.230 +0.00 +0.00    +0.009 C  
DOCKED: ATOM     63  C11 UNL     1      10.639  -6.122  -3.602 +0.00 +0.00    +0.009 C  
DOCKED: ENDBRANCH  55  61
DOCKED: ENDBRANCH  52  55
DOCKED: ENDBRANCH  50  51
DOCKED: BRANCH  50  64
DOCKED: ATOM     64  C3  UNL     1       8.230  -9.402  -0.439 +0.00 +0.00    +0.042 C  
DOCKED: BRANCH  64  65
DOCKED: ATOM     65  C2  UNL     1       7.159  -8.302  -0.430 +0.00 +0.00    +0.071 C  
DOCKED: BRANCH  65  67
DOCKED: ATOM     66  C1  UNL     1       7.016  -5.631  -1.184 +0.00 +0.00    +0.084 C  
DOCKED: ATOM     67  S1  UNL     1       7.083  -7.278  -1.939 +0.00 -0.00    -0.164 S  
DOCKED: ENDBRANCH  65  67
DOCKED: ENDBRANCH  64  65
DOCKED: ENDBRANCH  50  64
DOCKED: ENDBRANCH  46  50
DOCKED: ENDBRANCH  45  48
DOCKED: BRANCH  45  68
DOCKED: ATOM     68  C14 UNL     1      13.450 -10.839   0.103 +0.00 +0.00    +0.028 C  
DOCKED: BRANCH  68  69
DOCKED: ATOM     69  C15 UNL     1      13.965 -11.723  -1.052 +0.00 -0.00    -0.015 C  
DOCKED: ATOM     70  C16 UNL     1      14.152 -10.962  -2.370 +0.00 +0.00    +0.007 C  
DOCKED: ATOM     71  C17 UNL     1      12.993 -12.897  -1.289 +0.00 +0.00    +0.007 C  
DOCKED: ENDBRANCH  68  69
DOCKED: ENDBRANCH  45  68
DOCKED: ENDBRANCH  42  45
DOCKED: ENDBRANCH  41  42
DOCKED: ENDBRANCH   1  41
DOCKED: TORSDOF 29
DOCKED: TER
DOCKED: ENDMDL
________________________________________________________________________________


    FINAL DOCKED STATE:
    ________________________


Run:   3 / 20
Time taken for this run:   5.123s

DOCKED: MODEL        3
DOCKED: USER    Run = 3
DOCKED: USER
DOCKED: USER    Estimated Free Energy of Binding    =  +8.65 kcal/mol  [=(1)+(2)+(3)-(4)]
DOCKED: USER
DOCKED: USER    (1) Final Intermolecular Energy     =  +0.00 kcal/mol
DOCKED: USER        vdW + Hbond + desolv Energy     =  +0.00 kcal/mol
DOCKED: USER        Electrostatic Energy            =  +0.00 kcal/mol
DOCKED: USER        Moving Ligand-Fixed Receptor    =  +0.00 kcal/mol
DOCKED: USER        Moving Ligand-Moving Receptor   =  +0.00 kcal/mol
DOCKED: USER    (2) Final Total Internal Energy     = -23.57 kcal/mol
DOCKED: USER    (3) Torsional Free Energy           =  +8.65 kcal/mol
DOCKED: USER    (4) Unbound System's Energy         = -23.57 kcal/mol
DOCKED: USER
DOCKED: USER
DOCKED: REMARK  Name = ligands/ligand_41.pdb
DOCKED: REMARK  36 active torsions:
DOCKED: REMARK  status: ('A' for Active; 'I' for Inactive)
DOCKED: REMARK    1  A    between atoms: C1_1  and  S1_2
DOCKED: REMARK    2  A    between atoms: S1_2  and  C2_3
DOCKED: REMARK    3  A    between atoms: C2_3  and  C3_4
DOCKED: REMARK    4  A    between atoms: C3_4  and  C4_5
DOCKED: REMARK    5  A    between atoms: C4_5  and  N1_6
DOCKED: REMARK    6  A    between atoms: C4_5  and  C12_17
DOCKED: REMARK    7  A    between atoms: C5_7  and  C6_9
DOCKED: REMARK    8  A    between atoms: C6_9  and  N2_10
DOCKED: REMARK    9  A    between atoms: C6_9  and  C9_14
DOCKED: REMARK   10  A    between atoms: C7_11  and  C8_12
DOCKED: REMARK   11  A    between atoms: C9_14  and  C10_15
DOCKED: REMARK   12  A    between atoms: C9_14  and  C11_16
DOCKED: REMARK   13  A    between atoms: N3_19  and  C13_20
DOCKED: REMARK   14  A    between atoms: C13_20  and  C14_21
DOCKED: REMARK   15  A    between atoms: C13_20  and  C18_25
DOCKED: REMARK   16  A    between atoms: C14_21  and  C15_22
DOCKED: REMARK   17  A    between atoms: C15_22  and  C16_23
DOCKED: REMARK   18  A    between atoms: C15_22  and  C17_24
DOCKED: REMARK   19  A    between atoms: C18_25  and  O4_26
DOCKED: REMARK   20  A    between atoms: C18_25  and  C19_27
DOCKED: REMARK   21  A    between atoms: C19_27  and  C20_28
DOCKED: REMARK   22  A    between atoms: C24_34  and  C25_35
DOCKED: REMARK   23  A    between atoms: N5_37  and  C26_38
DOCKED: REMARK   24  A    between atoms: C26_38  and  C27_39
DOCKED: REMARK   25  A    between atoms: C26_38  and  C28_40
DOCKED: REMARK   26  A    between atoms: N6_42  and  C29_43
DOCKED: REMARK   27  A    between atoms: C29_43  and  C30_44
DOCKED: REMARK   28  A    between atoms: C29_43  and  C33_49
DOCKED: REMARK   29  A    between atoms: C30_44  and  C31_45
DOCKED: REMARK   30  A    between atoms: C31_45  and  C32_46
DOCKED: REMARK   31  A    between atoms: C32_46  and  O9_48
DOCKED: REMARK   32  A    between atoms: N7_51  and  C34_52
DOCKED: REMARK   33  A    between atoms: C34_52  and  C35_53
DOCKED: REMARK   34  A    between atoms: C34_52  and  C42_60
DOCKED: REMARK   35  A    between atoms: C35_53  and  C36_54
DOCKED: REMARK   36  A    between atoms: C42_60  and  O12_62
DOCKED: REMARK                            x       y       z     vdW  Elec       q    Type
DOCKED: REMARK                         _______ _______ _______ _____ _____    ______ ____
DOCKED: USER                              x       y       z     vdW  Elec       q    Type
DOCKED: USER                           _______ _______ _______ _____ _____    ______ ____
DOCKED: ROOT
DOCKED: ATOM      1  C20 UNL     1      11.819  -7.032  -2.052 +0.00 +0.00    +0.219 C  
DOCKED: ATOM      2  O5  UNL     1      12.525  -6.734  -1.086 +0.00 -0.00    -0.275 OA 
DOCKED: ATOM      3  N4  UNL     1      12.211  -6.671  -3.331 +0.00 -0.00    -0.290 N  
DOCKED: ATOM      4  C21 UNL     1      11.444  -6.972  -4.533 +0.00 +0.00    +0.108 C  
DOCKED: ATOM      5  C22 UNL     1      11.831  -5.921  -5.565 +0.00 +0.00    +0.021 C  
DOCKED: ATOM      6  C23 UNL     1      13.143  -5.370  -5.056 +0.00 +0.00    +0.033 C  
DOCKED: ATOM      7  C24 UNL     1      13.042  -5.476  -3.532 +0.00 +0.00    +0.162 C  
DOCKED: ENDROOT
DOCKED: BRANCH   7   8
DOCKED: ATOM      8  C25 UNL     1      14.495  -5.313  -2.990 +0.00 +0.00    +0.234 C  
DOCKED: ATOM      9  O6  UNL     1      15.013  -6.197  -2.305 +0.00 -0.00    -0.274 OA 
DOCKED: ATOM     10  N5  UNL     1      15.173  -4.181  -3.382 +0.00 -0.00    -0.303 N  
DOCKED: ATOM     11  H44 UNL     1      14.783  -3.794  -4.247 +0.00 +0.00    +0.149 HD 
DOCKED: BRANCH  10  12
DOCKED: ATOM     12  C26 UNL     1      16.638  -4.104  -3.370 +0.00 +0.00    +0.156 C  
DOCKED: ATOM     13  C27 UNL     1      17.249  -3.602  -2.068 +0.00 +0.00    +0.038 C  
DOCKED: BRANCH  12  14
DOCKED: ATOM     14  C28 UNL     1      17.212  -5.454  -3.875 +0.00 +0.00    +0.234 C  
DOCKED: ATOM     15  O7  UNL     1      17.355  -5.721  -5.068 +0.00 -0.00    -0.274 OA 
DOCKED: ATOM     16  N6  UNL     1      17.681  -6.308  -2.893 +0.00 -0.00    -0.302 N  
DOCKED: ATOM     17  H49 UNL     1      17.104  -6.359  -2.061 +0.00 +0.00    +0.150 HD 
DOCKED: BRANCH  16  18
DOCKED: ATOM     18  C29 UNL     1      18.276  -7.571  -3.324 +0.00 +0.00    +0.159 C  
DOCKED: BRANCH  18  19
DOCKED: ATOM     19  C33 UNL     1      17.184  -8.502  -3.868 +0.00 +0.00    +0.234 C  
DOCKED: ATOM     20  O10 UNL     1      17.233  -8.992  -4.997 +0.00 -0.00    -0.274 OA 
DOCKED: ATOM     21  N7  UNL     1      16.126  -8.696  -3.016 +0.00 -0.00    -0.301 N  
DOCKED: ATOM     22  H56 UNL     1      16.057  -8.099  -2.199 +0.00 +0.00    +0.150 HD 
DOCKED: BRANCH  21  23
DOCKED: ATOM     23  C34 UNL     1      14.884  -9.329  -3.459 +0.00 +0.00    +0.186 C  
DOCKED: BRANCH  23  24
DOCKED: ATOM     24  C42 UNL     1      13.920  -9.386  -2.271 +0.00 +0.00    +0.326 C  
DOCKED: ATOM     25  O11 UNL     1      12.778  -9.822  -2.283 +0.00 -0.00    -0.249 OA 
DOCKED: BRANCH  24  26
DOCKED: ATOM     26  O12 UNL     1      14.441  -8.886  -1.135 +0.00 -0.00    -0.479 OA 
DOCKED: ATOM     27  H65 UNL     1      14.326  -7.917  -1.234 +0.00 +0.00    +0.295 HD 
DOCKED: ENDBRANCH  24  26
DOCKED: ENDBRANCH  23  24
DOCKED: BRANCH  23  28
DOCKED: ATOM     28  C35 UNL     1      15.118 -10.712  -4.073 +0.00 +0.00    +0.069 C  
DOCKED: BRANCH  28  29
DOCKED: ATOM     29  C36 UNL     1      15.722 -11.728  -3.132 +0.00 -0.00    -0.045 A  
DOCKED: ATOM     30  C37 UNL     1      14.997 -12.861  -2.735 +0.00 +0.00    +0.004 A  
DOCKED: ATOM     31  C38 UNL     1      15.556 -13.779  -1.845 +0.00 +0.00    +0.000 A  
DOCKED: ATOM     32  C39 UNL     1      16.843 -13.585  -1.355 +0.00 +0.00    +0.000 A  
DOCKED: ATOM     33  C40 UNL     1      17.583 -12.475  -1.760 +0.00 +0.00    +0.000 A  
DOCKED: ATOM     34  C41 UNL     1      17.025 -11.552  -2.642 +0.00 +0.00    +0.004 A  
DOCKED: ENDBRANCH  28  29
DOCKED: ENDBRANCH  23  28
DOCKED: ENDBRANCH  21  23
DOCKED: ENDBRANCH  18  19
DOCKED: BRANCH  18  35
DOCKED: ATOM     35  C30 UNL     1      19.074  -8.242  -2.194 +0.00 +0.00    +0.043 C  
DOCKED: BRANCH  35  36
DOCKED: ATOM     36  C31 UNL     1      18.645  -7.818  -0.791 +0.00 +0.00    +0.123 C  
DOCKED: BRANCH  36  37
DOCKED: ATOM     37  C32 UNL     1      17.262  -8.303  -0.504 +0.00 +0.00    +0.305 C  
DOCKED: ATOM     38  O8  UNL     1      16.892  -9.463  -0.545 +0.00 -0.00    -0.251 OA 
DOCKED: BRANCH  37  39
DOCKED: ATOM     39  O9  UNL     1      16.403  -7.304  -0.230 +0.00 -0.00    -0.481 OA 
DOCKED: ATOM     40  H55 UNL     1      15.583  -7.545  -0.700 +0.00 +0.00    +0.295 HD 
DOCKED: ENDBRANCH  37  39
DOCKED: ENDBRANCH  36  37
DOCKED: ENDBRANCH  35  36
DOCKED: ENDBRANCH  18  35
DOCKED: ENDBRANCH  16  18
DOCKED: ENDBRANCH  12  14
DOCKED: ENDBRANCH  10  12
DOCKED: ENDBRANCH   7   8
DOCKED: BRANCH   1  41
DOCKED: ATOM     41  C19 UNL     1      10.571  -7.876  -1.840 +0.00 +0.00    +0.129 C  
DOCKED: BRANCH  41  42
DOCKED: ATOM     42  C18 UNL     1      10.492  -8.355  -0.376 +0.00 +0.00    +0.143 C  
DOCKED: BRANCH  42  43
DOCKED: ATOM     43  O4  UNL     1      11.723  -9.051  -0.063 +0.00 -0.00    -0.389 OA 
DOCKED: ATOM     44  H34 UNL     1      12.461  -8.520  -0.447 +0.00 +0.00    +0.210 HD 
DOCKED: ENDBRANCH  42  43
DOCKED: BRANCH  42  45
DOCKED: ATOM     45  C13 UNL     1      10.264  -7.228   0.672 +0.00 +0.00    +0.102 C  
DOCKED: BRANCH  45  48
DOCKED: ATOM     46  C12 UNL     1      11.633  -5.536   1.916 +0.00 +0.00    +0.234 C  
DOCKED: ATOM     47  O3  UNL     1      10.655  -4.827   2.165 +0.00 -0.00    -0.274 OA 
DOCKED: ATOM     48  N3  UNL     1      11.504  -6.774   1.325 +0.00 -0.00    -0.308 N  
DOCKED: ATOM     49  H22 UNL     1      12.376  -7.187   0.979 +0.00 +0.00    +0.149 HD 
DOCKED: BRANCH  46  50
DOCKED: ATOM     50  C4  UNL     1      13.087  -5.118   2.262 +0.00 +0.00    +0.160 C  
DOCKED: BRANCH  50  51
DOCKED: ATOM     51  N1  UNL     1      13.777  -6.287   2.822 +0.00 -0.00    -0.302 N  
DOCKED: ATOM     52  C5  UNL     1      14.270  -7.252   1.974 +0.00 +0.00    +0.234 C  
DOCKED: ATOM     53  O1  UNL     1      14.008  -7.236   0.765 +0.00 -0.00    -0.274 OA 
DOCKED: ATOM     54  H9  UNL     1      14.261  -6.148   3.692 +0.00 +0.00    +0.150 HD 
DOCKED: BRANCH  52  55
DOCKED: ATOM     55  C6  UNL     1      15.067  -8.427   2.605 +0.00 +0.00    +0.161 C  
DOCKED: BRANCH  55  56
DOCKED: ATOM     56  N2  UNL     1      15.139  -9.422   1.528 +0.00 -0.00    -0.304 N  
DOCKED: ATOM     57  C7  UNL     1      14.618 -10.684   1.642 +0.00 +0.00    +0.211 C  
DOCKED: ATOM     58  C8  UNL     1      14.674 -11.491   0.371 +0.00 +0.00    +0.109 C  
DOCKED: ATOM     59  O2  UNL     1      14.192 -11.146   2.693 +0.00 -0.00    -0.276 OA 
DOCKED: ATOM     60  H11 UNL     1      15.270  -9.036   0.595 +0.00 +0.00    +0.149 HD 
DOCKED: ENDBRANCH  55  56
DOCKED: BRANCH  55  61
DOCKED: ATOM     61  C9  UNL     1      16.477  -8.133   3.174 +0.00 +0.00    +0.012 C  
DOCKED: ATOM     62  C10 UNL     1      17.527  -9.197   2.875 +0.00 +0.00    +0.009 C  
DOCKED: ATOM     63  C11 UNL     1      16.980  -6.750   2.748 +0.00 +0.00    +0.009 C  
DOCKED: ENDBRANCH  55  61
DOCKED: ENDBRANCH  52  55
DOCKED: ENDBRANCH  50  51
DOCKED: BRANCH  50  64
DOCKED: ATOM     64  C3  UNL     1      13.844  -4.567   1.039 +0.00 +0.00    +0.042 C  
DOCKED: BRANCH  64  65
DOCKED: ATOM     65  C2  UNL     1      13.195  -3.311   0.439 +0.00 +0.00    +0.071 C  
DOCKED: BRANCH  65  67
DOCKED: ATOM     66  C1  UNL     1      10.585  -2.813  -0.375 +0.00 +0.00    +0.084 C  
DOCKED: ATOM     67  S1  UNL     1      12.093  -3.611  -0.986 +0.00 -0.00    -0.164 S  
DOCKED: ENDBRANCH  65  67
DOCKED: ENDBRANCH  64  65
DOCKED: ENDBRANCH  50  64
DOCKED: ENDBRANCH  46  50
DOCKED: ENDBRANCH  45  48
DOCKED: BRANCH  45  68
DOCKED: ATOM     68  C14 UNL     1       9.522  -6.007   0.066 +0.00 +0.00    +0.028 C  
DOCKED: BRANCH  68  69
DOCKED: ATOM     69  C15 UNL     1       8.051  -6.278  -0.309 +0.00 -0.00    -0.015 C  
DOCKED: ATOM     70  C16 UNL     1       7.674  -5.780  -1.711 +0.00 +0.00    +0.007 C  
DOCKED: ATOM     71  C17 UNL     1       7.114  -5.617   0.721 +0.00 +0.00    +0.007 C  
DOCKED: ENDBRANCH  68  69
DOCKED: ENDBRANCH  45  68
DOCKED: ENDBRANCH  42  45
DOCKED: ENDBRANCH  41  42
DOCKED: ENDBRANCH   1  41
DOCKED: TORSDOF 29
DOCKED: TER
DOCKED: ENDMDL
________________________________________________________________________________


    FINAL DOCKED STATE:
    ________________________


Run:   4 / 20
Time taken for this run:   5.123s

DOCKED: MODEL        4
DOCKED: USER    Run = 4
DOCKED: USER
DOCKED: USER    Estimated Free Energy of Binding    =  +8.65 kcal/mol  [=(1)+(2)+(3)-(4)]
DOCKED: USER
DOCKED: USER    (1) Final Intermolecular Energy     =  +0.00 kcal/mol
DOCKED: USER        vdW + Hbond + desolv Energy     =  +0.00 kcal/mol
DOCKED: USER        Electrostatic Energy            =  +0.00 kcal/mol
DOCKED: USER        Moving Ligand-Fixed Receptor    =  +0.00 kcal/mol
DOCKED: USER        Moving Ligand-Moving Receptor   =  +0.00 kcal/mol
DOCKED: USER    (2) Final Total Internal Energy     = -22.72 kcal/mol
DOCKED: USER    (3) Torsional Free Energy           =  +8.65 kcal/mol
DOCKED: USER    (4) Unbound System's Energy         = -22.72 kcal/mol
DOCKED: USER
DOCKED: USER
DOCKED: REMARK  Name = ligands/ligand_41.pdb
DOCKED: REMARK  36 active torsions:
DOCKED: REMARK  status: ('A' for Active; 'I' for Inactive)
DOCKED: REMARK    1  A    between atoms: C1_1  and  S1_2
DOCKED: REMARK    2  A    between atoms: S1_2  and  C2_3
DOCKED: REMARK    3  A    between atoms: C2_3  and  C3_4
DOCKED: REMARK    4  A    between atoms: C3_4  and  C4_5
DOCKED: REMARK    5  A    between atoms: C4_5  and  N1_6
DOCKED: REMARK    6  A    between atoms: C4_5  and  C12_17
DOCKED: REMARK    7  A    between atoms: C5_7  and  C6_9
DOCKED: REMARK    8  A    between atoms: C6_9  and  N2_10
DOCKED: REMARK    9  A    between atoms: C6_9  and  C9_14
DOCKED: REMARK   10  A    between atoms: C7_11  and  C8_12
DOCKED: REMARK   11  A    between atoms: C9_14  and  C10_15
DOCKED: REMARK   12  A    between atoms: C9_14  and  C11_16
DOCKED: REMARK   13  A    between atoms: N3_19  and  C13_20
DOCKED: REMARK   14  A    between atoms: C13_20  and  C14_21
DOCKED: REMARK   15  A    between atoms: C13_20  and  C18_25
DOCKED: REMARK   16  A    between atoms: C14_21  and  C15_22
DOCKED: REMARK   17  A    between atoms: C15_22  and  C16_23
DOCKED: REMARK   18  A    between atoms: C15_22  and  C17_24
DOCKED: REMARK   19  A    between atoms: C18_25  and  O4_26
DOCKED: REMARK   20  A    between atoms: C18_25  and  C19_27
DOCKED: REMARK   21  A    between atoms: C19_27  and  C20_28
DOCKED: REMARK   22  A    between atoms: C24_34  and  C25_35
DOCKED: REMARK   23  A    between atoms: N5_37  and  C26_38
DOCKED: REMARK   24  A    between atoms: C26_38  and  C27_39
DOCKED: REMARK   25  A    between atoms: C26_38  and  C28_40
DOCKED: REMARK   26  A    between atoms: N6_42  and  C29_43
DOCKED: REMARK   27  A    between atoms: C29_43  and  C30_44
DOCKED: REMARK   28  A    between atoms: C29_43  and  C33_49
DOCKED: REMARK   29  A    between atoms: C30_44  and  C31_45
DOCKED: REMARK   30  A    between atoms: C31_45  and  C32_46
DOCKED: REMARK   31  A    between atoms: C32_46  and  O9_48
DOCKED: REMARK   32  A    between atoms: N7_51  and  C34_52
DOCKED: REMARK   33  A    between atoms: C34_52  and  C35_53
DOCKED: REMARK   34  A    between atoms: C34_52  and  C42_60
DOCKED: REMARK   35  A    between atoms: C35_53  and  C36_54
DOCKED: REMARK   36  A    between atoms: C42_60  and  O12_62
DOCKED: REMARK                            x       y       z     vdW  Elec       q    Type
DOCKED: REMARK                         _______ _______ _______ _____ _____    ______ ____
DOCKED: USER                              x       y       z     vdW  Elec       q    Type
DOCKED: USER                           _______ _______ _______ _____ _____    ______ ____
DOCKED: ROOT
DOCKED: ATOM      1  C20 UNL     1      10.149  -2.539   1.831 +0.00 +0.00    +0.219 C  
DOCKED: ATOM      2  O5  UNL     1      10.923  -2.689   0.883 +0.00 -0.00    -0.275 OA 
DOCKED: ATOM      3  N4  UNL     1       9.538  -3.643   2.405 +0.00 -0.00    -0.290 N  
DOCKED: ATOM      4  C21 UNL     1       8.606  -3.568   3.523 +0.00 +0.00    +0.108 C  
DOCKED: ATOM      5  C22 UNL     1       7.723  -4.805   3.430 +0.00 +0.00    +0.021 C  
DOCKED: ATOM      6  C23 UNL     1       8.505  -5.752   2.549 +0.00 +0.00    +0.033 C  
DOCKED: ATOM      7  C24 UNL     1       9.280  -4.841   1.594 +0.00 +0.00    +0.162 C  
DOCKED: ENDROOT
DOCKED: BRANCH   7   8
DOCKED: ATOM      8  C25 UNL     1      10.392  -5.729   0.957 +0.00 +0.00    +0.234 C  
DOCKED: ATOM      9  O6  UNL     1      10.361  -6.956   1.074 +0.00 -0.00    -0.274 OA 
DOCKED: ATOM     10  N5  UNL     1      11.345  -5.077   0.207 +0.00 -0.00    -0.303 N  
DOCKED: ATOM     11  H44 UNL     1      10.998  -4.174  -0.130 +0.00 +0.00    +0.149 HD 
DOCKED: BRANCH  10  12
DOCKED: ATOM     12  C26 UNL     1      12.140  -5.765  -0.815 +0.00 +0.00    +0.156 C  
DOCKED: ATOM     13  C27 UNL     1      11.362  -6.220  -2.043 +0.00 +0.00    +0.038 C  
DOCKED: BRANCH  12  14
DOCKED: ATOM     14  C28 UNL     1      13.397  -4.910  -1.127 +0.00 +0.00    +0.234 C  
DOCKED: ATOM     15  O7  UNL     1      14.518  -5.178  -0.696 +0.00 -0.00    -0.274 OA 
DOCKED: ATOM     16  N6  UNL     1      13.211  -3.884  -2.036 +0.00 -0.00    -0.302 N  
DOCKED: ATOM     17  H49 UNL     1      12.344  -3.369  -1.925 +0.00 +0.00    +0.150 HD 
DOCKED: BRANCH  16  18
DOCKED: ATOM     18  C29 UNL     1      14.377  -3.082  -2.399 +0.00 +0.00    +0.159 C  
DOCKED: BRANCH  18  19
DOCKED: ATOM     19  C33 UNL     1      15.106  -2.621  -1.129 +0.00 +0.00    +0.234 C  
DOCKED: ATOM     20  O10 UNL     1      16.272  -2.932  -0.885 +0.00 -0.00    -0.274 OA 
DOCKED: ATOM     21  N7  UNL     1      14.334  -1.881  -0.267 +0.00 -0.00    -0.301 N  
DOCKED: ATOM     22  H56 UNL     1      13.335  -1.845  -0.436 +0.00 +0.00    +0.150 HD 
DOCKED: BRANCH  21  23
DOCKED: ATOM     23  C34 UNL     1      14.770  -1.583   1.096 +0.00 +0.00    +0.186 C  
DOCKED: BRANCH  23  24
DOCKED: ATOM     24  C42 UNL     1      13.529  -1.433   1.979 +0.00 +0.00    +0.326 C  
DOCKED: ATOM     25  O11 UNL     1      13.415  -1.798   3.140 +0.00 -0.00    -0.249 OA 
DOCKED: BRANCH  24  26
DOCKED: ATOM     26  O12 UNL     1      12.497  -0.836   1.353 +0.00 -0.00    -0.479 OA 
DOCKED: ATOM     27  H65 UNL     1      12.488  -1.259   0.469 +0.00 +0.00    +0.295 HD 
DOCKED: ENDBRANCH  24  26
DOCKED: ENDBRANCH  23  24
DOCKED: BRANCH  23  28
DOCKED: ATOM     28  C35 UNL     1      15.675  -0.350   1.165 +0.00 +0.00    +0.069 C  
DOCKED: BRANCH  28  29
DOCKED: ATOM     29  C36 UNL     1      15.342   0.736   0.167 +0.00 -0.00    -0.045 A  
DOCKED: ATOM     30  C37 UNL     1      14.326   1.666   0.429 +0.00 +0.00    +0.004 A  
DOCKED: ATOM     31  C38 UNL     1      14.010   2.647  -0.512 +0.00 +0.00    +0.000 A  
DOCKED: ATOM     32  C39 UNL     1      14.712   2.719  -1.711 +0.00 +0.00    +0.000 A  
DOCKED: ATOM     33  C40 UNL     1      15.740   1.815  -1.973 +0.00 +0.00    +0.000 A  
DOCKED: ATOM     34  C41 UNL     1      16.052   0.829  -1.039 +0.00 +0.00    +0.004 A  
DOCKED: ENDBRANCH  28  29
DOCKED: ENDBRANCH  23  28
DOCKED: ENDBRANCH  21  23
DOCKED: ENDBRANCH  18  19
DOCKED: BRANCH  18  35
DOCKED: ATOM     35  C30 UNL     1      13.996  -1.890  -3.292 +0.00 +0.00    +0.043 C  
DOCKED: BRANCH  35  36
DOCKED: ATOM     36  C31 UNL     1      12.510  -1.541  -3.266 +0.00 +0.00    +0.123 C  
DOCKED: BRANCH  36  37
DOCKED: ATOM     37  C32 UNL     1      12.102  -1.120  -1.892 +0.00 +0.00    +0.305 C  
DOCKED: ATOM     38  O8  UNL     1      12.406  -0.073  -1.349 +0.00 -0.00    -0.251 OA 
DOCKED: BRANCH  37  39
DOCKED: ATOM     39  O9  UNL     1      11.377  -2.055  -1.252 +0.00 -0.00    -0.481 OA 
DOCKED: ATOM     40  H55 UNL     1      11.226  -1.688  -0.361 +0.00 +0.00    +0.295 HD 
DOCKED: ENDBRANCH  37  39
DOCKED: ENDBRANCH  36  37
DOCKED: ENDBRANCH  35  36
DOCKED: ENDBRANCH  18  35
DOCKED: ENDBRANCH  16  18
DOCKED: ENDBRANCH  12  14
DOCKED: ENDBRANCH  10  12
DOCKED: ENDBRANCH   7   8
DOCKED: BRANCH   1  41
DOCKED: ATOM     41  C19 UNL     1       9.945  -1.153   2.424 +0.00 +0.00    +0.129 C  
DOCKED: BRANCH  41  42
DOCKED: ATOM     42  C18 UNL     1       9.454  -0.174   1.338 +0.00 +0.00    +0.143 C  
DOCKED: BRANCH  42  43
DOCKED: ATOM     43  O4  UNL     1      10.596   0.224   0.541 +0.00 -0.00    -0.389 OA 
DOCKED: ATOM     44  H34 UNL     1      11.111  -0.595   0.344 +0.00 +0.00    +0.210 HD 
DOCKED: ENDBRANCH  42  43
DOCKED: BRANCH  42  45
DOCKED: ATOM     45  C13 UNL     1       8.349  -0.737   0.397 +0.00 +0.00    +0.102 C  
DOCKED: BRANCH  45  48
DOCKED: ATOM     46  C12 UNL     1       8.362  -1.314  -2.043 +0.00 +0.00    +0.234 C  
DOCKED: ATOM     47  O3  UNL     1       7.588  -0.399  -2.333 +0.00 -0.00    -0.274 OA 
DOCKED: ATOM     48  N3  UNL     1       8.884  -1.452  -0.775 +0.00 -0.00    -0.308 N  
DOCKED: ATOM     49  H22 UNL     1       9.347  -2.348  -0.586 +0.00 +0.00    +0.149 HD 
DOCKED: BRANCH  46  50
DOCKED: ATOM     50  C4  UNL     1       8.840  -2.373  -3.072 +0.00 +0.00    +0.160 C  
DOCKED: BRANCH  50  51
DOCKED: ATOM     51  N1  UNL     1       8.012  -3.575  -2.909 +0.00 -0.00    -0.302 N  
DOCKED: ATOM     52  C5  UNL     1       8.283  -4.450  -1.883 +0.00 +0.00    +0.234 C  
DOCKED: ATOM     53  O1  UNL     1       9.302  -4.330  -1.192 +0.00 -0.00    -0.274 OA 
DOCKED: ATOM     54  H9  UNL     1       7.057  -3.506  -3.215 +0.00 +0.00    +0.150 HD 
DOCKED: BRANCH  52  55
DOCKED: ATOM     55  C6  UNL     1       7.329  -5.662  -1.698 +0.00 +0.00    +0.161 C  
DOCKED: BRANCH  55  56
DOCKED: ATOM     56  N2  UNL     1       8.199  -6.717  -1.165 +0.00 -0.00    -0.304 N  
DOCKED: ATOM     57  C7  UNL     1       8.323  -7.949  -1.751 +0.00 +0.00    +0.211 C  
DOCKED: ATOM     58  C8  UNL     1       9.375  -8.827  -1.125 +0.00 +0.00    +0.109 C  
DOCKED: ATOM     59  O2  UNL     1       7.609  -8.335  -2.668 +0.00 -0.00    -0.276 OA 
DOCKED: ATOM     60  H11 UNL     1       8.955  -6.388  -0.567 +0.00 +0.00    +0.149 HD 
DOCKED: ENDBRANCH  55  56
DOCKED: BRANCH  55  61
DOCKED: ATOM     61  C9  UNL     1       6.079  -5.479  -0.802 +0.00 +0.00    +0.012 C  
DOCKED: ATOM     62  C10 UNL     1       4.748  -5.475  -1.547 +0.00 +0.00    +0.009 C  
DOCKED: ATOM     63  C11 UNL     1       6.050  -6.500   0.341 +0.00 +0.00    +0.009 C  
DOCKED: ENDBRANCH  55  61
DOCKED: ENDBRANCH  52  55
DOCKED: ENDBRANCH  50  51
DOCKED: BRANCH  50  64
DOCKED: ATOM     64  C3  UNL     1       8.776  -1.853  -4.519 +0.00 +0.00    +0.042 C  
DOCKED: BRANCH  64  65
DOCKED: ATOM     65  C2  UNL     1       9.706  -2.610  -5.479 +0.00 +0.00    +0.071 C  
DOCKED: BRANCH  65  67
DOCKED: ATOM     66  C1  UNL     1       9.591  -5.352  -5.044 +0.00 +0.00    +0.084 C  
DOCKED: ATOM     67  S1  UNL     1      10.688  -3.947  -4.717 +0.00 -0.00    -0.164 S  
DOCKED: ENDBRANCH  65  67
DOCKED: ENDBRANCH  64  65
DOCKED: ENDBRANCH  50  64
DOCKED: ENDBRANCH  46  50
DOCKED: ENDBRANCH  45  48
DOCKED: BRANCH  45  68
DOCKED: ATOM     68  C14 UNL     1       7.352  -1.656   1.151 +0.00 +0.00    +0.028 C  
DOCKED: BRANCH  68  69
DOCKED: ATOM     69  C15 UNL     1       6.173  -2.157   0.290 +0.00 -0.00    -0.015 C  
DOCKED: ATOM     70  C16 UNL     1       5.364  -1.028  -0.358 +0.00 +0.00    +0.007 C  
DOCKED: ATOM     71  C17 UNL     1       5.225  -3.019   1.148 +0.00 +0.00    +0.007 C  
DOCKED: ENDBRANCH  68  69
DOCKED: ENDBRANCH  45  68
DOCKED: ENDBRANCH  42  45
DOCKED: ENDBRANCH  41  42
DOCKED: ENDBRANCH   1  41
DOCKED: TORSDOF 29
DOCKED: TER
DOCKED: ENDMDL
________________________________________________________________________________


    FINAL DOCKED STATE:
    ________________________


Run:   5 / 20
Time taken for this run:   5.123s

DOCKED: MODEL        5
DOCKED: USER    Run = 5
DOCKED: USER
DOCKED: USER    Estimated Free Energy of Binding    =  +8.65 kcal/mol  [=(1)+(2)+(3)-(4)]
DOCKED: USER
DOCKED: USER    (1) Final Intermolecular Energy     =  +0.00 kcal/mol
DOCKED: USER        vdW + Hbond + desolv Energy     =  +0.00 kcal/mol
DOCKED: USER        Electrostatic Energy            =  +0.00 kcal/mol
DOCKED: USER        Moving Ligand-Fixed Receptor    =  +0.00 kcal/mol
DOCKED: USER        Moving Ligand-Moving Receptor   =  +0.00 kcal/mol
DOCKED: USER    (2) Final Total Internal Energy     = -23.31 kcal/mol
DOCKED: USER    (3) Torsional Free Energy           =  +8.65 kcal/mol
DOCKED: USER    (4) Unbound System's Energy         = -23.31 kcal/mol
DOCKED: USER
DOCKED: USER
DOCKED: REMARK  Name = ligands/ligand_41.pdb
DOCKED: REMARK  36 active torsions:
DOCKED: REMARK  status: ('A' for Active; 'I' for Inactive)
DOCKED: REMARK    1  A    between atoms: C1_1  and  S1_2
DOCKED: REMARK    2  A    between atoms: S1_2  and  C2_3
DOCKED: REMARK    3  A    between atoms: C2_3  and  C3_4
DOCKED: REMARK    4  A    between atoms: C3_4  and  C4_5
DOCKED: REMARK    5  A    between atoms: C4_5  and  N1_6
DOCKED: REMARK    6  A    between atoms: C4_5  and  C12_17
DOCKED: REMARK    7  A    between atoms: C5_7  and  C6_9
DOCKED: REMARK    8  A    between atoms: C6_9  and  N2_10
DOCKED: REMARK    9  A    between atoms: C6_9  and  C9_14
DOCKED: REMARK   10  A    between atoms: C7_11  and  C8_12
DOCKED: REMARK   11  A    between atoms: C9_14  and  C10_15
DOCKED: REMARK   12  A    between atoms: C9_14  and  C11_16
DOCKED: REMARK   13  A    between atoms: N3_19  and  C13_20
DOCKED: REMARK   14  A    between atoms: C13_20  and  C14_21
DOCKED: REMARK   15  A    between atoms: C13_20  and  C18_25
DOCKED: REMARK   16  A    between atoms: C14_21  and  C15_22
DOCKED: REMARK   17  A    between atoms: C15_22  and  C16_23
DOCKED: REMARK   18  A    between atoms: C15_22  and  C17_24
DOCKED: REMARK   19  A    between atoms: C18_25  and  O4_26
DOCKED: REMARK   20  A    between atoms: C18_25  and  C19_27
DOCKED: REMARK   21  A    between atoms: C19_27  and  C20_28
DOCKED: REMARK   22  A    between atoms: C24_34  and  C25_35
DOCKED: REMARK   23  A    between atoms: N5_37  and  C26_38
DOCKED: REMARK   24  A    between atoms: C26_38  and  C27_39
DOCKED: REMARK   25  A    between atoms: C26_38  and  C28_40
DOCKED: REMARK   26  A    between atoms: N6_42  and  C29_43
DOCKED: REMARK   27  A    between atoms: C29_43  and  C30_44
DOCKED: REMARK   28  A    between atoms: C29_43  and  C33_49
DOCKED: REMARK   29  A    between atoms: C30_44  and  C31_45
DOCKED: REMARK   30  A    between atoms: C31_45  and  C32_46
DOCKED: REMARK   31  A    between atoms: C32_46  and  O9_48
DOCKED: REMARK   32  A    between atoms: N7_51  and  C34_52
DOCKED: REMARK   33  A    between atoms: C34_52  and  C35_53
DOCKED: REMARK   34  A    between atoms: C34_52  and  C42_60
DOCKED: REMARK   35  A    between atoms: C35_53  and  C36_54
DOCKED: REMARK   36  A    between atoms: C42_60  and  O12_62
DOCKED: REMARK                            x       y       z     vdW  Elec       q    Type
DOCKED: REMARK                         _______ _______ _______ _____ _____    ______ ____
DOCKED: USER                              x       y       z     vdW  Elec       q    Type
DOCKED: USER                           _______ _______ _______ _____ _____    ______ ____
DOCKED: ROOT
DOCKED: ATOM      1  C20 UNL     1      16.198   0.332  -1.906 +0.00 +0.00    +0.219 C  
DOCKED: ATOM      2  O5  UNL     1      16.441  -0.763  -2.417 +0.00 -0.00    -0.275 OA 
DOCKED: ATOM      3  N4  UNL     1      15.788   0.401  -0.585 +0.00 -0.00    -0.290 N  
DOCKED: ATOM      4  C21 UNL     1      15.472   1.645   0.106 +0.00 +0.00    +0.108 C  
DOCKED: ATOM      5  C22 UNL     1      14.505   1.282   1.226 +0.00 +0.00    +0.021 C  
DOCKED: ATOM      6  C23 UNL     1      14.695  -0.207   1.409 +0.00 +0.00    +0.033 C  
DOCKED: ATOM      7  C24 UNL     1      15.057  -0.725   0.015 +0.00 +0.00    +0.162 C  
DOCKED: ENDROOT
DOCKED: BRANCH   7   8
DOCKED: ATOM      8  C25 UNL     1      15.655  -2.149   0.226 +0.00 +0.00    +0.234 C  
DOCKED: ATOM      9  O6  UNL     1      15.494  -2.748   1.292 +0.00 -0.00    -0.274 OA 
DOCKED: ATOM     10  N5  UNL     1      16.292  -2.714  -0.855 +0.00 -0.00    -0.303 N  
DOCKED: ATOM     11  H44 UNL     1      15.975  -2.295  -1.734 +0.00 +0.00    +0.149 HD 
DOCKED: BRANCH  10  12
DOCKED: ATOM     12  C26 UNL     1      16.476  -4.164  -0.984 +0.00 +0.00    +0.156 C  
DOCKED: ATOM     13  C27 UNL     1      15.198  -4.959  -1.222 +0.00 +0.00    +0.038 C  
DOCKED: BRANCH  12  14
DOCKED: ATOM     14  C28 UNL     1      17.605  -4.434  -2.013 +0.00 +0.00    +0.234 C  
DOCKED: ATOM     15  O7  UNL     1      18.335  -5.424  -1.967 +0.00 -0.00    -0.274 OA 
DOCKED: ATOM     16  N6  UNL     1      17.669  -3.551  -3.076 +0.00 -0.00    -0.302 N  
DOCKED: ATOM     17  H49 UNL     1      17.518  -2.578  -2.832 +0.00 +0.00    +0.150 HD 
DOCKED: BRANCH  16  18
DOCKED: ATOM     18  C29 UNL     1      18.686  -3.794  -4.097 +0.00 +0.00    +0.159 C  
DOCKED: BRANCH  18  19
DOCKED: ATOM     19  C33 UNL     1      19.467  -2.501  -4.369 +0.00 +0.00    +0.234 C  
DOCKED: ATOM     20  O10 UNL     1      20.692  -2.482  -4.495 +0.00 -0.00    -0.274 OA 
DOCKED: ATOM     21  N7  UNL     1      18.695  -1.367  -4.407 +0.00 -0.00    -0.301 N  
DOCKED: ATOM     22  H56 UNL     1      17.734  -1.435  -4.089 +0.00 +0.00    +0.150 HD 
DOCKED: BRANCH  21  23
DOCKED: ATOM     23  C34 UNL     1      19.286  -0.030  -4.391 +0.00 +0.00    +0.186 C  
DOCKED: BRANCH  23  24
DOCKED: ATOM     24  C42 UNL     1      19.852   0.265  -5.783 +0.00 +0.00    +0.326 C  
DOCKED: ATOM     25  O11 UNL     1      20.964   0.701  -6.037 +0.00 -0.00    -0.249 OA 
DOCKED: BRANCH  24  26
DOCKED: ATOM     26  O12 UNL     1      18.985   0.000  -6.779 +0.00 -0.00    -0.479 OA 
DOCKED: ATOM     27  H65 UNL     1      18.151  -0.211  -6.309 +0.00 +0.00    +0.295 HD 
DOCKED: ENDBRANCH  24  26
DOCKED: ENDBRANCH  23  24
DOCKED: BRANCH  23  28
DOCKED: ATOM     28  C35 UNL     1      20.346   0.128  -3.297 +0.00 +0.00    +0.069 C  
DOCKED: BRANCH  28  29
DOCKED: ATOM     29  C36 UNL     1      19.830  -0.039  -1.887 +0.00 -0.00    -0.045 A  
DOCKED: ATOM     30  C37 UNL     1      19.663  -1.315  -1.329 +0.00 +0.00    +0.004 A  
DOCKED: ATOM     31  C38 UNL     1      19.160  -1.458  -0.035 +0.00 +0.00    +0.000 A  
DOCKED: ATOM     32  C39 UNL     1      18.834  -0.334   0.717 +0.00 +0.00    +0.000 A  
DOCKED: ATOM     33  C40 UNL     1      19.018   0.941   0.183 +0.00 +0.00    +0.000 A  
DOCKED: ATOM     34  C41 UNL     1      19.512   1.086  -1.112 +0.00 +0.00    +0.004 A  
DOCKED: ENDBRANCH  28  29
DOCKED: ENDBRANCH  23  28
DOCKED: ENDBRANCH  21  23
DOCKED: ENDBRANCH  18  19
DOCKED: BRANCH  18  35
DOCKED: ATOM     35  C30 UNL     1      18.075  -4.365  -5.388 +0.00 +0.00    +0.043 C  
DOCKED: BRANCH  35  36
DOCKED: ATOM     36  C31 UNL     1      16.586  -4.070  -5.557 +0.00 +0.00    +0.123 C  
DOCKED: BRANCH  36  37
DOCKED: ATOM     37  C32 UNL     1      16.314  -2.623  -5.303 +0.00 +0.00    +0.305 C  
DOCKED: ATOM     38  O8  UNL     1      16.588  -1.705  -6.055 +0.00 -0.00    -0.251 OA 
DOCKED: BRANCH  37  39
DOCKED: ATOM     39  O9  UNL     1      15.757  -2.399  -4.099 +0.00 -0.00    -0.481 OA 
DOCKED: ATOM     40  H55 UNL     1      16.100  -1.528  -3.824 +0.00 +0.00    +0.295 HD 
DOCKED: ENDBRANCH  37  39
DOCKED: ENDBRANCH  36  37
DOCKED: ENDBRANCH  35  36
DOCKED: ENDBRANCH  18  35
DOCKED: ENDBRANCH  16  18
DOCKED: ENDBRANCH  12  14
DOCKED: ENDBRANCH  10  12
DOCKED: ENDBRANCH   7   8
DOCKED: BRANCH   1  41
DOCKED: ATOM     41  C19 UNL     1      16.442   1.605  -2.702 +0.00 +0.00    +0.129 C  
DOCKED: BRANCH  41  42
DOCKED: ATOM     42  C18 UNL     1      15.918   1.443  -4.144 +0.00 +0.00    +0.143 C  
DOCKED: BRANCH  42  43
DOCKED: ATOM     43  O4  UNL     1      16.699   0.410  -4.793 +0.00 -0.00    -0.389 OA 
DOCKED: ATOM     44  H34 UNL     1      16.283  -0.455  -4.562 +0.00 +0.00    +0.210 HD 
DOCKED: ENDBRANCH  42  43
DOCKED: BRANCH  42  45
DOCKED: ATOM     45  C13 UNL     1      14.408   1.085  -4.256 +0.00 +0.00    +0.102 C  
DOCKED: BRANCH  45  48
DOCKED: ATOM     46  C12 UNL     1      12.978  -0.888  -4.846 +0.00 +0.00    +0.234 C  
DOCKED: ATOM     47  O3  UNL     1      12.170  -0.201  -5.476 +0.00 -0.00    -0.274 OA 
DOCKED: ATOM     48  N3  UNL     1      14.152  -0.363  -4.352 +0.00 -0.00    -0.308 N  
DOCKED: ATOM     49  H22 UNL     1      14.648  -0.955  -3.678 +0.00 +0.00    +0.149 HD 
DOCKED: BRANCH  46  50
DOCKED: ATOM     50  C4  UNL     1      12.767  -2.401  -4.573 +0.00 +0.00    +0.160 C  
DOCKED: BRANCH  50  51
DOCKED: ATOM     51  N1  UNL     1      12.021  -2.539  -3.315 +0.00 -0.00    -0.302 N  
DOCKED: ATOM     52  C5  UNL     1      12.673  -2.354  -2.118 +0.00 +0.00    +0.234 C  
DOCKED: ATOM     53  O1  UNL     1      13.904  -2.229  -2.072 +0.00 -0.00    -0.274 OA 
DOCKED: ATOM     54  H9  UNL     1      11.043  -2.310  -3.346 +0.00 +0.00    +0.150 HD 
DOCKED: BRANCH  52  55
DOCKED: ATOM     55  C6  UNL     1      11.827  -2.425  -0.817 +0.00 +0.00    +0.161 C  
DOCKED: BRANCH  55  56
DOCKED: ATOM     56  N2  UNL     1      12.701  -3.122   0.133 +0.00 -0.00    -0.304 N  
DOCKED: ATOM     57  C7  UNL     1      12.312  -4.242   0.821 +0.00 +0.00    +0.211 C  
DOCKED: ATOM     58  C8  UNL     1      13.409  -4.879   1.633 +0.00 +0.00    +0.109 C  
DOCKED: ATOM     59  O2  UNL     1      11.162  -4.664   0.829 +0.00 -0.00    -0.276 OA 
DOCKED: ATOM     60  H11 UNL     1      13.697  -2.960   0.000 +0.00 +0.00    +0.149 HD 
DOCKED: ENDBRANCH  55  56
DOCKED: BRANCH  55  61
DOCKED: ATOM     61  C9  UNL     1      11.306  -1.099  -0.210 +0.00 +0.00    +0.012 C  
DOCKED: ATOM     62  C10 UNL     1      11.443  -0.986   1.304 +0.00 +0.00    +0.009 C  
DOCKED: ATOM     63  C11 UNL     1      11.931   0.120  -0.897 +0.00 +0.00    +0.009 C  
DOCKED: ENDBRANCH  55  61
DOCKED: ENDBRANCH  52  55
DOCKED: ENDBRANCH  50  51
DOCKED: BRANCH  50  64
DOCKED: ATOM     64  C3  UNL     1      12.031  -3.107  -5.727 +0.00 +0.00    +0.042 C  
DOCKED: BRANCH  64  65
DOCKED: ATOM     65  C2  UNL     1      12.277  -4.622  -5.767 +0.00 +0.00    +0.071 C  
DOCKED: BRANCH  65  67
DOCKED: ATOM     66  C1  UNL     1      12.429  -5.751  -3.233 +0.00 +0.00    +0.084 C  
DOCKED: ATOM     67  S1  UNL     1      13.523  -5.240  -4.584 +0.00 -0.00    -0.164 S  
DOCKED: ENDBRANCH  65  67
DOCKED: ENDBRANCH  64  65
DOCKED: ENDBRANCH  50  64
DOCKED: ENDBRANCH  46  50
DOCKED: ENDBRANCH  45  48
DOCKED: BRANCH  45  68
DOCKED: ATOM     68  C14 UNL     1      13.577   1.680  -3.089 +0.00 +0.00    +0.028 C  
DOCKED: BRANCH  68  69
DOCKED: ATOM     69  C15 UNL     1      12.453   2.641  -3.531 +0.00 -0.00    -0.015 C  
DOCKED: ATOM     70  C16 UNL     1      11.062   1.994  -3.542 +0.00 +0.00    +0.007 C  
DOCKED: ATOM     71  C17 UNL     1      12.756   3.190  -4.940 +0.00 +0.00    +0.007 C  
DOCKED: ENDBRANCH  68  69
DOCKED: ENDBRANCH  45  68
DOCKED: ENDBRANCH  42  45
DOCKED: ENDBRANCH  41  42
DOCKED: ENDBRANCH   1  41
DOCKED: TORSDOF 29
DOCKED: TER
DOCKED: ENDMDL
________________________________________________________________________________


    FINAL DOCKED STATE:
    ________________________


Run:   6 / 20
Time taken for this run:   5.123s

DOCKED: MODEL        6
DOCKED: USER    Run = 6
DOCKED: USER
DOCKED: USER    Estimated Free Energy of Binding    =  +8.65 kcal/mol  [=(1)+(2)+(3)-(4)]
DOCKED: USER
DOCKED: USER    (1) Final Intermolecular Energy     =  +0.00 kcal/mol
DOCKED: USER        vdW + Hbond + desolv Energy     =  +0.00 kcal/mol
DOCKED: USER        Electrostatic Energy            =  +0.00 kcal/mol
DOCKED: USER        Moving Ligand-Fixed Receptor    =  +0.00 kcal/mol
DOCKED: USER        Moving Ligand-Moving Receptor   =  +0.00 kcal/mol
DOCKED: USER    (2) Final Total Internal Energy     = -23.32 kcal/mol
DOCKED: USER    (3) Torsional Free Energy           =  +8.65 kcal/mol
DOCKED: USER    (4) Unbound System's Energy         = -23.32 kcal/mol
DOCKED: USER
DOCKED: USER
DOCKED: REMARK  Name = ligands/ligand_41.pdb
DOCKED: REMARK  36 active torsions:
DOCKED: REMARK  status: ('A' for Active; 'I' for Inactive)
DOCKED: REMARK    1  A    between atoms: C1_1  and  S1_2
DOCKED: REMARK    2  A    between atoms: S1_2  and  C2_3
DOCKED: REMARK    3  A    between atoms: C2_3  and  C3_4
DOCKED: REMARK    4  A    between atoms: C3_4  and  C4_5
DOCKED: REMARK    5  A    between atoms: C4_5  and  N1_6
DOCKED: REMARK    6  A    between atoms: C4_5  and  C12_17
DOCKED: REMARK    7  A    between atoms: C5_7  and  C6_9
DOCKED: REMARK    8  A    between atoms: C6_9  and  N2_10
DOCKED: REMARK    9  A    between atoms: C6_9  and  C9_14
DOCKED: REMARK   10  A    between atoms: C7_11  and  C8_12
DOCKED: REMARK   11  A    between atoms: C9_14  and  C10_15
DOCKED: REMARK   12  A    between atoms: C9_14  and  C11_16
DOCKED: REMARK   13  A    between atoms: N3_19  and  C13_20
DOCKED: REMARK   14  A    between atoms: C13_20  and  C14_21
DOCKED: REMARK   15  A    between atoms: C13_20  and  C18_25
DOCKED: REMARK   16  A    between atoms: C14_21  and  C15_22
DOCKED: REMARK   17  A    between atoms: C15_22  and  C16_23
DOCKED: REMARK   18  A    between atoms: C15_22  and  C17_24
DOCKED: REMARK   19  A    between atoms: C18_25  and  O4_26
DOCKED: REMARK   20  A    between atoms: C18_25  and  C19_27
DOCKED: REMARK   21  A    between atoms: C19_27  and  C20_28
DOCKED: REMARK   22  A    between atoms: C24_34  and  C25_35
DOCKED: REMARK   23  A    between atoms: N5_37  and  C26_38
DOCKED: REMARK   24  A    between atoms: C26_38  and  C27_39
DOCKED: REMARK   25  A    between atoms: C26_38  and  C28_40
DOCKED: REMARK   26  A    between atoms: N6_42  and  C29_43
DOCKED: REMARK   27  A    between atoms: C29_43  and  C30_44
DOCKED: REMARK   28  A    between atoms: C29_43  and  C33_49
DOCKED: REMARK   29  A    between atoms: C30_44  and  C31_45
DOCKED: REMARK   30  A    between atoms: C31_45  and  C32_46
DOCKED: REMARK   31  A    between atoms: C32_46  and  O9_48
DOCKED: REMARK   32  A    between atoms: N7_51  and  C34_52
DOCKED: REMARK   33  A    between atoms: C34_52  and  C35_53
DOCKED: REMARK   34  A    between atoms: C34_52  and  C42_60
DOCKED: REMARK   35  A    between atoms: C35_53  and  C36_54
DOCKED: REMARK   36  A    between atoms: C42_60  and  O12_62
DOCKED: REMARK                            x       y       z     vdW  Elec       q    Type
DOCKED: REMARK                         _______ _______ _______ _____ _____    ______ ____
DOCKED: USER                              x       y       z     vdW  Elec       q    Type
DOCKED: USER                           _______ _______ _______ _____ _____    ______ ____
DOCKED: ROOT
DOCKED: ATOM      1  C20 UNL     1      10.005  -8.782   2.264 +0.00 +0.00    +0.219 C  
DOCKED: ATOM      2  O5  UNL     1      10.802  -8.034   2.834 +0.00 -0.00    -0.275 OA 
DOCKED: ATOM      3  N4  UNL     1      10.314 -10.122   2.100 +0.00 -0.00    -0.290 N  
DOCKED: ATOM      4  C21 UNL     1       9.442 -11.083   1.437 +0.00 +0.00    +0.108 C  
DOCKED: ATOM      5  C22 UNL     1      10.343 -12.192   0.911 +0.00 +0.00    +0.021 C  
DOCKED: ATOM      6  C23 UNL     1      11.616 -12.043   1.713 +0.00 +0.00    +0.033 C  
DOCKED: ATOM      7  C24 UNL     1      11.718 -10.544   2.003 +0.00 +0.00    +0.162 C  
DOCKED: ENDROOT
DOCKED: BRANCH   7   8
DOCKED: ATOM      8  C25 UNL     1      12.763 -10.396   3.151 +0.00 +0.00    +0.234 C  
DOCKED: ATOM      9  O6  UNL     1      13.530 -11.321   3.426 +0.00 -0.00    -0.274 OA 
DOCKED: ATOM     10  N5  UNL     1      12.826  -9.168   3.769 +0.00 -0.00    -0.303 N  
DOCKED: ATOM     11  H44 UNL     1      12.453  -8.429   3.167 +0.00 +0.00    +0.149 HD 
DOCKED: BRANCH  10  12
DOCKED: ATOM     12  C26 UNL     1      14.018  -8.720   4.497 +0.00 +0.00    +0.156 C  
DOCKED: ATOM     13  C27 UNL     1      15.237  -8.435   3.628 +0.00 +0.00    +0.038 C  
DOCKED: BRANCH  12  14
DOCKED: ATOM     14  C28 UNL     1      13.616  -7.561   5.446 +0.00 +0.00    +0.234 C  
DOCKED: ATOM     15  O7  UNL     1      14.184  -7.339   6.515 +0.00 -0.00    -0.274 OA 
DOCKED: ATOM     16  N6  UNL     1      12.652  -6.697   4.959 +0.00 -0.00    -0.302 N  
DOCKED: ATOM     17  H49 UNL     1      11.889  -7.145   4.464 +0.00 +0.00    +0.150 HD 
DOCKED: BRANCH  16  18
DOCKED: ATOM     18  C29 UNL     1      12.276  -5.560   5.798 +0.00 +0.00    +0.159 C  
DOCKED: BRANCH  18  19
DOCKED: ATOM     19  C33 UNL     1      10.749  -5.497   5.932 +0.00 +0.00    +0.234 C  
DOCKED: ATOM     20  O10 UNL     1      10.188  -5.260   7.003 +0.00 -0.00    -0.274 OA 
DOCKED: ATOM     21  N7  UNL     1      10.064  -5.779   4.777 +0.00 -0.00    -0.301 N  
DOCKED: ATOM     22  H56 UNL     1      10.584  -6.166   3.997 +0.00 +0.00    +0.150 HD 
DOCKED: BRANCH  21  23
DOCKED: ATOM     23  C34 UNL     1       8.622  -6.023   4.774 +0.00 +0.00    +0.186 C  
DOCKED: BRANCH  23  24
DOCKED: ATOM     24  C42 UNL     1       7.904  -4.679   4.922 +0.00 +0.00    +0.326 C  
DOCKED: ATOM     25  O11 UNL     1       7.013  -4.416   5.717 +0.00 -0.00    -0.249 OA 
DOCKED: BRANCH  24  26
DOCKED: ATOM     26  O12 UNL     1       8.340  -3.742   4.061 +0.00 -0.00    -0.479 OA 
DOCKED: ATOM     27  H65 UNL     1       8.978  -4.227   3.495 +0.00 +0.00    +0.295 HD 
DOCKED: ENDBRANCH  24  26
DOCKED: ENDBRANCH  23  24
DOCKED: BRANCH  23  28
DOCKED: ATOM     28  C35 UNL     1       8.196  -7.022   5.853 +0.00 +0.00    +0.069 C  
DOCKED: BRANCH  28  29
DOCKED: ATOM     29  C36 UNL     1       8.820  -8.393   5.728 +0.00 -0.00    -0.045 A  
DOCKED: ATOM     30  C37 UNL     1      10.098  -8.652   6.243 +0.00 +0.00    +0.004 A  
DOCKED: ATOM     31  C38 UNL     1      10.674  -9.914   6.097 +0.00 +0.00    +0.000 A  
DOCKED: ATOM     32  C39 UNL     1       9.977 -10.932   5.453 +0.00 +0.00    +0.000 A  
DOCKED: ATOM     33  C40 UNL     1       8.696 -10.694   4.957 +0.00 +0.00    +0.000 A  
DOCKED: ATOM     34  C41 UNL     1       8.122  -9.431   5.094 +0.00 +0.00    +0.004 A  
DOCKED: ENDBRANCH  28  29
DOCKED: ENDBRANCH  23  28
DOCKED: ENDBRANCH  21  23
DOCKED: ENDBRANCH  18  19
DOCKED: BRANCH  18  35
DOCKED: ATOM     35  C30 UNL     1      12.849  -4.239   5.260 +0.00 +0.00    +0.043 C  
DOCKED: BRANCH  35  36
DOCKED: ATOM     36  C31 UNL     1      13.199  -4.270   3.773 +0.00 +0.00    +0.123 C  
DOCKED: BRANCH  36  37
DOCKED: ATOM     37  C32 UNL     1      12.066  -4.844   2.987 +0.00 +0.00    +0.305 C  
DOCKED: ATOM     38  O8  UNL     1      11.015  -4.281   2.739 +0.00 -0.00    -0.251 OA 
DOCKED: BRANCH  37  39
DOCKED: ATOM     39  O9  UNL     1      12.291  -6.111   2.594 +0.00 -0.00    -0.481 OA 
DOCKED: ATOM     40  H55 UNL     1      11.412  -6.534   2.602 +0.00 +0.00    +0.295 HD 
DOCKED: ENDBRANCH  37  39
DOCKED: ENDBRANCH  36  37
DOCKED: ENDBRANCH  35  36
DOCKED: ENDBRANCH  18  35
DOCKED: ENDBRANCH  16  18
DOCKED: ENDBRANCH  12  14
DOCKED: ENDBRANCH  10  12
DOCKED: ENDBRANCH   7   8
DOCKED: BRANCH   1  41
DOCKED: ATOM     41  C19 UNL     1       8.648  -8.247   1.831 +0.00 +0.00    +0.129 C  
DOCKED: BRANCH  41  42
DOCKED: ATOM     42  C18 UNL     1       8.804  -6.855   1.186 +0.00 +0.00    +0.143 C  
DOCKED: BRANCH  42  43
DOCKED: ATOM     43  O4  UNL     1       9.295  -5.942   2.197 +0.00 -0.00    -0.389 OA 
DOCKED: ATOM     44  H34 UNL     1      10.279  -6.017   2.201 +0.00 +0.00    +0.210 HD 
DOCKED: ENDBRANCH  42  43
DOCKED: BRANCH  42  45
DOCKED: ATOM     45  C13 UNL     1       9.752  -6.805  -0.047 +0.00 +0.00    +0.102 C  
DOCKED: BRANCH  45  48
DOCKED: ATOM     46  C12 UNL     1      12.034  -5.944  -0.627 +0.00 +0.00    +0.234 C  
DOCKED: ATOM     47  O3  UNL     1      11.669  -5.516  -1.724 +0.00 -0.00    -0.274 OA 
DOCKED: ATOM     48  N3  UNL     1      11.141  -6.449   0.292 +0.00 -0.00    -0.308 N  
DOCKED: ATOM     49  H22 UNL     1      11.559  -6.960   1.076 +0.00 +0.00    +0.149 HD 
DOCKED: BRANCH  46  50
DOCKED: ATOM     50  C4  UNL     1      13.517  -5.934  -0.168 +0.00 +0.00    +0.160 C  
DOCKED: BRANCH  50  51
DOCKED: ATOM     51  N1  UNL     1      14.131  -7.204  -0.577 +0.00 -0.00    -0.302 N  
DOCKED: ATOM     52  C5  UNL     1      13.874  -8.344   0.148 +0.00 +0.00    +0.234 C  
DOCKED: ATOM     53  O1  UNL     1      13.266  -8.295   1.224 +0.00 -0.00    -0.274 OA 
DOCKED: ATOM     54  H9  UNL     1      14.320  -7.314  -1.558 +0.00 +0.00    +0.150 HD 
DOCKED: BRANCH  52  55
DOCKED: ATOM     55  C6  UNL     1      14.476  -9.679  -0.372 +0.00 +0.00    +0.161 C  
DOCKED: BRANCH  55  56
DOCKED: ATOM     56  N2  UNL     1      14.866 -10.388   0.853 +0.00 -0.00    -0.304 N  
DOCKED: ATOM     57  C7  UNL     1      16.132 -10.867   1.066 +0.00 +0.00    +0.211 C  
DOCKED: ATOM     58  C8  UNL     1      16.353 -11.434   2.444 +0.00 +0.00    +0.109 C  
DOCKED: ATOM     59  O2  UNL     1      16.999 -10.890   0.202 +0.00 -0.00    -0.276 OA 
DOCKED: ATOM     60  H11 UNL     1      14.277 -10.204   1.663 +0.00 +0.00    +0.149 HD 
DOCKED: ENDBRANCH  55  56
DOCKED: BRANCH  55  61
DOCKED: ATOM     61  C9  UNL     1      13.592 -10.580  -1.269 +0.00 +0.00    +0.012 C  
DOCKED: ATOM     62  C10 UNL     1      13.666 -12.071  -0.956 +0.00 +0.00    +0.009 C  
DOCKED: ATOM     63  C11 UNL     1      12.134 -10.108  -1.281 +0.00 +0.00    +0.009 C  
DOCKED: ENDBRANCH  55  61
DOCKED: ENDBRANCH  52  55
DOCKED: ENDBRANCH  50  51
DOCKED: BRANCH  50  64
DOCKED: ATOM     64  C3  UNL     1      14.297  -4.736  -0.740 +0.00 +0.00    +0.042 C  
DOCKED: BRANCH  64  65
DOCKED: ATOM     65  C2  UNL     1      15.503  -4.330   0.120 +0.00 +0.00    +0.071 C  
DOCKED: BRANCH  65  67
DOCKED: ATOM     66  C1  UNL     1      16.825  -6.574   1.091 +0.00 +0.00    +0.084 C  
DOCKED: ATOM     67  S1  UNL     1      15.704  -5.273   1.671 +0.00 -0.00    -0.164 S  
DOCKED: ENDBRANCH  65  67
DOCKED: ENDBRANCH  64  65
DOCKED: ENDBRANCH  50  64
DOCKED: ENDBRANCH  46  50
DOCKED: ENDBRANCH  45  48
DOCKED: BRANCH  45  68
DOCKED: ATOM     68  C14 UNL     1       9.741  -8.135  -0.848 +0.00 +0.00    +0.028 C  
DOCKED: BRANCH  68  69
DOCKED: ATOM     69  C15 UNL     1       9.342  -7.982  -2.330 +0.00 -0.00    -0.015 C  
DOCKED: ATOM     70  C16 UNL     1      10.541  -7.955  -3.288 +0.00 +0.00    +0.007 C  
DOCKED: ATOM     71  C17 UNL     1       8.523  -6.690  -2.525 +0.00 +0.00    +0.007 C  
DOCKED: ENDBRANCH  68  69
DOCKED: ENDBRANCH  45  68
DOCKED: ENDBRANCH  42  45
DOCKED: ENDBRANCH  41  42
DOCKED: ENDBRANCH   1  41
DOCKED: TORSDOF 29
DOCKED: TER
DOCKED: ENDMDL
________________________________________________________________________________


    FINAL DOCKED STATE:
    ________________________


Run:   7 / 20
Time taken for this run:   5.123s

DOCKED: MODEL        7
DOCKED: USER    Run = 7
DOCKED: USER
DOCKED: USER    Estimated Free Energy of Binding    =  +8.65 kcal/mol  [=(1)+(2)+(3)-(4)]
DOCKED: USER
DOCKED: USER    (1) Final Intermolecular Energy     =  +0.00 kcal/mol
DOCKED: USER        vdW + Hbond + desolv Energy     =  +0.00 kcal/mol
DOCKED: USER        Electrostatic Energy            =  +0.00 kcal/mol
DOCKED: USER        Moving Ligand-Fixed Receptor    =  +0.00 kcal/mol
DOCKED: USER        Moving Ligand-Moving Receptor   =  +0.00 kcal/mol
DOCKED: USER    (2) Final Total Internal Energy     = -23.27 kcal/mol
DOCKED: USER    (3) Torsional Free Energy           =  +8.65 kcal/mol
DOCKED: USER    (4) Unbound System's Energy         = -23.27 kcal/mol
DOCKED: USER
DOCKED: USER
DOCKED: REMARK  Name = ligands/ligand_41.pdb
DOCKED: REMARK  36 active torsions:
DOCKED: REMARK  status: ('A' for Active; 'I' for Inactive)
DOCKED: REMARK    1  A    between atoms: C1_1  and  S1_2
DOCKED: REMARK    2  A    between atoms: S1_2  and  C2_3
DOCKED: REMARK    3  A    between atoms: C2_3  and  C3_4
DOCKED: REMARK    4  A    between atoms: C3_4  and  C4_5
DOCKED: REMARK    5  A    between atoms: C4_5  and  N1_6
DOCKED: REMARK    6  A    between atoms: C4_5  and  C12_17
DOCKED: REMARK    7  A    between atoms: C5_7  and  C6_9
DOCKED: REMARK    8  A    between atoms: C6_9  and  N2_10
DOCKED: REMARK    9  A    between atoms: C6_9  and  C9_14
DOCKED: REMARK   10  A    between atoms: C7_11  and  C8_12
DOCKED: REMARK   11  A    between atoms: C9_14  and  C10_15
DOCKED: REMARK   12  A    between atoms: C9_14  and  C11_16
DOCKED: REMARK   13  A    between atoms: N3_19  and  C13_20
DOCKED: REMARK   14  A    between atoms: C13_20  and  C14_21
DOCKED: REMARK   15  A    between atoms: C13_20  and  C18_25
DOCKED: REMARK   16  A    between atoms: C14_21  and  C15_22
DOCKED: REMARK   17  A    between atoms: C15_22  and  C16_23
DOCKED: REMARK   18  A    between atoms: C15_22  and  C17_24
DOCKED: REMARK   19  A    between atoms: C18_25  and  O4_26
DOCKED: REMARK   20  A    between atoms: C18_25  and  C19_27
DOCKED: REMARK   21  A    between atoms: C19_27  and  C20_28
DOCKED: REMARK   22  A    between atoms: C24_34  and  C25_35
DOCKED: REMARK   23  A    between atoms: N5_37  and  C26_38
DOCKED: REMARK   24  A    between atoms: C26_38  and  C27_39
DOCKED: REMARK   25  A    between atoms: C26_38  and  C28_40
DOCKED: REMARK   26  A    between atoms: N6_42  and  C29_43
DOCKED: REMARK   27  A    between atoms: C29_43  and  C30_44
DOCKED: REMARK   28  A    between atoms: C29_43  and  C33_49
DOCKED: REMARK   29  A    between atoms: C30_44  and  C31_45
DOCKED: REMARK   30  A    between atoms: C31_45  and  C32_46
DOCKED: REMARK   31  A    between atoms: C32_46  and  O9_48
DOCKED: REMARK   32  A    between atoms: N7_51  and  C34_52
DOCKED: REMARK   33  A    between atoms: C34_52  and  C35_53
DOCKED: REMARK   34  A    between atoms: C34_52  and  C42_60
DOCKED: REMARK   35  A    between atoms: C35_53  and  C36_54
DOCKED: REMARK   36  A    between atoms: C42_60  and  O12_62
DOCKED: REMARK                            x       y       z     vdW  Elec       q    Type
DOCKED: REMARK                         _______ _______ _______ _____ _____    ______ ____
DOCKED: USER                              x       y       z     vdW  Elec       q    Type
DOCKED: USER                           _______ _______ _______ _____ _____    ______ ____
DOCKED: ROOT
DOCKED: ATOM      1  C20 UNL     1      13.522   0.848  -1.475 +0.00 +0.00    +0.219 C  
DOCKED: ATOM      2  O5  UNL     1      12.519   0.247  -1.867 +0.00 -0.00    -0.275 OA 
DOCKED: ATOM      3  N4  UNL     1      14.196   1.699  -2.335 +0.00 -0.00    -0.290 N  
DOCKED: ATOM      4  C21 UNL     1      15.391   2.448  -1.967 +0.00 +0.00    +0.108 C  
DOCKED: ATOM      5  C22 UNL     1      16.147   2.716  -3.262 +0.00 +0.00    +0.021 C  
DOCKED: ATOM      6  C23 UNL     1      15.107   2.521  -4.343 +0.00 +0.00    +0.033 C  
DOCKED: ATOM      7  C24 UNL     1      14.163   1.454  -3.783 +0.00 +0.00    +0.162 C  
DOCKED: ENDROOT
DOCKED: BRANCH   7   8
DOCKED: ATOM      8  C25 UNL     1      12.873   1.517  -4.658 +0.00 +0.00    +0.234 C  
DOCKED: ATOM      9  O6  UNL     1      12.899   1.176  -5.842 +0.00 -0.00    -0.274 OA 
DOCKED: ATOM     10  N5  UNL     1      11.715   1.895  -4.017 +0.00 -0.00    -0.303 N  
DOCKED: ATOM     11  H44 UNL     1      11.777   1.728  -3.008 +0.00 +0.00    +0.149 HD 
DOCKED: BRANCH  10  12
DOCKED: ATOM     12  C26 UNL     1      10.387   1.555  -4.539 +0.00 +0.00    +0.156 C  
DOCKED: ATOM     13  C27 UNL     1      10.284   1.497  -6.058 +0.00 +0.00    +0.038 C  
DOCKED: BRANCH  12  14
DOCKED: ATOM     14  C28 UNL     1       9.874   0.286  -3.808 +0.00 +0.00    +0.234 C  
DOCKED: ATOM     15  O7  UNL     1      10.487  -0.255  -2.888 +0.00 -0.00    -0.274 OA 
DOCKED: ATOM     16  N6  UNL     1       8.608  -0.139  -4.166 +0.00 -0.00    -0.302 N  
DOCKED: ATOM     17  H49 UNL     1       8.407  -0.092  -5.159 +0.00 +0.00    +0.150 HD 
DOCKED: BRANCH  16  18
DOCKED: ATOM     18  C29 UNL     1       8.062  -1.302  -3.469 +0.00 +0.00    +0.159 C  
DOCKED: BRANCH  18  19
DOCKED: ATOM     19  C33 UNL     1       7.593  -0.893  -2.066 +0.00 +0.00    +0.234 C  
DOCKED: ATOM     20  O10 UNL     1       6.402  -0.837  -1.756 +0.00 -0.00    -0.274 OA 
DOCKED: ATOM     21  N7  UNL     1       8.605  -0.543  -1.207 +0.00 -0.00    -0.301 N  
DOCKED: ATOM     22  H56 UNL     1       9.533  -0.413  -1.594 +0.00 +0.00    +0.150 HD 
DOCKED: BRANCH  21  23
DOCKED: ATOM     23  C34 UNL     1       8.340   0.118   0.069 +0.00 +0.00    +0.186 C  
DOCKED: BRANCH  23  24
DOCKED: ATOM     24  C42 UNL     1       9.638   0.764   0.559 +0.00 +0.00    +0.326 C  
DOCKED: ATOM     25  O11 UNL     1       9.877   1.142   1.696 +0.00 -0.00    -0.249 OA 
DOCKED: BRANCH  24  26
DOCKED: ATOM     26  O12 UNL     1      10.564   0.903  -0.408 +0.00 -0.00    -0.479 OA 
DOCKED: ATOM     27  H65 UNL     1      10.711  -0.014  -0.721 +0.00 +0.00    +0.295 HD 
DOCKED: ENDBRANCH  24  26
DOCKED: ENDBRANCH  23  24
DOCKED: BRANCH  23  28
DOCKED: ATOM     28  C35 UNL     1       7.746  -0.836   1.110 +0.00 +0.00    +0.069 C  
DOCKED: BRANCH  28  29
DOCKED: ATOM     29  C36 UNL     1       8.560  -2.083   1.363 +0.00 -0.00    -0.045 A  
DOCKED: ATOM     30  C37 UNL     1       9.850  -2.003   1.908 +0.00 +0.00    +0.004 A  
DOCKED: ATOM     31  C38 UNL     1      10.602  -3.160   2.112 +0.00 +0.00    +0.000 A  
DOCKED: ATOM     32  C39 UNL     1      10.073  -4.405   1.789 +0.00 +0.00    +0.000 A  
DOCKED: ATOM     33  C40 UNL     1       8.783  -4.501   1.268 +0.00 +0.00    +0.000 A  
DOCKED: ATOM     34  C41 UNL     1       8.033  -3.346   1.055 +0.00 +0.00    +0.004 A  
DOCKED: ENDBRANCH  28  29
DOCKED: ENDBRANCH  23  28
DOCKED: ENDBRANCH  21  23
DOCKED: ENDBRANCH  18  19
DOCKED: BRANCH  18  35
DOCKED: ATOM     35  C30 UNL     1       9.073  -2.459  -3.409 +0.00 +0.00    +0.043 C  
DOCKED: BRANCH  35  36
DOCKED: ATOM     36  C31 UNL     1       9.055  -3.234  -2.093 +0.00 +0.00    +0.123 C  
DOCKED: BRANCH  36  37
DOCKED: ATOM     37  C32 UNL     1      10.376  -3.115  -1.405 +0.00 +0.00    +0.305 C  
DOCKED: ATOM     38  O8  UNL     1      11.095  -4.044  -1.081 +0.00 -0.00    -0.251 OA 
DOCKED: BRANCH  37  39
DOCKED: ATOM     39  O9  UNL     1      10.704  -1.843  -1.117 +0.00 -0.00    -0.481 OA 
DOCKED: ATOM     40  H55 UNL     1      11.517  -1.673  -1.629 +0.00 +0.00    +0.295 HD 
DOCKED: ENDBRANCH  37  39
DOCKED: ENDBRANCH  36  37
DOCKED: ENDBRANCH  35  36
DOCKED: ENDBRANCH  18  35
DOCKED: ENDBRANCH  16  18
DOCKED: ENDBRANCH  12  14
DOCKED: ENDBRANCH  10  12
DOCKED: ENDBRANCH   7   8
DOCKED: BRANCH   1  41
DOCKED: ATOM     41  C19 UNL     1      13.954   0.723  -0.021 +0.00 +0.00    +0.129 C  
DOCKED: BRANCH  41  42
DOCKED: ATOM     42  C18 UNL     1      13.713  -0.714   0.486 +0.00 +0.00    +0.143 C  
DOCKED: BRANCH  42  43
DOCKED: ATOM     43  O4  UNL     1      12.306  -1.017   0.329 +0.00 -0.00    -0.389 OA 
DOCKED: ATOM     44  H34 UNL     1      12.034  -0.679  -0.557 +0.00 +0.00    +0.210 HD 
DOCKED: ENDBRANCH  42  43
DOCKED: BRANCH  42  45
DOCKED: ATOM     45  C13 UNL     1      14.553  -1.812  -0.230 +0.00 +0.00    +0.102 C  
DOCKED: BRANCH  45  48
DOCKED: ATOM     46  C12 UNL     1      14.262  -3.767  -1.773 +0.00 +0.00    +0.234 C  
DOCKED: ATOM     47  O3  UNL     1      15.472  -4.003  -1.811 +0.00 -0.00    -0.274 OA 
DOCKED: ATOM     48  N3  UNL     1      13.732  -2.819  -0.926 +0.00 -0.00    -0.308 N  
DOCKED: ATOM     49  H22 UNL     1      12.759  -2.557  -1.114 +0.00 +0.00    +0.149 HD 
DOCKED: BRANCH  46  50
DOCKED: ATOM     50  C4  UNL     1      13.227  -4.522  -2.649 +0.00 +0.00    +0.160 C  
DOCKED: BRANCH  50  51
DOCKED: ATOM     51  N1  UNL     1      13.208  -3.895  -3.977 +0.00 -0.00    -0.302 N  
DOCKED: ATOM     52  C5  UNL     1      12.853  -2.571  -4.095 +0.00 +0.00    +0.234 C  
DOCKED: ATOM     53  O1  UNL     1      12.401  -1.941  -3.131 +0.00 -0.00    -0.274 OA 
DOCKED: ATOM     54  H9  UNL     1      13.853  -4.261  -4.655 +0.00 +0.00    +0.150 HD 
DOCKED: BRANCH  52  55
DOCKED: ATOM     55  C6  UNL     1      12.929  -1.928  -5.507 +0.00 +0.00    +0.161 C  
DOCKED: BRANCH  55  56
DOCKED: ATOM     56  N2  UNL     1      14.203  -1.199  -5.494 +0.00 -0.00    -0.304 N  
DOCKED: ATOM     57  C7  UNL     1      15.416  -1.819  -5.351 +0.00 +0.00    +0.211 C  
DOCKED: ATOM     58  C8  UNL     1      16.601  -0.902  -5.508 +0.00 +0.00    +0.109 C  
DOCKED: ATOM     59  O2  UNL     1      15.539  -3.004  -5.064 +0.00 -0.00    -0.276 OA 
DOCKED: ATOM     60  H11 UNL     1      14.179  -0.283  -5.938 +0.00 +0.00    +0.149 HD 
DOCKED: ENDBRANCH  55  56
DOCKED: BRANCH  55  61
DOCKED: ATOM     61  C9  UNL     1      12.845  -2.859  -6.741 +0.00 +0.00    +0.012 C  
DOCKED: ATOM     62  C10 UNL     1      11.596  -3.732  -6.804 +0.00 +0.00    +0.009 C  
DOCKED: ATOM     63  C11 UNL     1      13.019  -2.080  -8.049 +0.00 +0.00    +0.009 C  
DOCKED: ENDBRANCH  55  61
DOCKED: ENDBRANCH  52  55
DOCKED: ENDBRANCH  50  51
DOCKED: BRANCH  50  64
DOCKED: ATOM     64  C3  UNL     1      13.538  -6.026  -2.756 +0.00 +0.00    +0.042 C  
DOCKED: BRANCH  64  65
DOCKED: ATOM     65  C2  UNL     1      13.865  -6.676  -1.404 +0.00 +0.00    +0.071 C  
DOCKED: BRANCH  65  67
DOCKED: ATOM     66  C1  UNL     1      13.265  -5.451   1.017 +0.00 +0.00    +0.084 C  
DOCKED: ATOM     67  S1  UNL     1      12.526  -6.609  -0.165 +0.00 -0.00    -0.164 S  
DOCKED: ENDBRANCH  65  67
DOCKED: ENDBRANCH  64  65
DOCKED: ENDBRANCH  50  64
DOCKED: ENDBRANCH  46  50
DOCKED: ENDBRANCH  45  48
DOCKED: BRANCH  45  68
DOCKED: ATOM     68  C14 UNL     1      15.580  -1.208  -1.224 +0.00 +0.00    +0.028 C  
DOCKED: BRANCH  68  69
DOCKED: ATOM     69  C15 UNL     1      17.049  -1.314  -0.764 +0.00 -0.00    -0.015 C  
DOCKED: ATOM     70  C16 UNL     1      17.638   0.018  -0.282 +0.00 +0.00    +0.007 C  
DOCKED: ATOM     71  C17 UNL     1      17.922  -1.855  -1.914 +0.00 +0.00    +0.007 C  
DOCKED: ENDBRANCH  68  69
DOCKED: ENDBRANCH  45  68
DOCKED: ENDBRANCH  42  45
DOCKED: ENDBRANCH  41  42
DOCKED: ENDBRANCH   1  41
DOCKED: TORSDOF 29
DOCKED: TER
DOCKED: ENDMDL
________________________________________________________________________________


    FINAL DOCKED STATE:
    ________________________


Run:   8 / 20
Time taken for this run:   5.123s

DOCKED: MODEL        8
DOCKED: USER    Run = 8
DOCKED: USER
DOCKED: USER    Estimated Free Energy of Binding    =  +8.65 kcal/mol  [=(1)+(2)+(3)-(4)]
DOCKED: USER
DOCKED: USER    (1) Final Intermolecular Energy     =  +0.00 kcal/mol
DOCKED: USER        vdW + Hbond + desolv Energy     =  +0.00 kcal/mol
DOCKED: USER        Electrostatic Energy            =  +0.00 kcal/mol
DOCKED: USER        Moving Ligand-Fixed Receptor    =  +0.00 kcal/mol
DOCKED: USER        Moving Ligand-Moving Receptor   =  +0.00 kcal/mol
DOCKED: USER    (2) Final Total Internal Energy     = -22.75 kcal/mol
DOCKED: USER    (3) Torsional Free Energy           =  +8.65 kcal/mol
DOCKED: USER    (4) Unbound System's Energy         = -22.75 kcal/mol
DOCKED: USER
DOCKED: USER
DOCKED: REMARK  Name = ligands/ligand_41.pdb
DOCKED: REMARK  36 active torsions:
DOCKED: REMARK  status: ('A' for Active; 'I' for Inactive)
DOCKED: REMARK    1  A    between atoms: C1_1  and  S1_2
DOCKED: REMARK    2  A    between atoms: S1_2  and  C2_3
DOCKED: REMARK    3  A    between atoms: C2_3  and  C3_4
DOCKED: REMARK    4  A    between atoms: C3_4  and  C4_5
DOCKED: REMARK    5  A    between atoms: C4_5  and  N1_6
DOCKED: REMARK    6  A    between atoms: C4_5  and  C12_17
DOCKED: REMARK    7  A    between atoms: C5_7  and  C6_9
DOCKED: REMARK    8  A    between atoms: C6_9  and  N2_10
DOCKED: REMARK    9  A    between atoms: C6_9  and  C9_14
DOCKED: REMARK   10  A    between atoms: C7_11  and  C8_12
DOCKED: REMARK   11  A    between atoms: C9_14  and  C10_15
DOCKED: REMARK   12  A    between atoms: C9_14  and  C11_16
DOCKED: REMARK   13  A    between atoms: N3_19  and  C13_20
DOCKED: REMARK   14  A    between atoms: C13_20  and  C14_21
DOCKED: REMARK   15  A    between atoms: C13_20  and  C18_25
DOCKED: REMARK   16  A    between atoms: C14_21  and  C15_22
DOCKED: REMARK   17  A    between atoms: C15_22  and  C16_23
DOCKED: REMARK   18  A    between atoms: C15_22  and  C17_24
DOCKED: REMARK   19  A    between atoms: C18_25  and  O4_26
DOCKED: REMARK   20  A    between atoms: C18_25  and  C19_27
DOCKED: REMARK   21  A    between atoms: C19_27  and  C20_28
DOCKED: REMARK   22  A    between atoms: C24_34  and  C25_35
DOCKED: REMARK   23  A    between atoms: N5_37  and  C26_38
DOCKED: REMARK   24  A    between atoms: C26_38  and  C27_39
DOCKED: REMARK   25  A    between atoms: C26_38  and  C28_40
DOCKED: REMARK   26  A    between atoms: N6_42  and  C29_43
DOCKED: REMARK   27  A    between atoms: C29_43  and  C30_44
DOCKED: REMARK   28  A    between atoms: C29_43  and  C33_49
DOCKED: REMARK   29  A    between atoms: C30_44  and  C31_45
DOCKED: REMARK   30  A    between atoms: C31_45  and  C32_46
DOCKED: REMARK   31  A    between atoms: C32_46  and  O9_48
DOCKED: REMARK   32  A    between atoms: N7_51  and  C34_52
DOCKED: REMARK   33  A    between atoms: C34_52  and  C35_53
DOCKED: REMARK   34  A    between atoms: C34_52  and  C42_60
DOCKED: REMARK   35  A    between atoms: C35_53  and  C36_54
DOCKED: REMARK   36  A    between atoms: C42_60  and  O12_62
DOCKED: REMARK                            x       y       z     vdW  Elec       q    Type
DOCKED: REMARK                         _______ _______ _______ _____ _____    ______ ____
DOCKED: USER                              x       y       z     vdW  Elec       q    Type
DOCKED: USER                           _______ _______ _______ _____ _____    ______ ____
DOCKED: ROOT
DOCKED: ATOM      1  C20 UNL     1      16.436  -4.888   0.432 +0.00 +0.00    +0.219 C  
DOCKED: ATOM      2  O5  UNL     1      16.594  -3.679   0.248 +0.00 -0.00    -0.275 OA 
DOCKED: ATOM      3  N4  UNL     1      15.765  -5.648  -0.511 +0.00 -0.00    -0.290 N  
DOCKED: ATOM      4  C21 UNL     1      15.523  -7.079  -0.382 +0.00 +0.00    +0.108 C  
DOCKED: ATOM      5  C22 UNL     1      14.288  -7.386  -1.218 +0.00 +0.00    +0.021 C  
DOCKED: ATOM      6  C23 UNL     1      14.175  -6.204  -2.155 +0.00 +0.00    +0.033 C  
DOCKED: ATOM      7  C24 UNL     1      14.740  -5.024  -1.360 +0.00 +0.00    +0.162 C  
DOCKED: ENDROOT
DOCKED: BRANCH   7   8
DOCKED: ATOM      8  C25 UNL     1      15.024  -3.898  -2.400 +0.00 +0.00    +0.234 C  
DOCKED: ATOM      9  O6  UNL     1      14.163  -3.057  -2.668 +0.00 -0.00    -0.274 OA 
DOCKED: ATOM     10  N5  UNL     1      16.294  -3.858  -2.930 +0.00 -0.00    -0.303 N  
DOCKED: ATOM     11  H44 UNL     1      16.968  -4.324  -2.315 +0.00 +0.00    +0.149 HD 
DOCKED: BRANCH  10  12
DOCKED: ATOM     12  C26 UNL     1      16.856  -2.639  -3.520 +0.00 +0.00    +0.156 C  
DOCKED: ATOM     13  C27 UNL     1      16.076  -2.073  -4.701 +0.00 +0.00    +0.038 C  
DOCKED: BRANCH  12  14
DOCKED: ATOM     14  C28 UNL     1      17.139  -1.620  -2.386 +0.00 +0.00    +0.234 C  
DOCKED: ATOM     15  O7  UNL     1      18.146  -0.913  -2.351 +0.00 -0.00    -0.274 OA 
DOCKED: ATOM     16  N6  UNL     1      16.121  -1.453  -1.464 +0.00 -0.00    -0.302 N  
DOCKED: ATOM     17  H49 UNL     1      15.658  -2.310  -1.181 +0.00 +0.00    +0.150 HD 
DOCKED: BRANCH  16  18
DOCKED: ATOM     18  C29 UNL     1      16.322  -0.467  -0.404 +0.00 +0.00    +0.159 C  
DOCKED: BRANCH  18  19
DOCKED: ATOM     19  C33 UNL     1      17.340  -1.000   0.614 +0.00 +0.00    +0.234 C  
DOCKED: ATOM     20  O10 UNL     1      17.025  -1.310   1.763 +0.00 -0.00    -0.274 OA 
DOCKED: ATOM     21  N7  UNL     1      18.632  -1.047   0.154 +0.00 -0.00    -0.301 N  
DOCKED: ATOM     22  H56 UNL     1      18.843  -0.583  -0.722 +0.00 +0.00    +0.150 HD 
DOCKED: BRANCH  21  23
DOCKED: ATOM     23  C34 UNL     1      19.763  -1.273   1.053 +0.00 +0.00    +0.186 C  
DOCKED: BRANCH  23  24
DOCKED: ATOM     24  C42 UNL     1      19.840  -2.770   1.367 +0.00 +0.00    +0.326 C  
DOCKED: ATOM     25  O11 UNL     1      20.700  -3.548   0.983 +0.00 -0.00    -0.249 OA 
DOCKED: BRANCH  24  26
DOCKED: ATOM     26  O12 UNL     1      18.830  -3.206   2.142 +0.00 -0.00    -0.479 OA 
DOCKED: ATOM     27  H65 UNL     1      18.027  -2.910   1.664 +0.00 +0.00    +0.295 HD 
DOCKED: ENDBRANCH  24  26
DOCKED: ENDBRANCH  23  24
DOCKED: BRANCH  23  28
DOCKED: ATOM     28  C35 UNL     1      19.678  -0.425   2.325 +0.00 +0.00    +0.069 C  
DOCKED: BRANCH  28  29
DOCKED: ATOM     29  C36 UNL     1      19.111   0.962   2.124 +0.00 -0.00    -0.045 A  
DOCKED: ATOM     30  C37 UNL     1      19.546   1.771   1.064 +0.00 +0.00    +0.004 A  
DOCKED: ATOM     31  C38 UNL     1      19.035   3.059   0.905 +0.00 +0.00    +0.000 A  
DOCKED: ATOM     32  C39 UNL     1      18.078   3.546   1.789 +0.00 +0.00    +0.000 A  
DOCKED: ATOM     33  C40 UNL     1      17.620   2.744   2.833 +0.00 +0.00    +0.000 A  
DOCKED: ATOM     34  C41 UNL     1      18.135   1.460   2.999 +0.00 +0.00    +0.004 A  
DOCKED: ENDBRANCH  28  29
DOCKED: ENDBRANCH  23  28
DOCKED: ENDBRANCH  21  23
DOCKED: ENDBRANCH  18  19
DOCKED: BRANCH  18  35
DOCKED: ATOM     35  C30 UNL     1      14.998  -0.079   0.274 +0.00 +0.00    +0.043 C  
DOCKED: BRANCH  35  36
DOCKED: ATOM     36  C31 UNL     1      13.836  -1.020  -0.040 +0.00 +0.00    +0.123 C  
DOCKED: BRANCH  36  37
DOCKED: ATOM     37  C32 UNL     1      13.877  -2.211   0.860 +0.00 +0.00    +0.305 C  
DOCKED: ATOM     38  O8  UNL     1      13.159  -3.192   0.775 +0.00 -0.00    -0.251 OA 
DOCKED: BRANCH  37  39
DOCKED: ATOM     39  O9  UNL     1      14.781  -2.090   1.849 +0.00 -0.00    -0.481 OA 
DOCKED: ATOM     40  H55 UNL     1      15.630  -2.348   1.443 +0.00 +0.00    +0.295 HD 
DOCKED: ENDBRANCH  37  39
DOCKED: ENDBRANCH  36  37
DOCKED: ENDBRANCH  35  36
DOCKED: ENDBRANCH  18  35
DOCKED: ENDBRANCH  16  18
DOCKED: ENDBRANCH  12  14
DOCKED: ENDBRANCH  10  12
DOCKED: ENDBRANCH   7   8
DOCKED: BRANCH   1  41
DOCKED: ATOM     41  C19 UNL     1      17.063  -5.552   1.650 +0.00 +0.00    +0.129 C  
DOCKED: BRANCH  41  42
DOCKED: ATOM     42  C18 UNL     1      16.464  -4.966   2.945 +0.00 +0.00    +0.143 C  
DOCKED: BRANCH  42  43
DOCKED: ATOM     43  O4  UNL     1      16.395  -3.527   2.799 +0.00 -0.00    -0.389 OA 
DOCKED: ATOM     44  H34 UNL     1      16.655  -3.318   1.870 +0.00 +0.00    +0.210 HD 
DOCKED: ENDBRANCH  42  43
DOCKED: BRANCH  42  45
DOCKED: ATOM     45  C13 UNL     1      15.054  -5.508   3.320 +0.00 +0.00    +0.102 C  
DOCKED: BRANCH  45  48
DOCKED: ATOM     46  C12 UNL     1      12.777  -4.675   3.959 +0.00 +0.00    +0.234 C  
DOCKED: ATOM     47  O3  UNL     1      12.512  -5.691   4.605 +0.00 -0.00    -0.274 OA 
DOCKED: ATOM     48  N3  UNL     1      14.030  -4.454   3.431 +0.00 -0.00    -0.308 N  
DOCKED: ATOM     49  H22 UNL     1      14.090  -3.692   2.747 +0.00 +0.00    +0.149 HD 
DOCKED: BRANCH  46  50
DOCKED: ATOM     50  C4  UNL     1      11.744  -3.546   3.700 +0.00 +0.00    +0.160 C  
DOCKED: BRANCH  50  51
DOCKED: ATOM     51  N1  UNL     1      12.477  -2.283   3.545 +0.00 -0.00    -0.302 N  
DOCKED: ATOM     52  C5  UNL     1      13.242  -1.812   4.587 +0.00 +0.00    +0.234 C  
DOCKED: ATOM     53  O1  UNL     1      13.201  -2.345   5.703 +0.00 -0.00    -0.274 OA 
DOCKED: ATOM     54  H9  UNL     1      12.773  -2.048   2.614 +0.00 +0.00    +0.150 HD 
DOCKED: BRANCH  52  55
DOCKED: ATOM     55  C6  UNL     1      14.067  -0.517   4.349 +0.00 +0.00    +0.161 C  
DOCKED: BRANCH  55  56
DOCKED: ATOM     56  N2  UNL     1      15.436  -1.005   4.147 +0.00 -0.00    -0.304 N  
DOCKED: ATOM     57  C7  UNL     1      16.358  -1.081   5.158 +0.00 +0.00    +0.211 C  
DOCKED: ATOM     58  C8  UNL     1      17.652  -1.742   4.765 +0.00 +0.00    +0.109 C  
DOCKED: ATOM     59  O2  UNL     1      16.178  -0.606   6.273 +0.00 -0.00    -0.276 OA 
DOCKED: ATOM     60  H11 UNL     1      15.564  -1.601   3.332 +0.00 +0.00    +0.149 HD 
DOCKED: ENDBRANCH  55  56
DOCKED: BRANCH  55  61
DOCKED: ATOM     61  C9  UNL     1      13.642   0.418   3.190 +0.00 +0.00    +0.012 C  
DOCKED: ATOM     62  C10 UNL     1      12.161   0.779   3.163 +0.00 +0.00    +0.009 C  
DOCKED: ATOM     63  C11 UNL     1      14.503   1.685   3.144 +0.00 +0.00    +0.009 C  
DOCKED: ENDBRANCH  55  61
DOCKED: ENDBRANCH  52  55
DOCKED: ENDBRANCH  50  51
DOCKED: BRANCH  50  64
DOCKED: ATOM     64  C3  UNL     1      10.867  -3.827   2.467 +0.00 +0.00    +0.042 C  
DOCKED: BRANCH  64  65
DOCKED: ATOM     65  C2  UNL     1      10.768  -5.319   2.119 +0.00 +0.00    +0.071 C  
DOCKED: BRANCH  65  67
DOCKED: ATOM     66  C1  UNL     1      10.956  -4.753  -0.595 +0.00 +0.00    +0.084 C  
DOCKED: ATOM     67  S1  UNL     1      11.711  -5.838   0.644 +0.00 -0.00    -0.164 S  
DOCKED: ENDBRANCH  65  67
DOCKED: ENDBRANCH  64  65
DOCKED: ENDBRANCH  50  64
DOCKED: ENDBRANCH  46  50
DOCKED: ENDBRANCH  45  48
DOCKED: BRANCH  45  68
DOCKED: ATOM     68  C14 UNL     1      14.565  -6.600   2.332 +0.00 +0.00    +0.028 C  
DOCKED: BRANCH  68  69
DOCKED: ATOM     69  C15 UNL     1      14.287  -7.970   2.985 +0.00 -0.00    -0.015 C  
DOCKED: ATOM     70  C16 UNL     1      12.816  -8.399   2.908 +0.00 +0.00    +0.007 C  
DOCKED: ATOM     71  C17 UNL     1      14.719  -7.945   4.465 +0.00 +0.00    +0.007 C  
DOCKED: ENDBRANCH  68  69
DOCKED: ENDBRANCH  45  68
DOCKED: ENDBRANCH  42  45
DOCKED: ENDBRANCH  41  42
DOCKED: ENDBRANCH   1  41
DOCKED: TORSDOF 29
DOCKED: TER
DOCKED: ENDMDL
________________________________________________________________________________


    FINAL DOCKED STATE:
    ________________________


Run:   9 / 20
Time taken for this run:   5.123s

DOCKED: MODEL        9
DOCKED: USER    Run = 9
DOCKED: USER
DOCKED: USER    Estimated Free Energy of Binding    =  +8.65 kcal/mol  [=(1)+(2)+(3)-(4)]
DOCKED: USER
DOCKED: USER    (1) Final Intermolecular Energy     =  +0.00 kcal/mol
DOCKED: USER        vdW + Hbond + desolv Energy     =  +0.00 kcal/mol
DOCKED: USER        Electrostatic Energy            =  +0.00 kcal/mol
DOCKED: USER        Moving Ligand-Fixed Receptor    =  +0.00 kcal/mol
DOCKED: USER        Moving Ligand-Moving Receptor   =  +0.00 kcal/mol
DOCKED: USER    (2) Final Total Internal Energy     = -23.23 kcal/mol
DOCKED: USER    (3) Torsional Free Energy           =  +8.65 kcal/mol
DOCKED: USER    (4) Unbound System's Energy         = -23.23 kcal/mol
DOCKED: USER
DOCKED: USER
DOCKED: REMARK  Name = ligands/ligand_41.pdb
DOCKED: REMARK  36 active torsions:
DOCKED: REMARK  status: ('A' for Active; 'I' for Inactive)
DOCKED: REMARK    1  A    between atoms: C1_1  and  S1_2
DOCKED: REMARK    2  A    between atoms: S1_2  and  C2_3
DOCKED: REMARK    3  A    between atoms: C2_3  and  C3_4
DOCKED: REMARK    4  A    between atoms: C3_4  and  C4_5
DOCKED: REMARK    5  A    between atoms: C4_5  and  N1_6
DOCKED: REMARK    6  A    between atoms: C4_5  and  C12_17
DOCKED: REMARK    7  A    between atoms: C5_7  and  C6_9
DOCKED: REMARK    8  A    between atoms: C6_9  and  N2_10
DOCKED: REMARK    9  A    between atoms: C6_9  and  C9_14
DOCKED: REMARK   10  A    between atoms: C7_11  and  C8_12
DOCKED: REMARK   11  A    between atoms: C9_14  and  C10_15
DOCKED: REMARK   12  A    between atoms: C9_14  and  C11_16
DOCKED: REMARK   13  A    between atoms: N3_19  and  C13_20
DOCKED: REMARK   14  A    between atoms: C13_20  and  C14_21
DOCKED: REMARK   15  A    between atoms: C13_20  and  C18_25
DOCKED: REMARK   16  A    between atoms: C14_21  and  C15_22
DOCKED: REMARK   17  A    between atoms: C15_22  and  C16_23
DOCKED: REMARK   18  A    between atoms: C15_22  and  C17_24
DOCKED: REMARK   19  A    between atoms: C18_25  and  O4_26
DOCKED: REMARK   20  A    between atoms: C18_25  and  C19_27
DOCKED: REMARK   21  A    between atoms: C19_27  and  C20_28
DOCKED: REMARK   22  A    between atoms: C24_34  and  C25_35
DOCKED: REMARK   23  A    between atoms: N5_37  and  C26_38
DOCKED: REMARK   24  A    between atoms: C26_38  and  C27_39
DOCKED: REMARK   25  A    between atoms: C26_38  and  C28_40
DOCKED: REMARK   26  A    between atoms: N6_42  and  C29_43
DOCKED: REMARK   27  A    between atoms: C29_43  and  C30_44
DOCKED: REMARK   28  A    between atoms: C29_43  and  C33_49
DOCKED: REMARK   29  A    between atoms: C30_44  and  C31_45
DOCKED: REMARK   30  A    between atoms: C31_45  and  C32_46
DOCKED: REMARK   31  A    between atoms: C32_46  and  O9_48
DOCKED: REMARK   32  A    between atoms: N7_51  and  C34_52
DOCKED: REMARK   33  A    between atoms: C34_52  and  C35_53
DOCKED: REMARK   34  A    between atoms: C34_52  and  C42_60
DOCKED: REMARK   35  A    between atoms: C35_53  and  C36_54
DOCKED: REMARK   36  A    between atoms: C42_60  and  O12_62
DOCKED: REMARK                            x       y       z     vdW  Elec       q    Type
DOCKED: REMARK                         _______ _______ _______ _____ _____    ______ ____
DOCKED: USER                              x       y       z     vdW  Elec       q    Type
DOCKED: USER                           _______ _______ _______ _____ _____    ______ ____
DOCKED: ROOT
DOCKED: ATOM      1  C20 UNL     1       9.603  -3.271  -1.745 +0.00 +0.00    +0.219 C  
DOCKED: ATOM      2  O5  UNL     1      10.036  -3.298  -2.899 +0.00 -0.00    -0.275 OA 
DOCKED: ATOM      3  N4  UNL     1       8.890  -2.170  -1.301 +0.00 -0.00    -0.290 N  
DOCKED: ATOM      4  C21 UNL     1       8.343  -2.041   0.044 +0.00 +0.00    +0.108 C  
DOCKED: ATOM      5  C22 UNL     1       8.225  -0.548   0.320 +0.00 +0.00    +0.021 C  
DOCKED: ATOM      6  C23 UNL     1       8.262   0.084  -1.053 +0.00 +0.00    +0.033 C  
DOCKED: ATOM      7  C24 UNL     1       9.149  -0.846  -1.884 +0.00 +0.00    +0.162 C  
DOCKED: ENDROOT
DOCKED: BRANCH   7   8
DOCKED: ATOM      8  C25 UNL     1       8.887  -0.474  -3.375 +0.00 +0.00    +0.234 C  
DOCKED: ATOM      9  O6  UNL     1       9.218   0.629  -3.816 +0.00 -0.00    -0.274 OA 
DOCKED: ATOM     10  N5  UNL     1       8.347  -1.460  -4.169 +0.00 -0.00    -0.303 N  
DOCKED: ATOM     11  H44 UNL     1       8.529  -2.390  -3.781 +0.00 +0.00    +0.149 HD 
DOCKED: BRANCH  10  12
DOCKED: ATOM     12  C26 UNL     1       8.481  -1.449  -5.629 +0.00 +0.00    +0.156 C  
DOCKED: ATOM     13  C27 UNL     1       8.556  -0.065  -6.262 +0.00 +0.00    +0.038 C  
DOCKED: BRANCH  12  14
DOCKED: ATOM     14  C28 UNL     1       9.634  -2.406  -6.031 +0.00 +0.00    +0.234 C  
DOCKED: ATOM     15  O7  UNL     1      10.247  -3.100  -5.220 +0.00 -0.00    -0.274 OA 
DOCKED: ATOM     16  N6  UNL     1       9.858  -2.535  -7.390 +0.00 -0.00    -0.302 N  
DOCKED: ATOM     17  H49 UNL     1       9.800  -1.669  -7.916 +0.00 +0.00    +0.150 HD 
DOCKED: BRANCH  16  18
DOCKED: ATOM     18  C29 UNL     1      10.902  -3.463  -7.819 +0.00 +0.00    +0.159 C  
DOCKED: BRANCH  18  19
DOCKED: ATOM     19  C33 UNL     1      10.391  -4.906  -7.707 +0.00 +0.00    +0.234 C  
DOCKED: ATOM     20  O10 UNL     1      10.133  -5.595  -8.695 +0.00 -0.00    -0.274 OA 
DOCKED: ATOM     21  N7  UNL     1      10.195  -5.342  -6.421 +0.00 -0.00    -0.301 N  
DOCKED: ATOM     22  H56 UNL     1      10.228  -4.656  -5.676 +0.00 +0.00    +0.150 HD 
DOCKED: BRANCH  21  23
DOCKED: ATOM     23  C34 UNL     1       9.472  -6.579  -6.127 +0.00 +0.00    +0.186 C  
DOCKED: BRANCH  23  24
DOCKED: ATOM     24  C42 UNL     1       9.021  -6.541  -4.665 +0.00 +0.00    +0.326 C  
DOCKED: ATOM     25  O11 UNL     1       8.659  -7.494  -3.992 +0.00 -0.00    -0.249 OA 
DOCKED: BRANCH  24  26
DOCKED: ATOM     26  O12 UNL     1       9.047  -5.306  -4.130 +0.00 -0.00    -0.479 OA 
DOCKED: ATOM     27  H65 UNL     1       9.979  -5.023  -4.246 +0.00 +0.00    +0.295 HD 
DOCKED: ENDBRANCH  24  26
DOCKED: ENDBRANCH  23  24
DOCKED: BRANCH  23  28
DOCKED: ATOM     28  C35 UNL     1      10.299  -7.829  -6.440 +0.00 +0.00    +0.069 C  
DOCKED: BRANCH  28  29
DOCKED: ATOM     29  C36 UNL     1      11.668  -7.858  -5.800 +0.00 -0.00    -0.045 A  
DOCKED: ATOM     30  C37 UNL     1      12.830  -7.838  -6.586 +0.00 +0.00    +0.004 A  
DOCKED: ATOM     31  C38 UNL     1      14.087  -7.892  -5.985 +0.00 +0.00    +0.000 A  
DOCKED: ATOM     32  C39 UNL     1      14.199  -7.952  -4.599 +0.00 +0.00    +0.000 A  
DOCKED: ATOM     33  C40 UNL     1      13.053  -7.950  -3.806 +0.00 +0.00    +0.000 A  
DOCKED: ATOM     34  C41 UNL     1      11.795  -7.904  -4.404 +0.00 +0.00    +0.004 A  
DOCKED: ENDBRANCH  28  29
DOCKED: ENDBRANCH  23  28
DOCKED: ENDBRANCH  21  23
DOCKED: ENDBRANCH  18  19
DOCKED: BRANCH  18  35
DOCKED: ATOM     35  C30 UNL     1      12.204  -3.265  -7.026 +0.00 +0.00    +0.043 C  
DOCKED: BRANCH  35  36
DOCKED: ATOM     36  C31 UNL     1      12.934  -4.564  -6.690 +0.00 +0.00    +0.123 C  
DOCKED: BRANCH  36  37
DOCKED: ATOM     37  C32 UNL     1      13.009  -4.747  -5.209 +0.00 +0.00    +0.305 C  
DOCKED: ATOM     38  O8  UNL     1      14.031  -4.872  -4.559 +0.00 -0.00    -0.251 OA 
DOCKED: BRANCH  37  39
DOCKED: ATOM     39  O9  UNL     1      11.797  -4.812  -4.628 +0.00 -0.00    -0.481 OA 
DOCKED: ATOM     40  H55 UNL     1      11.765  -4.041  -4.031 +0.00 +0.00    +0.295 HD 
DOCKED: ENDBRANCH  37  39
DOCKED: ENDBRANCH  36  37
DOCKED: ENDBRANCH  35  36
DOCKED: ENDBRANCH  18  35
DOCKED: ENDBRANCH  16  18
DOCKED: ENDBRANCH  12  14
DOCKED: ENDBRANCH  10  12
DOCKED: ENDBRANCH   7   8
DOCKED: BRANCH   1  41
DOCKED: ATOM     41  C19 UNL     1       9.775  -4.488  -0.848 +0.00 +0.00    +0.129 C  
DOCKED: BRANCH  41  42
DOCKED: ATOM     42  C18 UNL     1      11.130  -5.170  -1.126 +0.00 +0.00    +0.143 C  
DOCKED: BRANCH  42  43
DOCKED: ATOM     43  O4  UNL     1      11.184  -5.507  -2.534 +0.00 -0.00    -0.389 OA 
DOCKED: ATOM     44  H34 UNL     1      10.833  -4.729  -3.030 +0.00 +0.00    +0.210 HD 
DOCKED: ENDBRANCH  42  43
DOCKED: BRANCH  42  45
DOCKED: ATOM     45  C13 UNL     1      12.381  -4.321  -0.758 +0.00 +0.00    +0.102 C  
DOCKED: BRANCH  45  48
DOCKED: ATOM     46  C12 UNL     1      14.303  -3.139  -1.851 +0.00 +0.00    +0.234 C  
DOCKED: ATOM     47  O3  UNL     1      14.745  -2.721  -0.779 +0.00 -0.00    -0.274 OA 
DOCKED: ATOM     48  N3  UNL     1      13.253  -4.030  -1.909 +0.00 -0.00    -0.308 N  
DOCKED: ATOM     49  H22 UNL     1      12.834  -4.154  -2.837 +0.00 +0.00    +0.149 HD 
DOCKED: BRANCH  46  50
DOCKED: ATOM     50  C4  UNL     1      14.896  -2.729  -3.225 +0.00 +0.00    +0.160 C  
DOCKED: BRANCH  50  51
DOCKED: ATOM     51  N1  UNL     1      14.271  -1.463  -3.633 +0.00 -0.00    -0.302 N  
DOCKED: ATOM     52  C5  UNL     1      12.904  -1.399  -3.774 +0.00 +0.00    +0.234 C  
DOCKED: ATOM     53  O1  UNL     1      12.206  -2.418  -3.719 +0.00 -0.00    -0.274 OA 
DOCKED: ATOM     54  H9  UNL     1      14.746  -0.621  -3.360 +0.00 +0.00    +0.150 HD 
DOCKED: BRANCH  52  55
DOCKED: ATOM     55  C6  UNL     1      12.280  -0.019  -4.124 +0.00 +0.00    +0.161 C  
DOCKED: BRANCH  55  56
DOCKED: ATOM     56  N2  UNL     1      11.777   0.475  -2.836 +0.00 -0.00    -0.304 N  
DOCKED: ATOM     57  C7  UNL     1      12.590   0.716  -1.760 +0.00 +0.00    +0.211 C  
DOCKED: ATOM     58  C8  UNL     1      11.890   1.353  -0.588 +0.00 +0.00    +0.109 C  
DOCKED: ATOM     59  O2  UNL     1      13.771   0.393  -1.720 +0.00 -0.00    -0.276 OA 
DOCKED: ATOM     60  H11 UNL     1      10.881   0.957  -2.882 +0.00 +0.00    +0.149 HD 
DOCKED: ENDBRANCH  55  56
DOCKED: BRANCH  55  61
DOCKED: ATOM     61  C9  UNL     1      13.182   1.041  -4.802 +0.00 +0.00    +0.012 C  
DOCKED: ATOM     62  C10 UNL     1      13.664   0.676  -6.202 +0.00 +0.00    +0.009 C  
DOCKED: ATOM     63  C11 UNL     1      12.520   2.424  -4.808 +0.00 +0.00    +0.009 C  
DOCKED: ENDBRANCH  55  61
DOCKED: ENDBRANCH  52  55
DOCKED: ENDBRANCH  50  51
DOCKED: BRANCH  50  64
DOCKED: ATOM     64  C3  UNL     1      16.429  -2.596  -3.185 +0.00 +0.00    +0.042 C  
DOCKED: BRANCH  64  65
DOCKED: ATOM     65  C2  UNL     1      17.056  -2.371  -4.569 +0.00 +0.00    +0.071 C  
DOCKED: BRANCH  65  67
DOCKED: ATOM     66  C1  UNL     1      15.482  -2.103  -6.843 +0.00 +0.00    +0.084 C  
DOCKED: ATOM     67  S1  UNL     1      16.358  -3.389  -5.914 +0.00 -0.00    -0.164 S  
DOCKED: ENDBRANCH  65  67
DOCKED: ENDBRANCH  64  65
DOCKED: ENDBRANCH  50  64
DOCKED: ENDBRANCH  46  50
DOCKED: ENDBRANCH  45  48
DOCKED: BRANCH  45  68
DOCKED: ATOM     68  C14 UNL     1      11.999  -2.993  -0.051 +0.00 +0.00    +0.028 C  
DOCKED: BRANCH  68  69
DOCKED: ATOM     69  C15 UNL     1      12.340  -2.953   1.453 +0.00 -0.00    -0.015 C  
DOCKED: ATOM     70  C16 UNL     1      11.125  -3.169   2.364 +0.00 +0.00    +0.007 C  
DOCKED: ATOM     71  C17 UNL     1      12.992  -1.601   1.809 +0.00 +0.00    +0.007 C  
DOCKED: ENDBRANCH  68  69
DOCKED: ENDBRANCH  45  68
DOCKED: ENDBRANCH  42  45
DOCKED: ENDBRANCH  41  42
DOCKED: ENDBRANCH   1  41
DOCKED: TORSDOF 29
DOCKED: TER
DOCKED: ENDMDL
________________________________________________________________________________


    FINAL DOCKED STATE:
    ________________________


Run:   10 / 20
Time taken for this run:   5.123s

DOCKED: MODEL        10
DOCKED: USER    Run = 10
DOCKED: USER
DOCKED: USER    Estimated Free Energy of Binding    =  +8.65 kcal/mol  [=(1)+(2)+(3)-(4)]
DOCKED: USER
DOCKED: USER    (1) Final Intermolecular Energy     =  +0.00 kcal/mol
DOCKED: USER        vdW + Hbond + desolv Energy     =  +0.00 kcal/mol
DOCKED: USER        Electrostatic Energy            =  +0.00 kcal/mol
DOCKED: USER        Moving Ligand-Fixed Receptor    =  +0.00 kcal/mol
DOCKED: USER        Moving Ligand-Moving Receptor   =  +0.00 kcal/mol
DOCKED: USER    (2) Final Total Internal Energy     = -23.35 kcal/mol
DOCKED: USER    (3) Torsional Free Energy           =  +8.65 kcal/mol
DOCKED: USER    (4) Unbound System's Energy         = -23.35 kcal/mol
DOCKED: USER
DOCKED: USER
DOCKED: REMARK  Name = ligands/ligand_41.pdb
DOCKED: REMARK  36 active torsions:
DOCKED: REMARK  status: ('A' for Active; 'I' for Inactive)
DOCKED: REMARK    1  A    between atoms: C1_1  and  S1_2
DOCKED: REMARK    2  A    between atoms: S1_2  and  C2_3
DOCKED: REMARK    3  A    between atoms: C2_3  and  C3_4
DOCKED: REMARK    4  A    between atoms: C3_4  and  C4_5
DOCKED: REMARK    5  A    between atoms: C4_5  and  N1_6
DOCKED: REMARK    6  A    between atoms: C4_5  and  C12_17
DOCKED: REMARK    7  A    between atoms: C5_7  and  C6_9
DOCKED: REMARK    8  A    between atoms: C6_9  and  N2_10
DOCKED: REMARK    9  A    between atoms: C6_9  and  C9_14
DOCKED: REMARK   10  A    between atoms: C7_11  and  C8_12
DOCKED: REMARK   11  A    between atoms: C9_14  and  C10_15
DOCKED: REMARK   12  A    between atoms: C9_14  and  C11_16
DOCKED: REMARK   13  A    between atoms: N3_19  and  C13_20
DOCKED: REMARK   14  A    between atoms: C13_20  and  C14_21
DOCKED: REMARK   15  A    between atoms: C13_20  and  C18_25
DOCKED: REMARK   16  A    between atoms: C14_21  and  C15_22
DOCKED: REMARK   17  A    between atoms: C15_22  and  C16_23
DOCKED: REMARK   18  A    between atoms: C15_22  and  C17_24
DOCKED: REMARK   19  A    between atoms: C18_25  and  O4_26
DOCKED: REMARK   20  A    between atoms: C18_25  and  C19_27
DOCKED: REMARK   21  A    between atoms: C19_27  and  C20_28
DOCKED: REMARK   22  A    between atoms: C24_34  and  C25_35
DOCKED: REMARK   23  A    between atoms: N5_37  and  C26_38
DOCKED: REMARK   24  A    between atoms: C26_38  and  C27_39
DOCKED: REMARK   25  A    between atoms: C26_38  and  C28_40
DOCKED: REMARK   26  A    between atoms: N6_42  and  C29_43
DOCKED: REMARK   27  A    between atoms: C29_43  and  C30_44
DOCKED: REMARK   28  A    between atoms: C29_43  and  C33_49
DOCKED: REMARK   29  A    between atoms: C30_44  and  C31_45
DOCKED: REMARK   30  A    between atoms: C31_45  and  C32_46
DOCKED: REMARK   31  A    between atoms: C32_46  and  O9_48
DOCKED: REMARK   32  A    between atoms: N7_51  and  C34_52
DOCKED: REMARK   33  A    between atoms: C34_52  and  C35_53
DOCKED: REMARK   34  A    between atoms: C34_52  and  C42_60
DOCKED: REMARK   35  A    between atoms: C35_53  and  C36_54
DOCKED: REMARK   36  A    between atoms: C42_60  and  O12_62
DOCKED: REMARK                            x       y       z     vdW  Elec       q    Type
DOCKED: REMARK                         _______ _______ _______ _____ _____    ______ ____
DOCKED: USER                              x       y       z     vdW  Elec       q    Type
DOCKED: USER                           _______ _______ _______ _____ _____    ______ ____
DOCKED: ROOT
DOCKED: ATOM      1  C20 UNL     1      12.679   3.720  -2.986 +0.00 +0.00    +0.219 C  
DOCKED: ATOM      2  O5  UNL     1      13.641   3.016  -2.672 +0.00 -0.00    -0.275 OA 
DOCKED: ATOM      3  N4  UNL     1      12.278   4.750  -2.151 +0.00 -0.00    -0.290 N  
DOCKED: ATOM      4  C21 UNL     1      11.151   5.632  -2.430 +0.00 +0.00    +0.108 C  
DOCKED: ATOM      5  C22 UNL     1      10.663   6.147  -1.083 +0.00 +0.00    +0.021 C  
DOCKED: ATOM      6  C23 UNL     1      11.830   5.908  -0.152 +0.00 +0.00    +0.033 C  
DOCKED: ATOM      7  C24 UNL     1      12.515   4.655  -0.704 +0.00 +0.00    +0.162 C  
DOCKED: ENDROOT
DOCKED: BRANCH   7   8
DOCKED: ATOM      8  C25 UNL     1      13.927   4.609  -0.044 +0.00 +0.00    +0.234 C  
DOCKED: ATOM      9  O6  UNL     1      14.056   4.322   1.148 +0.00 -0.00    -0.274 OA 
DOCKED: ATOM     10  N5  UNL     1      15.001   4.828  -0.877 +0.00 -0.00    -0.303 N  
DOCKED: ATOM     11  H44 UNL     1      14.761   4.628  -1.853 +0.00 +0.00    +0.149 HD 
DOCKED: BRANCH  10  12
DOCKED: ATOM     12  C26 UNL     1      16.352   4.363  -0.548 +0.00 +0.00    +0.156 C  
DOCKED: ATOM     13  C27 UNL     1      16.825   4.695   0.862 +0.00 +0.00    +0.038 C  
DOCKED: BRANCH  12  14
DOCKED: ATOM     14  C28 UNL     1      16.472   2.865  -0.932 +0.00 +0.00    +0.234 C  
DOCKED: ATOM     15  O7  UNL     1      16.101   2.417  -2.017 +0.00 -0.00    -0.274 OA 
DOCKED: ATOM     16  N6  UNL     1      17.144   2.066  -0.025 +0.00 -0.00    -0.302 N  
DOCKED: ATOM     17  H49 UNL     1      16.932   2.255   0.949 +0.00 +0.00    +0.150 HD 
DOCKED: BRANCH  16  18
DOCKED: ATOM     18  C29 UNL     1      17.325   0.657  -0.367 +0.00 +0.00    +0.159 C  
DOCKED: BRANCH  18  19
DOCKED: ATOM     19  C33 UNL     1      17.967   0.539  -1.756 +0.00 +0.00    +0.234 C  
DOCKED: ATOM     20  O10 UNL     1      19.169   0.729  -1.948 +0.00 -0.00    -0.274 OA 
DOCKED: ATOM     21  N7  UNL     1      17.085   0.258  -2.769 +0.00 -0.00    -0.301 N  
DOCKED: ATOM     22  H56 UNL     1      16.093   0.323  -2.568 +0.00 +0.00    +0.150 HD 
DOCKED: BRANCH  21  23
DOCKED: ATOM     23  C34 UNL     1      17.466   0.368  -4.176 +0.00 +0.00    +0.186 C  
DOCKED: BRANCH  23  24
DOCKED: ATOM     24  C42 UNL     1      16.339   1.082  -4.928 +0.00 +0.00    +0.326 C  
DOCKED: ATOM     25  O11 UNL     1      16.456   1.759  -5.939 +0.00 -0.00    -0.249 OA 
DOCKED: BRANCH  24  26
DOCKED: ATOM     26  O12 UNL     1      15.128   0.909  -4.366 +0.00 -0.00    -0.479 OA 
DOCKED: ATOM     27  H65 UNL     1      15.044   1.674  -3.760 +0.00 +0.00    +0.295 HD 
DOCKED: ENDBRANCH  24  26
DOCKED: ENDBRANCH  23  24
DOCKED: BRANCH  23  28
DOCKED: ATOM     28  C35 UNL     1      17.800  -0.990  -4.800 +0.00 +0.00    +0.069 C  
DOCKED: BRANCH  28  29
DOCKED: ATOM     29  C36 UNL     1      17.606  -1.065  -6.297 +0.00 -0.00    -0.045 A  
DOCKED: ATOM     30  C37 UNL     1      18.399  -0.299  -7.164 +0.00 +0.00    +0.004 A  
DOCKED: ATOM     31  C38 UNL     1      18.192  -0.357  -8.543 +0.00 +0.00    +0.000 A  
DOCKED: ATOM     32  C39 UNL     1      17.206  -1.185  -9.069 +0.00 +0.00    +0.000 A  
DOCKED: ATOM     33  C40 UNL     1      16.426  -1.969  -8.219 +0.00 +0.00    +0.000 A  
DOCKED: ATOM     34  C41 UNL     1      16.625  -1.907  -6.841 +0.00 +0.00    +0.004 A  
DOCKED: ENDBRANCH  28  29
DOCKED: ENDBRANCH  23  28
DOCKED: ENDBRANCH  21  23
DOCKED: ENDBRANCH  18  19
DOCKED: BRANCH  18  35
DOCKED: ATOM     35  C30 UNL     1      16.003  -0.124  -0.291 +0.00 +0.00    +0.043 C  
DOCKED: BRANCH  35  36
DOCKED: ATOM     36  C31 UNL     1      14.813   0.709   0.183 +0.00 +0.00    +0.123 C  
DOCKED: BRANCH  36  37
DOCKED: ATOM     37  C32 UNL     1      13.807   0.843  -0.913 +0.00 +0.00    +0.305 C  
DOCKED: ATOM     38  O8  UNL     1      12.664   1.244  -0.784 +0.00 -0.00    -0.251 OA 
DOCKED: BRANCH  37  39
DOCKED: ATOM     39  O9  UNL     1      14.270   0.423  -2.104 +0.00 -0.00    -0.481 OA 
DOCKED: ATOM     40  H55 UNL     1      14.370   1.236  -2.634 +0.00 +0.00    +0.295 HD 
DOCKED: ENDBRANCH  37  39
DOCKED: ENDBRANCH  36  37
DOCKED: ENDBRANCH  35  36
DOCKED: ENDBRANCH  18  35
DOCKED: ENDBRANCH  16  18
DOCKED: ENDBRANCH  12  14
DOCKED: ENDBRANCH  10  12
DOCKED: ENDBRANCH   7   8
DOCKED: BRANCH   1  41
DOCKED: ATOM     41  C19 UNL     1      12.001   3.512  -4.331 +0.00 +0.00    +0.129 C  
DOCKED: BRANCH  41  42
DOCKED: ATOM     42  C18 UNL     1      11.687   2.018  -4.547 +0.00 +0.00    +0.143 C  
DOCKED: BRANCH  42  43
DOCKED: ATOM     43  O4  UNL     1      12.896   1.263  -4.289 +0.00 -0.00    -0.389 OA 
DOCKED: ATOM     44  H34 UNL     1      13.205   1.511  -3.386 +0.00 +0.00    +0.210 HD 
DOCKED: ENDBRANCH  42  43
DOCKED: BRANCH  42  45
DOCKED: ATOM     45  C13 UNL     1      10.537   1.454  -3.662 +0.00 +0.00    +0.102 C  
DOCKED: BRANCH  45  48
DOCKED: ATOM     46  C12 UNL     1      10.092  -0.319  -1.947 +0.00 +0.00    +0.234 C  
DOCKED: ATOM     47  O3  UNL     1       8.870  -0.160  -2.000 +0.00 -0.00    -0.274 OA 
DOCKED: ATOM     48  N3  UNL     1      10.948   0.320  -2.816 +0.00 -0.00    -0.308 N  
DOCKED: ATOM     49  H22 UNL     1      11.941   0.282  -2.561 +0.00 +0.00    +0.149 HD 
DOCKED: BRANCH  46  50
DOCKED: ATOM     50  C4  UNL     1      10.775  -1.264  -0.923 +0.00 +0.00    +0.160 C  
DOCKED: BRANCH  50  51
DOCKED: ATOM     51  N1  UNL     1      12.114  -1.595  -1.429 +0.00 -0.00    -0.302 N  
DOCKED: ATOM     52  C5  UNL     1      12.236  -2.358  -2.567 +0.00 +0.00    +0.234 C  
DOCKED: ATOM     53  O1  UNL     1      11.252  -2.901  -3.083 +0.00 -0.00    -0.274 OA 
DOCKED: ATOM     54  H9  UNL     1      12.842  -0.928  -1.241 +0.00 +0.00    +0.150 HD 
DOCKED: BRANCH  52  55
DOCKED: ATOM     55  C6  UNL     1      13.668  -2.612  -3.114 +0.00 +0.00    +0.161 C  
DOCKED: BRANCH  55  56
DOCKED: ATOM     56  N2  UNL     1      13.821  -1.612  -4.178 +0.00 -0.00    -0.304 N  
DOCKED: ATOM     57  C7  UNL     1      13.518  -1.866  -5.490 +0.00 +0.00    +0.211 C  
DOCKED: ATOM     58  C8  UNL     1      13.611  -0.662  -6.389 +0.00 +0.00    +0.109 C  
DOCKED: ATOM     59  O2  UNL     1      13.249  -2.983  -5.916 +0.00 -0.00    -0.276 OA 
DOCKED: ATOM     60  H11 UNL     1      13.820  -0.644  -3.861 +0.00 +0.00    +0.149 HD 
DOCKED: ENDBRANCH  55  56
DOCKED: BRANCH  55  61
DOCKED: ATOM     61  C9  UNL     1      14.855  -2.540  -2.121 +0.00 +0.00    +0.012 C  
DOCKED: ATOM     62  C10 UNL     1      14.634  -3.269  -0.800 +0.00 +0.00    +0.009 C  
DOCKED: ATOM     63  C11 UNL     1      16.164  -2.998  -2.772 +0.00 +0.00    +0.009 C  
DOCKED: ENDBRANCH  55  61
DOCKED: ENDBRANCH  52  55
DOCKED: ENDBRANCH  50  51
DOCKED: BRANCH  50  64
DOCKED: ATOM     64  C3  UNL     1      10.859  -0.641   0.482 +0.00 +0.00    +0.042 C  
DOCKED: BRANCH  64  65
DOCKED: ATOM     65  C2  UNL     1       9.730   0.359   0.772 +0.00 +0.00    +0.071 C  
DOCKED: BRANCH  65  67
DOCKED: ATOM     66  C1  UNL     1      11.549   2.153   1.864 +0.00 +0.00    +0.084 C  
DOCKED: ATOM     67  S1  UNL     1      10.200   2.119   0.654 +0.00 -0.00    -0.164 S  
DOCKED: ENDBRANCH  65  67
DOCKED: ENDBRANCH  64  65
DOCKED: ENDBRANCH  50  64
DOCKED: ENDBRANCH  46  50
DOCKED: ENDBRANCH  45  48
DOCKED: BRANCH  45  68
DOCKED: ATOM     68  C14 UNL     1       9.890   2.551  -2.776 +0.00 +0.00    +0.028 C  
DOCKED: BRANCH  68  69
DOCKED: ATOM     69  C15 UNL     1       8.404   2.827  -3.088 +0.00 -0.00    -0.015 C  
DOCKED: ATOM     70  C16 UNL     1       8.184   4.038  -4.003 +0.00 +0.00    +0.007 C  
DOCKED: ATOM     71  C17 UNL     1       7.623   3.046  -1.777 +0.00 +0.00    +0.007 C  
DOCKED: ENDBRANCH  68  69
DOCKED: ENDBRANCH  45  68
DOCKED: ENDBRANCH  42  45
DOCKED: ENDBRANCH  41  42
DOCKED: ENDBRANCH   1  41
DOCKED: TORSDOF 29
DOCKED: TER
DOCKED: ENDMDL
________________________________________________________________________________


    FINAL DOCKED STATE:
    ________________________


Run:   11 / 20
Time taken for this run:   5.123s

DOCKED: MODEL        11
DOCKED: USER    Run = 11
DOCKED: USER
DOCKED: USER    Estimated Free Energy of Binding    =  +8.65 kcal/mol  [=(1)+(2)+(3)-(4)]
DOCKED: USER
DOCKED: USER    (1) Final Intermolecular Energy     =  +0.00 kcal/mol
DOCKED: USER        vdW + Hbond + desolv Energy     =  +0.00 kcal/mol
DOCKED: USER        Electrostatic Energy            =  +0.00 kcal/mol
DOCKED: USER        Moving Ligand-Fixed Receptor    =  +0.00 kcal/mol
DOCKED: USER        Moving Ligand-Moving Receptor   =  +0.00 kcal/mol
DOCKED: USER    (2) Final Total Internal Energy     = -23.10 kcal/mol
DOCKED: USER    (3) Torsional Free Energy           =  +8.65 kcal/mol
DOCKED: USER    (4) Unbound System's Energy         = -23.10 kcal/mol
DOCKED: USER
DOCKED: USER
DOCKED: REMARK  Name = ligands/ligand_41.pdb
DOCKED: REMARK  36 active torsions:
DOCKED: REMARK  status: ('A' for Active; 'I' for Inactive)
DOCKED: REMARK    1  A    between atoms: C1_1  and  S1_2
DOCKED: REMARK    2  A    between atoms: S1_2  and  C2_3
DOCKED: REMARK    3  A    between atoms: C2_3  and  C3_4
DOCKED: REMARK    4  A    between atoms: C3_4  and  C4_5
DOCKED: REMARK    5  A    between atoms: C4_5  and  N1_6
DOCKED: REMARK    6  A    between atoms: C4_5  and  C12_17
DOCKED: REMARK    7  A    between atoms: C5_7  and  C6_9
DOCKED: REMARK    8  A    between atoms: C6_9  and  N2_10
DOCKED: REMARK    9  A    between atoms: C6_9  and  C9_14
DOCKED: REMARK   10  A    between atoms: C7_11  and  C8_12
DOCKED: REMARK   11  A    between atoms: C9_14  and  C10_15
DOCKED: REMARK   12  A    between atoms: C9_14  and  C11_16
DOCKED: REMARK   13  A    between atoms: N3_19  and  C13_20
DOCKED: REMARK   14  A    between atoms: C13_20  and  C14_21
DOCKED: REMARK   15  A    between atoms: C13_20  and  C18_25
DOCKED: REMARK   16  A    between atoms: C14_21  and  C15_22
DOCKED: REMARK   17  A    between atoms: C15_22  and  C16_23
DOCKED: REMARK   18  A    between atoms: C15_22  and  C17_24
DOCKED: REMARK   19  A    between atoms: C18_25  and  O4_26
DOCKED: REMARK   20  A    between atoms: C18_25  and  C19_27
DOCKED: REMARK   21  A    between atoms: C19_27  and  C20_28
DOCKED: REMARK   22  A    between atoms: C24_34  and  C25_35
DOCKED: REMARK   23  A    between atoms: N5_37  and  C26_38
DOCKED: REMARK   24  A    between atoms: C26_38  and  C27_39
DOCKED: REMARK   25  A    between atoms: C26_38  and  C28_40
DOCKED: REMARK   26  A    between atoms: N6_42  and  C29_43
DOCKED: REMARK   27  A    between atoms: C29_43  and  C30_44
DOCKED: REMARK   28  A    between atoms: C29_43  and  C33_49
DOCKED: REMARK   29  A    between atoms: C30_44  and  C31_45
DOCKED: REMARK   30  A    between atoms: C31_45  and  C32_46
DOCKED: REMARK   31  A    between atoms: C32_46  and  O9_48
DOCKED: REMARK   32  A    between atoms: N7_51  and  C34_52
DOCKED: REMARK   33  A    between atoms: C34_52  and  C35_53
DOCKED: REMARK   34  A    between atoms: C34_52  and  C42_60
DOCKED: REMARK   35  A    between atoms: C35_53  and  C36_54
DOCKED: REMARK   36  A    between atoms: C42_60  and  O12_62
DOCKED: REMARK                            x       y       z     vdW  Elec       q    Type
DOCKED: REMARK                         _______ _______ _______ _____ _____    ______ ____
DOCKED: USER                              x       y       z     vdW  Elec       q    Type
DOCKED: USER                           _______ _______ _______ _____ _____    ______ ____
DOCKED: ROOT
DOCKED: ATOM      1  C20 UNL     1       2.954  -4.521   4.895 +0.00 +0.00    +0.219 C  
DOCKED: ATOM      2  O5  UNL     1       4.036  -4.987   4.533 +0.00 -0.00    -0.275 OA 
DOCKED: ATOM      3  N4  UNL     1       1.773  -5.095   4.453 +0.00 -0.00    -0.290 N  
DOCKED: ATOM      4  C21 UNL     1       0.447  -4.614   4.819 +0.00 +0.00    +0.108 C  
DOCKED: ATOM      5  C22 UNL     1      -0.492  -5.047   3.700 +0.00 +0.00    +0.021 C  
DOCKED: ATOM      6  C23 UNL     1       0.259  -6.155   2.997 +0.00 +0.00    +0.033 C  
DOCKED: ATOM      7  C24 UNL     1       1.735  -5.784   3.155 +0.00 +0.00    +0.162 C  
DOCKED: ENDROOT
DOCKED: BRANCH   7   8
DOCKED: ATOM      8  C25 UNL     1       2.543  -7.075   2.820 +0.00 +0.00    +0.234 C  
DOCKED: ATOM      9  O6  UNL     1       2.660  -7.458   1.654 +0.00 -0.00    -0.274 OA 
DOCKED: ATOM     10  N5  UNL     1       3.167  -7.700   3.875 +0.00 -0.00    -0.303 N  
DOCKED: ATOM     11  H44 UNL     1       3.323  -7.051   4.652 +0.00 +0.00    +0.149 HD 
DOCKED: BRANCH  10  12
DOCKED: ATOM     12  C26 UNL     1       4.312  -8.598   3.686 +0.00 +0.00    +0.156 C  
DOCKED: ATOM     13  C27 UNL     1       4.176  -9.584   2.532 +0.00 +0.00    +0.038 C  
DOCKED: BRANCH  12  14
DOCKED: ATOM     14  C28 UNL     1       5.611  -7.751   3.662 +0.00 +0.00    +0.234 C  
DOCKED: ATOM     15  O7  UNL     1       5.632  -6.543   3.893 +0.00 -0.00    -0.274 OA 
DOCKED: ATOM     16  N6  UNL     1       6.785  -8.462   3.487 +0.00 -0.00    -0.302 N  
DOCKED: ATOM     17  H49 UNL     1       6.733  -9.209   2.803 +0.00 +0.00    +0.150 HD 
DOCKED: BRANCH  16  18
DOCKED: ATOM     18  C29 UNL     1       8.039  -7.713   3.507 +0.00 +0.00    +0.159 C  
DOCKED: BRANCH  18  19
DOCKED: ATOM     19  C33 UNL     1       8.431  -7.396   4.957 +0.00 +0.00    +0.234 C  
DOCKED: ATOM     20  O10 UNL     1       9.431  -7.876   5.493 +0.00 -0.00    -0.274 OA 
DOCKED: ATOM     21  N7  UNL     1       7.549  -6.579   5.619 +0.00 -0.00    -0.301 N  
DOCKED: ATOM     22  H56 UNL     1       6.652  -6.396   5.183 +0.00 +0.00    +0.150 HD 
DOCKED: BRANCH  21  23
DOCKED: ATOM     23  C34 UNL     1       7.615  -6.383   7.066 +0.00 +0.00    +0.186 C  
DOCKED: BRANCH  23  24
DOCKED: ATOM     24  C42 UNL     1       6.317  -5.713   7.524 +0.00 +0.00    +0.326 C  
DOCKED: ATOM     25  O11 UNL     1       6.127  -5.156   8.595 +0.00 -0.00    -0.249 OA 
DOCKED: BRANCH  24  26
DOCKED: ATOM     26  O12 UNL     1       5.329  -5.785   6.613 +0.00 -0.00    -0.479 OA 
DOCKED: ATOM     27  H65 UNL     1       5.743  -5.440   5.795 +0.00 +0.00    +0.295 HD 
DOCKED: ENDBRANCH  24  26
DOCKED: ENDBRANCH  23  24
DOCKED: BRANCH  23  28
DOCKED: ATOM     28  C35 UNL     1       8.852  -5.588   7.494 +0.00 +0.00    +0.069 C  
DOCKED: BRANCH  28  29
DOCKED: ATOM     29  C36 UNL     1       9.014  -4.252   6.806 +0.00 -0.00    -0.045 A  
DOCKED: ATOM     30  C37 UNL     1      10.118  -3.998   5.978 +0.00 +0.00    +0.004 A  
DOCKED: ATOM     31  C38 UNL     1      10.270  -2.752   5.371 +0.00 +0.00    +0.000 A  
DOCKED: ATOM     32  C39 UNL     1       9.320  -1.755   5.570 +0.00 +0.00    +0.000 A  
DOCKED: ATOM     33  C40 UNL     1       8.207  -2.002   6.372 +0.00 +0.00    +0.000 A  
DOCKED: ATOM     34  C41 UNL     1       8.057  -3.244   6.987 +0.00 +0.00    +0.004 A  
DOCKED: ENDBRANCH  28  29
DOCKED: ENDBRANCH  23  28
DOCKED: ENDBRANCH  21  23
DOCKED: ENDBRANCH  18  19
DOCKED: BRANCH  18  35
DOCKED: ATOM     35  C30 UNL     1       7.957  -6.437   2.655 +0.00 +0.00    +0.043 C  
DOCKED: BRANCH  35  36
DOCKED: ATOM     36  C31 UNL     1       8.734  -5.253   3.227 +0.00 +0.00    +0.123 C  
DOCKED: BRANCH  36  37
DOCKED: ATOM     37  C32 UNL     1       7.798  -4.147   3.593 +0.00 +0.00    +0.305 C  
DOCKED: ATOM     38  O8  UNL     1       7.900  -2.985   3.244 +0.00 -0.00    -0.251 OA 
DOCKED: BRANCH  37  39
DOCKED: ATOM     39  O9  UNL     1       6.811  -4.548   4.414 +0.00 -0.00    -0.481 OA 
DOCKED: ATOM     40  H55 UNL     1       5.989  -4.398   3.910 +0.00 +0.00    +0.295 HD 
DOCKED: ENDBRANCH  37  39
DOCKED: ENDBRANCH  36  37
DOCKED: ENDBRANCH  35  36
DOCKED: ENDBRANCH  18  35
DOCKED: ENDBRANCH  16  18
DOCKED: ENDBRANCH  12  14
DOCKED: ENDBRANCH  10  12
DOCKED: ENDBRANCH   7   8
DOCKED: BRANCH   1  41
DOCKED: ATOM     41  C19 UNL     1       2.924  -3.378   5.899 +0.00 +0.00    +0.129 C  
DOCKED: BRANCH  41  42
DOCKED: ATOM     42  C18 UNL     1       4.148  -2.461   5.702 +0.00 +0.00    +0.143 C  
DOCKED: BRANCH  42  43
DOCKED: ATOM     43  O4  UNL     1       5.336  -3.290   5.701 +0.00 -0.00    -0.389 OA 
DOCKED: ATOM     44  H34 UNL     1       5.037  -4.223   5.585 +0.00 +0.00    +0.210 HD 
DOCKED: ENDBRANCH  42  43
DOCKED: BRANCH  42  45
DOCKED: ATOM     45  C13 UNL     1       4.125  -1.605   4.402 +0.00 +0.00    +0.102 C  
DOCKED: BRANCH  45  48
DOCKED: ATOM     46  C12 UNL     1       5.331  -1.367   2.217 +0.00 +0.00    +0.234 C  
DOCKED: ATOM     47  O3  UNL     1       4.637  -0.411   1.860 +0.00 -0.00    -0.274 OA 
DOCKED: ATOM     48  N3  UNL     1       5.237  -1.903   3.482 +0.00 -0.00    -0.308 N  
DOCKED: ATOM     49  H22 UNL     1       5.700  -2.809   3.610 +0.00 +0.00    +0.149 HD 
DOCKED: BRANCH  46  50
DOCKED: ATOM     50  C4  UNL     1       6.383  -2.036   1.293 +0.00 +0.00    +0.160 C  
DOCKED: BRANCH  50  51
DOCKED: ATOM     51  N1  UNL     1       5.687  -3.005   0.435 +0.00 -0.00    -0.302 N  
DOCKED: ATOM     52  C5  UNL     1       5.096  -4.109   1.004 +0.00 +0.00    +0.234 C  
DOCKED: ATOM     53  O1  UNL     1       5.270  -4.386   2.197 +0.00 -0.00    -0.274 OA 
DOCKED: ATOM     54  H9  UNL     1       5.274  -2.643  -0.406 +0.00 +0.00    +0.150 HD 
DOCKED: BRANCH  52  55
DOCKED: ATOM     55  C6  UNL     1       4.299  -5.061   0.069 +0.00 +0.00    +0.161 C  
DOCKED: BRANCH  55  56
DOCKED: ATOM     56  N2  UNL     1       4.758  -6.400   0.459 +0.00 -0.00    -0.304 N  
DOCKED: ATOM     57  C7  UNL     1       5.628  -7.140  -0.298 +0.00 +0.00    +0.211 C  
DOCKED: ATOM     58  C8  UNL     1       6.077  -8.422   0.354 +0.00 +0.00    +0.109 C  
DOCKED: ATOM     59  O2  UNL     1       5.974  -6.826  -1.430 +0.00 -0.00    -0.276 OA 
DOCKED: ATOM     60  H11 UNL     1       4.688  -6.606   1.453 +0.00 +0.00    +0.149 HD 
DOCKED: ENDBRANCH  55  56
DOCKED: BRANCH  55  61
DOCKED: ATOM     61  C9  UNL     1       2.753  -4.984   0.092 +0.00 +0.00    +0.012 C  
DOCKED: ATOM     62  C10 UNL     1       2.182  -3.653   0.569 +0.00 +0.00    +0.009 C  
DOCKED: ATOM     63  C11 UNL     1       2.149  -5.370  -1.263 +0.00 +0.00    +0.009 C  
DOCKED: ENDBRANCH  55  61
DOCKED: ENDBRANCH  52  55
DOCKED: ENDBRANCH  50  51
DOCKED: BRANCH  50  64
DOCKED: ATOM     64  C3  UNL     1       7.156  -1.009   0.446 +0.00 +0.00    +0.042 C  
DOCKED: BRANCH  64  65
DOCKED: ATOM     65  C2  UNL     1       8.307  -1.629  -0.359 +0.00 +0.00    +0.071 C  
DOCKED: BRANCH  65  67
DOCKED: ATOM     66  C1  UNL     1       8.395  -4.404  -0.456 +0.00 +0.00    +0.084 C  
DOCKED: ATOM     67  S1  UNL     1       9.155  -3.030   0.448 +0.00 -0.00    -0.164 S  
DOCKED: ENDBRANCH  65  67
DOCKED: ENDBRANCH  64  65
DOCKED: ENDBRANCH  50  64
DOCKED: ENDBRANCH  46  50
DOCKED: ENDBRANCH  45  48
DOCKED: BRANCH  45  68
DOCKED: ATOM     68  C14 UNL     1       2.778  -1.733   3.641 +0.00 +0.00    +0.028 C  
DOCKED: BRANCH  68  69
DOCKED: ATOM     69  C15 UNL     1       1.712  -0.698   4.057 +0.00 -0.00    -0.015 C  
DOCKED: ATOM     70  C16 UNL     1       0.272  -1.196   3.881 +0.00 +0.00    +0.007 C  
DOCKED: ATOM     71  C17 UNL     1       1.892   0.599   3.242 +0.00 +0.00    +0.007 C  
DOCKED: ENDBRANCH  68  69
DOCKED: ENDBRANCH  45  68
DOCKED: ENDBRANCH  42  45
DOCKED: ENDBRANCH  41  42
DOCKED: ENDBRANCH   1  41
DOCKED: TORSDOF 29
DOCKED: TER
DOCKED: ENDMDL
________________________________________________________________________________


    FINAL DOCKED STATE:
    ________________________


Run:   12 / 20
Time taken for this run:   5.123s

DOCKED: MODEL        12
DOCKED: USER    Run = 12
DOCKED: USER
DOCKED: USER    Estimated Free Energy of Binding    =  +8.65 kcal/mol  [=(1)+(2)+(3)-(4)]
DOCKED: USER
DOCKED: USER    (1) Final Intermolecular Energy     =  +0.00 kcal/mol
DOCKED: USER        vdW + Hbond + desolv Energy     =  +0.00 kcal/mol
DOCKED: USER        Electrostatic Energy            =  +0.00 kcal/mol
DOCKED: USER        Moving Ligand-Fixed Receptor    =  +0.00 kcal/mol
DOCKED: USER        Moving Ligand-Moving Receptor   =  +0.00 kcal/mol
DOCKED: USER    (2) Final Total Internal Energy     = -23.35 kcal/mol
DOCKED: USER    (3) Torsional Free Energy           =  +8.65 kcal/mol
DOCKED: USER    (4) Unbound System's Energy         = -23.35 kcal/mol
DOCKED: USER
DOCKED: USER
DOCKED: REMARK  Name = ligands/ligand_41.pdb
DOCKED: REMARK  36 active torsions:
DOCKED: REMARK  status: ('A' for Active; 'I' for Inactive)
DOCKED: REMARK    1  A    between atoms: C1_1  and  S1_2
DOCKED: REMARK    2  A    between atoms: S1_2  and  C2_3
DOCKED: REMARK    3  A    between atoms: C2_3  and  C3_4
DOCKED: REMARK    4  A    between atoms: C3_4  and  C4_5
DOCKED: REMARK    5  A    between atoms: C4_5  and  N1_6
DOCKED: REMARK    6  A    between atoms: C4_5  and  C12_17
DOCKED: REMARK    7  A    between atoms: C5_7  and  C6_9
DOCKED: REMARK    8  A    between atoms: C6_9  and  N2_10
DOCKED: REMARK    9  A    between atoms: C6_9  and  C9_14
DOCKED: REMARK   10  A    between atoms: C7_11  and  C8_12
DOCKED: REMARK   11  A    between atoms: C9_14  and  C10_15
DOCKED: REMARK   12  A    between atoms: C9_14  and  C11_16
DOCKED: REMARK   13  A    between atoms: N3_19  and  C13_20
DOCKED: REMARK   14  A    between atoms: C13_20  and  C14_21
DOCKED: REMARK   15  A    between atoms: C13_20  and  C18_25
DOCKED: REMARK   16  A    between atoms: C14_21  and  C15_22
DOCKED: REMARK   17  A    between atoms: C15_22  and  C16_23
DOCKED: REMARK   18  A    between atoms: C15_22  and  C17_24
DOCKED: REMARK   19  A    between atoms: C18_25  and  O4_26
DOCKED: REMARK   20  A    between atoms: C18_25  and  C19_27
DOCKED: REMARK   21  A    between atoms: C19_27  and  C20_28
DOCKED: REMARK   22  A    between atoms: C24_34  and  C25_35
DOCKED: REMARK   23  A    between atoms: N5_37  and  C26_38
DOCKED: REMARK   24  A    between atoms: C26_38  and  C27_39
DOCKED: REMARK   25  A    between atoms: C26_38  and  C28_40
DOCKED: REMARK   26  A    between atoms: N6_42  and  C29_43
DOCKED: REMARK   27  A    between atoms: C29_43  and  C30_44
DOCKED: REMARK   28  A    between atoms: C29_43  and  C33_49
DOCKED: REMARK   29  A    between atoms: C30_44  and  C31_45
DOCKED: REMARK   30  A    between atoms: C31_45  and  C32_46
DOCKED: REMARK   31  A    between atoms: C32_46  and  O9_48
DOCKED: REMARK   32  A    between atoms: N7_51  and  C34_52
DOCKED: REMARK   33  A    between atoms: C34_52  and  C35_53
DOCKED: REMARK   34  A    between atoms: C34_52  and  C42_60
DOCKED: REMARK   35  A    between atoms: C35_53  and  C36_54
DOCKED: REMARK   36  A    between atoms: C42_60  and  O12_62
DOCKED: REMARK                            x       y       z     vdW  Elec       q    Type
DOCKED: REMARK                         _______ _______ _______ _____ _____    ______ ____
DOCKED: USER                              x       y       z     vdW  Elec       q    Type
DOCKED: USER                           _______ _______ _______ _____ _____    ______ ____
DOCKED: ROOT
DOCKED: ATOM      1  C20 UNL     1      13.622  -5.488   3.650 +0.00 +0.00    +0.219 C  
DOCKED: ATOM      2  O5  UNL     1      13.152  -4.522   3.045 +0.00 -0.00    -0.275 OA 
DOCKED: ATOM      3  N4  UNL     1      14.810  -6.058   3.222 +0.00 -0.00    -0.290 N  
DOCKED: ATOM      4  C21 UNL     1      15.441  -7.203   3.866 +0.00 +0.00    +0.108 C  
DOCKED: ATOM      5  C22 UNL     1      16.289  -7.883   2.799 +0.00 +0.00    +0.021 C  
DOCKED: ATOM      6  C23 UNL     1      16.470  -6.820   1.739 +0.00 +0.00    +0.033 C  
DOCKED: ATOM      7  C24 UNL     1      15.187  -5.988   1.804 +0.00 +0.00    +0.162 C  
DOCKED: ENDROOT
DOCKED: BRANCH   7   8
DOCKED: ATOM      8  C25 UNL     1      15.493  -4.663   1.039 +0.00 +0.00    +0.234 C  
DOCKED: ATOM      9  O6  UNL     1      15.572  -4.652  -0.191 +0.00 -0.00    -0.274 OA 
DOCKED: ATOM     10  N5  UNL     1      15.589  -3.522   1.802 +0.00 -0.00    -0.303 N  
DOCKED: ATOM     11  H44 UNL     1      15.095  -3.628   2.693 +0.00 +0.00    +0.149 HD 
DOCKED: BRANCH  10  12
DOCKED: ATOM     12  C26 UNL     1      15.396  -2.184   1.234 +0.00 +0.00    +0.156 C  
DOCKED: ATOM     13  C27 UNL     1      14.329  -2.089   0.149 +0.00 +0.00    +0.038 C  
DOCKED: BRANCH  12  14
DOCKED: ATOM     14  C28 UNL     1      15.228  -1.169   2.395 +0.00 +0.00    +0.234 C  
DOCKED: ATOM     15  O7  UNL     1      16.169  -0.763   3.076 +0.00 -0.00    -0.274 OA 
DOCKED: ATOM     16  N6  UNL     1      13.960  -0.637   2.545 +0.00 -0.00    -0.302 N  
DOCKED: ATOM     17  H49 UNL     1      13.202  -1.302   2.428 +0.00 +0.00    +0.150 HD 
DOCKED: BRANCH  16  18
DOCKED: ATOM     18  C29 UNL     1      13.765   0.360   3.595 +0.00 +0.00    +0.159 C  
DOCKED: BRANCH  18  19
DOCKED: ATOM     19  C33 UNL     1      14.342  -0.159   4.919 +0.00 +0.00    +0.234 C  
DOCKED: ATOM     20  O10 UNL     1      15.346   0.330   5.440 +0.00 -0.00    -0.274 OA 
DOCKED: ATOM     21  N7  UNL     1      13.683  -1.243   5.441 +0.00 -0.00    -0.301 N  
DOCKED: ATOM     22  H56 UNL     1      13.003  -1.714   4.854 +0.00 +0.00    +0.150 HD 
DOCKED: BRANCH  21  23
DOCKED: ATOM     23  C34 UNL     1      14.240  -2.028   6.542 +0.00 +0.00    +0.186 C  
DOCKED: BRANCH  23  24
DOCKED: ATOM     24  C42 UNL     1      14.860  -3.302   5.962 +0.00 +0.00    +0.326 C  
DOCKED: ATOM     25  O11 UNL     1      15.327  -4.236   6.597 +0.00 -0.00    -0.249 OA 
DOCKED: BRANCH  24  26
DOCKED: ATOM     26  O12 UNL     1      14.863  -3.330   4.616 +0.00 -0.00    -0.479 OA 
DOCKED: ATOM     27  H65 UNL     1      13.961  -3.032   4.377 +0.00 +0.00    +0.295 HD 
DOCKED: ENDBRANCH  24  26
DOCKED: ENDBRANCH  23  24
DOCKED: BRANCH  23  28
DOCKED: ATOM     28  C35 UNL     1      13.201  -2.338   7.624 +0.00 +0.00    +0.069 C  
DOCKED: BRANCH  28  29
DOCKED: ATOM     29  C36 UNL     1      11.843  -1.716   7.395 +0.00 -0.00    -0.045 A  
DOCKED: ATOM     30  C37 UNL     1      11.692  -0.323   7.331 +0.00 +0.00    +0.004 A  
DOCKED: ATOM     31  C38 UNL     1      10.429   0.240   7.145 +0.00 +0.00    +0.000 A  
DOCKED: ATOM     32  C39 UNL     1       9.311  -0.577   7.008 +0.00 +0.00    +0.000 A  
DOCKED: ATOM     33  C40 UNL     1       9.452  -1.963   7.047 +0.00 +0.00    +0.000 A  
DOCKED: ATOM     34  C41 UNL     1      10.711  -2.528   7.240 +0.00 +0.00    +0.004 A  
DOCKED: ENDBRANCH  28  29
DOCKED: ENDBRANCH  23  28
DOCKED: ENDBRANCH  21  23
DOCKED: ENDBRANCH  18  19
DOCKED: BRANCH  18  35
DOCKED: ATOM     35  C30 UNL     1      12.286   0.753   3.743 +0.00 +0.00    +0.043 C  
DOCKED: BRANCH  35  36
DOCKED: ATOM     36  C31 UNL     1      11.342  -0.009   2.815 +0.00 +0.00    +0.123 C  
DOCKED: BRANCH  36  37
DOCKED: ATOM     37  C32 UNL     1      11.098  -1.385   3.343 +0.00 +0.00    +0.305 C  
DOCKED: ATOM     38  O8  UNL     1      10.017  -1.839   3.674 +0.00 -0.00    -0.251 OA 
DOCKED: BRANCH  37  39
DOCKED: ATOM     39  O9  UNL     1      12.228  -2.104   3.473 +0.00 -0.00    -0.481 OA 
DOCKED: ATOM     40  H55 UNL     1      12.027  -2.962   3.055 +0.00 +0.00    +0.295 HD 
DOCKED: ENDBRANCH  37  39
DOCKED: ENDBRANCH  36  37
DOCKED: ENDBRANCH  35  36
DOCKED: ENDBRANCH  18  35
DOCKED: ENDBRANCH  16  18
DOCKED: ENDBRANCH  12  14
DOCKED: ENDBRANCH  10  12
DOCKED: ENDBRANCH   7   8
DOCKED: BRANCH   1  41
DOCKED: ATOM     41  C19 UNL     1      12.942  -5.986   4.917 +0.00 +0.00    +0.129 C  
DOCKED: BRANCH  41  42
DOCKED: ATOM     42  C18 UNL     1      11.682  -5.148   5.212 +0.00 +0.00    +0.143 C  
DOCKED: BRANCH  42  43
DOCKED: ATOM     43  O4  UNL     1      12.035  -3.748   5.096 +0.00 -0.00    -0.389 OA 
DOCKED: ATOM     44  H34 UNL     1      12.748  -3.685   4.418 +0.00 +0.00    +0.210 HD 
DOCKED: ENDBRANCH  42  43
DOCKED: BRANCH  42  45
DOCKED: ATOM     45  C13 UNL     1      10.465  -5.444   4.288 +0.00 +0.00    +0.102 C  
DOCKED: BRANCH  45  48
DOCKED: ATOM     46  C12 UNL     1       9.184  -4.445   2.378 +0.00 +0.00    +0.234 C  
DOCKED: ATOM     47  O3  UNL     1       8.285  -5.286   2.452 +0.00 -0.00    -0.274 OA 
DOCKED: ATOM     48  N3  UNL     1      10.192  -4.372   3.315 +0.00 -0.00    -0.308 N  
DOCKED: ATOM     49  H22 UNL     1      10.989  -3.782   3.055 +0.00 +0.00    +0.149 HD 
DOCKED: BRANCH  46  50
DOCKED: ATOM     50  C4  UNL     1       9.254  -3.382   1.250 +0.00 +0.00    +0.160 C  
DOCKED: BRANCH  50  51
DOCKED: ATOM     51  N1  UNL     1      10.145  -3.890   0.198 +0.00 -0.00    -0.302 N  
DOCKED: ATOM     52  C5  UNL     1      11.506  -3.760   0.345 +0.00 +0.00    +0.234 C  
DOCKED: ATOM     53  O1  UNL     1      11.990  -3.088   1.264 +0.00 -0.00    -0.274 OA 
DOCKED: ATOM     54  H9  UNL     1       9.812  -4.677  -0.331 +0.00 +0.00    +0.150 HD 
DOCKED: BRANCH  52  55
DOCKED: ATOM     55  C6  UNL     1      12.412  -4.387  -0.751 +0.00 +0.00    +0.161 C  
DOCKED: BRANCH  55  56
DOCKED: ATOM     56  N2  UNL     1      12.854  -5.655  -0.159 +0.00 -0.00    -0.304 N  
DOCKED: ATOM     57  C7  UNL     1      11.992  -6.671   0.159 +0.00 +0.00    +0.211 C  
DOCKED: ATOM     58  C8  UNL     1      12.669  -7.934   0.622 +0.00 +0.00    +0.109 C  
DOCKED: ATOM     59  O2  UNL     1      10.772  -6.555   0.129 +0.00 -0.00    -0.276 OA 
DOCKED: ATOM     60  H11 UNL     1      13.833  -5.885  -0.318 +0.00 +0.00    +0.149 HD 
DOCKED: ENDBRANCH  55  56
DOCKED: BRANCH  55  61
DOCKED: ATOM     61  C9  UNL     1      11.806  -4.621  -2.156 +0.00 +0.00    +0.012 C  
DOCKED: ATOM     62  C10 UNL     1      11.150  -3.397  -2.787 +0.00 +0.00    +0.009 C  
DOCKED: ATOM     63  C11 UNL     1      12.830  -5.235  -3.117 +0.00 +0.00    +0.009 C  
DOCKED: ENDBRANCH  55  61
DOCKED: ENDBRANCH  52  55
DOCKED: ENDBRANCH  50  51
DOCKED: BRANCH  50  64
DOCKED: ATOM     64  C3  UNL     1       7.865  -3.045   0.677 +0.00 +0.00    +0.042 C  
DOCKED: BRANCH  64  65
DOCKED: ATOM     65  C2  UNL     1       7.857  -1.779  -0.192 +0.00 +0.00    +0.071 C  
DOCKED: BRANCH  65  67
DOCKED: ATOM     66  C1  UNL     1      10.341  -0.603  -0.604 +0.00 +0.00    +0.084 C  
DOCKED: ATOM     67  S1  UNL     1       8.872  -0.398   0.438 +0.00 -0.00    -0.164 S  
DOCKED: ENDBRANCH  65  67
DOCKED: ENDBRANCH  64  65
DOCKED: ENDBRANCH  50  64
DOCKED: ENDBRANCH  46  50
DOCKED: ENDBRANCH  45  48
DOCKED: BRANCH  45  68
DOCKED: ATOM     68  C14 UNL     1      10.614  -6.795   3.539 +0.00 +0.00    +0.028 C  
DOCKED: BRANCH  68  69
DOCKED: ATOM     69  C15 UNL     1       9.552  -7.850   3.912 +0.00 -0.00    -0.015 C  
DOCKED: ATOM     70  C16 UNL     1       8.743  -8.357   2.711 +0.00 +0.00    +0.007 C  
DOCKED: ATOM     71  C17 UNL     1       8.578  -7.269   4.957 +0.00 +0.00    +0.007 C  
DOCKED: ENDBRANCH  68  69
DOCKED: ENDBRANCH  45  68
DOCKED: ENDBRANCH  42  45
DOCKED: ENDBRANCH  41  42
DOCKED: ENDBRANCH   1  41
DOCKED: TORSDOF 29
DOCKED: TER
DOCKED: ENDMDL
________________________________________________________________________________


    FINAL DOCKED STATE:
    ________________________


Run:   13 / 20
Time taken for this run:   5.123s

DOCKED: MODEL        13
DOCKED: USER    Run = 13
DOCKED: USER
DOCKED: USER    Estimated Free Energy of Binding    =  +8.65 kcal/mol  [=(1)+(2)+(3)-(4)]
DOCKED: USER
DOCKED: USER    (1) Final Intermolecular Energy     =  +0.00 kcal/mol
DOCKED: USER        vdW + Hbond + desolv Energy     =  +0.00 kcal/mol
DOCKED: USER        Electrostatic Energy            =  +0.00 kcal/mol
DOCKED: USER        Moving Ligand-Fixed Receptor    =  +0.00 kcal/mol
DOCKED: USER        Moving Ligand-Moving Receptor   =  +0.00 kcal/mol
DOCKED: USER    (2) Final Total Internal Energy     = -23.30 kcal/mol
DOCKED: USER    (3) Torsional Free Energy           =  +8.65 kcal/mol
DOCKED: USER    (4) Unbound System's Energy         = -23.30 kcal/mol
DOCKED: USER
DOCKED: USER
DOCKED: REMARK  Name = ligands/ligand_41.pdb
DOCKED: REMARK  36 active torsions:
DOCKED: REMARK  status: ('A' for Active; 'I' for Inactive)
DOCKED: REMARK    1  A    between atoms: C1_1  and  S1_2
DOCKED: REMARK    2  A    between atoms: S1_2  and  C2_3
DOCKED: REMARK    3  A    between atoms: C2_3  and  C3_4
DOCKED: REMARK    4  A    between atoms: C3_4  and  C4_5
DOCKED: REMARK    5  A    between atoms: C4_5  and  N1_6
DOCKED: REMARK    6  A    between atoms: C4_5  and  C12_17
DOCKED: REMARK    7  A    between atoms: C5_7  and  C6_9
DOCKED: REMARK    8  A    between atoms: C6_9  and  N2_10
DOCKED: REMARK    9  A    between atoms: C6_9  and  C9_14
DOCKED: REMARK   10  A    between atoms: C7_11  and  C8_12
DOCKED: REMARK   11  A    between atoms: C9_14  and  C10_15
DOCKED: REMARK   12  A    between atoms: C9_14  and  C11_16
DOCKED: REMARK   13  A    between atoms: N3_19  and  C13_20
DOCKED: REMARK   14  A    between atoms: C13_20  and  C14_21
DOCKED: REMARK   15  A    between atoms: C13_20  and  C18_25
DOCKED: REMARK   16  A    between atoms: C14_21  and  C15_22
DOCKED: REMARK   17  A    between atoms: C15_22  and  C16_23
DOCKED: REMARK   18  A    between atoms: C15_22  and  C17_24
DOCKED: REMARK   19  A    between atoms: C18_25  and  O4_26
DOCKED: REMARK   20  A    between atoms: C18_25  and  C19_27
DOCKED: REMARK   21  A    between atoms: C19_27  and  C20_28
DOCKED: REMARK   22  A    between atoms: C24_34  and  C25_35
DOCKED: REMARK   23  A    between atoms: N5_37  and  C26_38
DOCKED: REMARK   24  A    between atoms: C26_38  and  C27_39
DOCKED: REMARK   25  A    between atoms: C26_38  and  C28_40
DOCKED: REMARK   26  A    between atoms: N6_42  and  C29_43
DOCKED: REMARK   27  A    between atoms: C29_43  and  C30_44
DOCKED: REMARK   28  A    between atoms: C29_43  and  C33_49
DOCKED: REMARK   29  A    between atoms: C30_44  and  C31_45
DOCKED: REMARK   30  A    between atoms: C31_45  and  C32_46
DOCKED: REMARK   31  A    between atoms: C32_46  and  O9_48
DOCKED: REMARK   32  A    between atoms: N7_51  and  C34_52
DOCKED: REMARK   33  A    between atoms: C34_52  and  C35_53
DOCKED: REMARK   34  A    between atoms: C34_52  and  C42_60
DOCKED: REMARK   35  A    between atoms: C35_53  and  C36_54
DOCKED: REMARK   36  A    between atoms: C42_60  and  O12_62
DOCKED: REMARK                            x       y       z     vdW  Elec       q    Type
DOCKED: REMARK                         _______ _______ _______ _____ _____    ______ ____
DOCKED: USER                              x       y       z     vdW  Elec       q    Type
DOCKED: USER                           _______ _______ _______ _____ _____    ______ ____
DOCKED: ROOT
DOCKED: ATOM      1  C20 UNL     1      12.153  -0.329   5.613 +0.00 +0.00    +0.219 C  
DOCKED: ATOM      2  O5  UNL     1      13.263  -0.209   5.090 +0.00 -0.00    -0.275 OA 
DOCKED: ATOM      3  N4  UNL     1      11.998  -1.141   6.724 +0.00 -0.00    -0.290 N  
DOCKED: ATOM      4  C21 UNL     1      10.729  -1.353   7.408 +0.00 +0.00    +0.108 C  
DOCKED: ATOM      5  C22 UNL     1      10.832  -2.705   8.100 +0.00 +0.00    +0.021 C  
DOCKED: ATOM      6  C23 UNL     1      12.318  -2.973   8.166 +0.00 +0.00    +0.033 C  
DOCKED: ATOM      7  C24 UNL     1      12.890  -2.293   6.920 +0.00 +0.00    +0.162 C  
DOCKED: ENDROOT
DOCKED: BRANCH   7   8
DOCKED: ATOM      8  C25 UNL     1      14.428  -2.185   7.155 +0.00 +0.00    +0.234 C  
DOCKED: ATOM      9  O6  UNL     1      14.979  -2.852   8.033 +0.00 -0.00    -0.274 OA 
DOCKED: ATOM     10  N5  UNL     1      15.126  -1.376   6.288 +0.00 -0.00    -0.303 N  
DOCKED: ATOM     11  H44 UNL     1      14.620  -1.251   5.406 +0.00 +0.00    +0.149 HD 
DOCKED: BRANCH  10  12
DOCKED: ATOM     12  C26 UNL     1      16.568  -1.530   6.063 +0.00 +0.00    +0.156 C  
DOCKED: ATOM     13  C27 UNL     1      16.976  -2.802   5.330 +0.00 +0.00    +0.038 C  
DOCKED: BRANCH  12  14
DOCKED: ATOM     14  C28 UNL     1      17.118  -0.221   5.441 +0.00 +0.00    +0.234 C  
DOCKED: ATOM     15  O7  UNL     1      18.271   0.175   5.614 +0.00 -0.00    -0.274 OA 
DOCKED: ATOM     16  N6  UNL     1      16.269   0.426   4.561 +0.00 -0.00    -0.302 N  
DOCKED: ATOM     17  H49 UNL     1      15.296   0.450   4.847 +0.00 +0.00    +0.150 HD 
DOCKED: BRANCH  16  18
DOCKED: ATOM     18  C29 UNL     1      16.763   1.638   3.911 +0.00 +0.00    +0.159 C  
DOCKED: BRANCH  18  19
DOCKED: ATOM     19  C33 UNL     1      15.733   2.765   4.061 +0.00 +0.00    +0.234 C  
DOCKED: ATOM     20  O10 UNL     1      16.052   3.922   4.338 +0.00 -0.00    -0.274 OA 
DOCKED: ATOM     21  N7  UNL     1      14.428   2.365   3.916 +0.00 -0.00    -0.301 N  
DOCKED: ATOM     22  H56 UNL     1      14.234   1.370   3.899 +0.00 +0.00    +0.150 HD 
DOCKED: BRANCH  21  23
DOCKED: ATOM     23  C34 UNL     1      13.310   3.234   4.282 +0.00 +0.00    +0.186 C  
DOCKED: BRANCH  23  24
DOCKED: ATOM     24  C42 UNL     1      13.150   4.301   3.195 +0.00 +0.00    +0.326 C  
DOCKED: ATOM     25  O11 UNL     1      13.042   5.505   3.371 +0.00 -0.00    -0.249 OA 
DOCKED: BRANCH  24  26
DOCKED: ATOM     26  O12 UNL     1      13.131   3.794   1.948 +0.00 -0.00    -0.479 OA 
DOCKED: ATOM     27  H65 UNL     1      13.132   2.825   2.092 +0.00 +0.00    +0.295 HD 
DOCKED: ENDBRANCH  24  26
DOCKED: ENDBRANCH  23  24
DOCKED: BRANCH  23  28
DOCKED: ATOM     28  C35 UNL     1      13.479   3.853   5.672 +0.00 +0.00    +0.069 C  
DOCKED: BRANCH  28  29
DOCKED: ATOM     29  C36 UNL     1      13.561   2.855   6.804 +0.00 -0.00    -0.045 A  
DOCKED: ATOM     30  C37 UNL     1      14.770   2.212   7.110 +0.00 +0.00    +0.004 A  
DOCKED: ATOM     31  C38 UNL     1      14.827   1.273   8.140 +0.00 +0.00    +0.000 A  
DOCKED: ATOM     32  C39 UNL     1      13.688   0.977   8.881 +0.00 +0.00    +0.000 A  
DOCKED: ATOM     33  C40 UNL     1      12.485   1.626   8.602 +0.00 +0.00    +0.000 A  
DOCKED: ATOM     34  C41 UNL     1      12.424   2.558   7.568 +0.00 +0.00    +0.004 A  
DOCKED: ENDBRANCH  28  29
DOCKED: ENDBRANCH  23  28
DOCKED: ENDBRANCH  21  23
DOCKED: ENDBRANCH  18  19
DOCKED: BRANCH  18  35
DOCKED: ATOM     35  C30 UNL     1      17.116   1.392   2.435 +0.00 +0.00    +0.043 C  
DOCKED: BRANCH  35  36
DOCKED: ATOM     36  C31 UNL     1      16.417   0.182   1.819 +0.00 +0.00    +0.123 C  
DOCKED: BRANCH  36  37
DOCKED: ATOM     37  C32 UNL     1      14.960   0.205   2.145 +0.00 +0.00    +0.305 C  
DOCKED: ATOM     38  O8  UNL     1      14.131   0.946   1.646 +0.00 -0.00    -0.251 OA 
DOCKED: BRANCH  37  39
DOCKED: ATOM     39  O9  UNL     1      14.625  -0.666   3.114 +0.00 -0.00    -0.481 OA 
DOCKED: ATOM     40  H55 UNL     1      13.867  -0.254   3.569 +0.00 +0.00    +0.295 HD 
DOCKED: ENDBRANCH  37  39
DOCKED: ENDBRANCH  36  37
DOCKED: ENDBRANCH  35  36
DOCKED: ENDBRANCH  18  35
DOCKED: ENDBRANCH  16  18
DOCKED: ENDBRANCH  12  14
DOCKED: ENDBRANCH  10  12
DOCKED: ENDBRANCH   7   8
DOCKED: BRANCH   1  41
DOCKED: ATOM     41  C19 UNL     1      10.982   0.488   5.089 +0.00 +0.00    +0.129 C  
DOCKED: BRANCH  41  42
DOCKED: ATOM     42  C18 UNL     1      10.967   0.475   3.547 +0.00 +0.00    +0.143 C  
DOCKED: BRANCH  42  43
DOCKED: ATOM     43  O4  UNL     1      12.162   1.147   3.080 +0.00 -0.00    -0.389 OA 
DOCKED: ATOM     44  H34 UNL     1      12.887   0.477   3.073 +0.00 +0.00    +0.210 HD 
DOCKED: ENDBRANCH  42  43
DOCKED: BRANCH  42  45
DOCKED: ATOM     45  C13 UNL     1      10.895  -0.940   2.903 +0.00 +0.00    +0.102 C  
DOCKED: BRANCH  45  48
DOCKED: ATOM     46  C12 UNL     1      12.394  -2.519   1.660 +0.00 +0.00    +0.234 C  
DOCKED: ATOM     47  O3  UNL     1      11.506  -2.848   0.870 +0.00 -0.00    -0.274 OA 
DOCKED: ATOM     48  N3  UNL     1      12.216  -1.505   2.575 +0.00 -0.00    -0.308 N  
DOCKED: ATOM     49  H22 UNL     1      12.927  -1.448   3.311 +0.00 +0.00    +0.149 HD 
DOCKED: BRANCH  46  50
DOCKED: ATOM     50  C4  UNL     1      13.792  -3.191   1.685 +0.00 +0.00    +0.160 C  
DOCKED: BRANCH  50  51
DOCKED: ATOM     51  N1  UNL     1      13.735  -4.333   2.607 +0.00 -0.00    -0.302 N  
DOCKED: ATOM     52  C5  UNL     1      13.763  -4.109   3.963 +0.00 +0.00    +0.234 C  
DOCKED: ATOM     53  O1  UNL     1      13.993  -2.983   4.422 +0.00 -0.00    -0.274 OA 
DOCKED: ATOM     54  H9  UNL     1      13.237  -5.145   2.284 +0.00 +0.00    +0.150 HD 
DOCKED: BRANCH  52  55
DOCKED: ATOM     55  C6  UNL     1      13.613  -5.340   4.900 +0.00 +0.00    +0.161 C  
DOCKED: BRANCH  55  56
DOCKED: ATOM     56  N2  UNL     1      14.536  -5.054   6.006 +0.00 -0.00    -0.304 N  
DOCKED: ATOM     57  C7  UNL     1      15.529  -5.916   6.390 +0.00 +0.00    +0.211 C  
DOCKED: ATOM     58  C8  UNL     1      16.449  -5.365   7.448 +0.00 +0.00    +0.109 C  
DOCKED: ATOM     59  O2  UNL     1      15.637  -7.057   5.959 +0.00 -0.00    -0.276 OA 
DOCKED: ATOM     60  H11 UNL     1      14.636  -4.068   6.238 +0.00 +0.00    +0.149 HD 
DOCKED: ENDBRANCH  55  56
DOCKED: BRANCH  55  61
DOCKED: ATOM     61  C9  UNL     1      12.202  -5.682   5.439 +0.00 +0.00    +0.012 C  
DOCKED: ATOM     62  C10 UNL     1      12.154  -6.082   6.910 +0.00 +0.00    +0.009 C  
DOCKED: ATOM     63  C11 UNL     1      11.202  -4.555   5.158 +0.00 +0.00    +0.009 C  
DOCKED: ENDBRANCH  55  61
DOCKED: ENDBRANCH  52  55
DOCKED: ENDBRANCH  50  51
DOCKED: BRANCH  50  64
DOCKED: ATOM     64  C3  UNL     1      14.251  -3.638   0.285 +0.00 +0.00    +0.042 C  
DOCKED: BRANCH  64  65
DOCKED: ATOM     65  C2  UNL     1      15.777  -3.745   0.151 +0.00 +0.00    +0.071 C  
DOCKED: BRANCH  65  67
DOCKED: ATOM     66  C1  UNL     1      16.929  -4.786   2.455 +0.00 +0.00    +0.084 C  
DOCKED: ATOM     67  S1  UNL     1      16.726  -3.196   1.611 +0.00 -0.00    -0.164 S  
DOCKED: ENDBRANCH  65  67
DOCKED: ENDBRANCH  64  65
DOCKED: ENDBRANCH  50  64
DOCKED: ENDBRANCH  46  50
DOCKED: ENDBRANCH  45  48
DOCKED: BRANCH  45  68
DOCKED: ATOM     68  C14 UNL     1      10.109  -1.945   3.787 +0.00 +0.00    +0.028 C  
DOCKED: BRANCH  68  69
DOCKED: ATOM     69  C15 UNL     1       8.897  -2.595   3.087 +0.00 -0.00    -0.015 C  
DOCKED: ATOM     70  C16 UNL     1       9.177  -4.009   2.562 +0.00 +0.00    +0.007 C  
DOCKED: ATOM     71  C17 UNL     1       8.432  -1.712   1.912 +0.00 +0.00    +0.007 C  
DOCKED: ENDBRANCH  68  69
DOCKED: ENDBRANCH  45  68
DOCKED: ENDBRANCH  42  45
DOCKED: ENDBRANCH  41  42
DOCKED: ENDBRANCH   1  41
DOCKED: TORSDOF 29
DOCKED: TER
DOCKED: ENDMDL
________________________________________________________________________________


    FINAL DOCKED STATE:
    ________________________


Run:   14 / 20
Time taken for this run:   5.123s

DOCKED: MODEL        14
DOCKED: USER    Run = 14
DOCKED: USER
DOCKED: USER    Estimated Free Energy of Binding    =  +8.65 kcal/mol  [=(1)+(2)+(3)-(4)]
DOCKED: USER
DOCKED: USER    (1) Final Intermolecular Energy     =  +0.00 kcal/mol
DOCKED: USER        vdW + Hbond + desolv Energy     =  +0.00 kcal/mol
DOCKED: USER        Electrostatic Energy            =  +0.00 kcal/mol
DOCKED: USER        Moving Ligand-Fixed Receptor    =  +0.00 kcal/mol
DOCKED: USER        Moving Ligand-Moving Receptor   =  +0.00 kcal/mol
DOCKED: USER    (2) Final Total Internal Energy     = -22.53 kcal/mol
DOCKED: USER    (3) Torsional Free Energy           =  +8.65 kcal/mol
DOCKED: USER    (4) Unbound System's Energy         = -22.53 kcal/mol
DOCKED: USER
DOCKED: USER
DOCKED: REMARK  Name = ligands/ligand_41.pdb
DOCKED: REMARK  36 active torsions:
DOCKED: REMARK  status: ('A' for Active; 'I' for Inactive)
DOCKED: REMARK    1  A    between atoms: C1_1  and  S1_2
DOCKED: REMARK    2  A    between atoms: S1_2  and  C2_3
DOCKED: REMARK    3  A    between atoms: C2_3  and  C3_4
DOCKED: REMARK    4  A    between atoms: C3_4  and  C4_5
DOCKED: REMARK    5  A    between atoms: C4_5  and  N1_6
DOCKED: REMARK    6  A    between atoms: C4_5  and  C12_17
DOCKED: REMARK    7  A    between atoms: C5_7  and  C6_9
DOCKED: REMARK    8  A    between atoms: C6_9  and  N2_10
DOCKED: REMARK    9  A    between atoms: C6_9  and  C9_14
DOCKED: REMARK   10  A    between atoms: C7_11  and  C8_12
DOCKED: REMARK   11  A    between atoms: C9_14  and  C10_15
DOCKED: REMARK   12  A    between atoms: C9_14  and  C11_16
DOCKED: REMARK   13  A    between atoms: N3_19  and  C13_20
DOCKED: REMARK   14  A    between atoms: C13_20  and  C14_21
DOCKED: REMARK   15  A    between atoms: C13_20  and  C18_25
DOCKED: REMARK   16  A    between atoms: C14_21  and  C15_22
DOCKED: REMARK   17  A    between atoms: C15_22  and  C16_23
DOCKED: REMARK   18  A    between atoms: C15_22  and  C17_24
DOCKED: REMARK   19  A    between atoms: C18_25  and  O4_26
DOCKED: REMARK   20  A    between atoms: C18_25  and  C19_27
DOCKED: REMARK   21  A    between atoms: C19_27  and  C20_28
DOCKED: REMARK   22  A    between atoms: C24_34  and  C25_35
DOCKED: REMARK   23  A    between atoms: N5_37  and  C26_38
DOCKED: REMARK   24  A    between atoms: C26_38  and  C27_39
DOCKED: REMARK   25  A    between atoms: C26_38  and  C28_40
DOCKED: REMARK   26  A    between atoms: N6_42  and  C29_43
DOCKED: REMARK   27  A    between atoms: C29_43  and  C30_44
DOCKED: REMARK   28  A    between atoms: C29_43  and  C33_49
DOCKED: REMARK   29  A    between atoms: C30_44  and  C31_45
DOCKED: REMARK   30  A    between atoms: C31_45  and  C32_46
DOCKED: REMARK   31  A    between atoms: C32_46  and  O9_48
DOCKED: REMARK   32  A    between atoms: N7_51  and  C34_52
DOCKED: REMARK   33  A    between atoms: C34_52  and  C35_53
DOCKED: REMARK   34  A    between atoms: C34_52  and  C42_60
DOCKED: REMARK   35  A    between atoms: C35_53  and  C36_54
DOCKED: REMARK   36  A    between atoms: C42_60  and  O12_62
DOCKED: REMARK                            x       y       z     vdW  Elec       q    Type
DOCKED: REMARK                         _______ _______ _______ _____ _____    ______ ____
DOCKED: USER                              x       y       z     vdW  Elec       q    Type
DOCKED: USER                           _______ _______ _______ _____ _____    ______ ____
DOCKED: ROOT
DOCKED: ATOM      1  C20 UNL     1      13.814  -7.694   4.605 +0.00 +0.00    +0.219 C  
DOCKED: ATOM      2  O5  UNL     1      13.282  -6.604   4.828 +0.00 -0.00    -0.275 OA 
DOCKED: ATOM      3  N4  UNL     1      13.327  -8.504   3.592 +0.00 -0.00    -0.290 N  
DOCKED: ATOM      4  C21 UNL     1      13.882  -9.809   3.256 +0.00 +0.00    +0.108 C  
DOCKED: ATOM      5  C22 UNL     1      12.758 -10.600   2.601 +0.00 +0.00    +0.021 C  
DOCKED: ATOM      6  C23 UNL     1      11.765  -9.543   2.171 +0.00 +0.00    +0.033 C  
DOCKED: ATOM      7  C24 UNL     1      11.909  -8.431   3.213 +0.00 +0.00    +0.162 C  
DOCKED: ENDROOT
DOCKED: BRANCH   7   8
DOCKED: ATOM      8  C25 UNL     1      11.226  -7.171   2.597 +0.00 +0.00    +0.234 C  
DOCKED: ATOM      9  O6  UNL     1       9.999  -7.099   2.512 +0.00 -0.00    -0.274 OA 
DOCKED: ATOM     10  N5  UNL     1      12.059  -6.137   2.235 +0.00 -0.00    -0.303 N  
DOCKED: ATOM     11  H44 UNL     1      12.947  -6.179   2.744 +0.00 +0.00    +0.149 HD 
DOCKED: BRANCH  10  12
DOCKED: ATOM     12  C26 UNL     1      11.579  -4.757   2.101 +0.00 +0.00    +0.156 C  
DOCKED: ATOM     13  C27 UNL     1      10.848  -4.450   0.800 +0.00 +0.00    +0.038 C  
DOCKED: BRANCH  12  14
DOCKED: ATOM     14  C28 UNL     1      10.799  -4.374   3.386 +0.00 +0.00    +0.234 C  
DOCKED: ATOM     15  O7  UNL     1       9.843  -3.599   3.387 +0.00 -0.00    -0.274 OA 
DOCKED: ATOM     16  N6  UNL     1      11.161  -5.060   4.532 +0.00 -0.00    -0.302 N  
DOCKED: ATOM     17  H49 UNL     1      12.159  -5.199   4.648 +0.00 +0.00    +0.150 HD 
DOCKED: BRANCH  16  18
DOCKED: ATOM     18  C29 UNL     1      10.420  -4.768   5.757 +0.00 +0.00    +0.159 C  
DOCKED: BRANCH  18  19
DOCKED: ATOM     19  C33 UNL     1       8.943  -5.142   5.572 +0.00 +0.00    +0.234 C  
DOCKED: ATOM     20  O10 UNL     1       8.030  -4.529   6.128 +0.00 -0.00    -0.274 OA 
DOCKED: ATOM     21  N7  UNL     1       8.730  -6.244   4.783 +0.00 -0.00    -0.301 N  
DOCKED: ATOM     22  H56 UNL     1       9.531  -6.814   4.535 +0.00 +0.00    +0.150 HD 
DOCKED: BRANCH  21  23
DOCKED: ATOM     23  C34 UNL     1       7.424  -6.899   4.708 +0.00 +0.00    +0.186 C  
DOCKED: BRANCH  23  24
DOCKED: ATOM     24  C42 UNL     1       7.628  -8.406   4.887 +0.00 +0.00    +0.326 C  
DOCKED: ATOM     25  O11 UNL     1       6.881  -9.176   5.471 +0.00 -0.00    -0.249 OA 
DOCKED: BRANCH  24  26
DOCKED: ATOM     26  O12 UNL     1       8.763  -8.862   4.325 +0.00 -0.00    -0.479 OA 
DOCKED: ATOM     27  H65 UNL     1       9.354  -8.080   4.330 +0.00 +0.00    +0.295 HD 
DOCKED: ENDBRANCH  24  26
DOCKED: ENDBRANCH  23  24
DOCKED: BRANCH  23  28
DOCKED: ATOM     28  C35 UNL     1       6.678  -6.572   3.412 +0.00 +0.00    +0.069 C  
DOCKED: BRANCH  28  29
DOCKED: ATOM     29  C36 UNL     1       6.854  -5.153   2.922 +0.00 -0.00    -0.045 A  
DOCKED: ATOM     30  C37 UNL     1       7.478  -4.889   1.694 +0.00 +0.00    +0.004 A  
DOCKED: ATOM     31  C38 UNL     1       7.658  -3.573   1.264 +0.00 +0.00    +0.000 A  
DOCKED: ATOM     32  C39 UNL     1       7.206  -2.514   2.044 +0.00 +0.00    +0.000 A  
DOCKED: ATOM     33  C40 UNL     1       6.563  -2.764   3.256 +0.00 +0.00    +0.000 A  
DOCKED: ATOM     34  C41 UNL     1       6.390  -4.077   3.691 +0.00 +0.00    +0.004 A  
DOCKED: ENDBRANCH  28  29
DOCKED: ENDBRANCH  23  28
DOCKED: ENDBRANCH  21  23
DOCKED: ENDBRANCH  18  19
DOCKED: BRANCH  18  35
DOCKED: ATOM     35  C30 UNL     1      10.578  -3.300   6.186 +0.00 +0.00    +0.043 C  
DOCKED: BRANCH  35  36
DOCKED: ATOM     36  C31 UNL     1      11.882  -2.653   5.724 +0.00 +0.00    +0.123 C  
DOCKED: BRANCH  36  37
DOCKED: ATOM     37  C32 UNL     1      13.031  -3.580   5.957 +0.00 +0.00    +0.305 C  
DOCKED: ATOM     38  O8  UNL     1      13.332  -4.084   7.024 +0.00 -0.00    -0.251 OA 
DOCKED: BRANCH  37  39
DOCKED: ATOM     39  O9  UNL     1      13.769  -3.787   4.852 +0.00 -0.00    -0.481 OA 
DOCKED: ATOM     40  H55 UNL     1      13.952  -4.745   4.850 +0.00 +0.00    +0.295 HD 
DOCKED: ENDBRANCH  37  39
DOCKED: ENDBRANCH  36  37
DOCKED: ENDBRANCH  35  36
DOCKED: ENDBRANCH  18  35
DOCKED: ENDBRANCH  16  18
DOCKED: ENDBRANCH  12  14
DOCKED: ENDBRANCH  10  12
DOCKED: ENDBRANCH   7   8
DOCKED: BRANCH   1  41
DOCKED: ATOM     41  C19 UNL     1      15.058  -8.097   5.382 +0.00 +0.00    +0.129 C  
DOCKED: BRANCH  41  42
DOCKED: ATOM     42  C18 UNL     1      15.393  -7.032   6.446 +0.00 +0.00    +0.143 C  
DOCKED: BRANCH  42  43
DOCKED: ATOM     43  O4  UNL     1      15.230  -5.726   5.842 +0.00 -0.00    -0.389 OA 
DOCKED: ATOM     44  H34 UNL     1      14.391  -5.346   6.196 +0.00 +0.00    +0.210 HD 
DOCKED: ENDBRANCH  42  43
DOCKED: BRANCH  42  45
DOCKED: ATOM     45  C13 UNL     1      14.533  -7.105   7.741 +0.00 +0.00    +0.102 C  
DOCKED: BRANCH  45  48
DOCKED: ATOM     46  C12 UNL     1      12.218  -6.498   8.488 +0.00 +0.00    +0.234 C  
DOCKED: ATOM     47  O3  UNL     1      12.611  -6.039   9.562 +0.00 -0.00    -0.274 OA 
DOCKED: ATOM     48  N3  UNL     1      13.093  -6.899   7.503 +0.00 -0.00    -0.308 N  
DOCKED: ATOM     49  H22 UNL     1      12.678  -7.448   6.743 +0.00 +0.00    +0.149 HD 
DOCKED: BRANCH  46  50
DOCKED: ATOM     50  C4  UNL     1      10.714  -6.645   8.133 +0.00 +0.00    +0.160 C  
DOCKED: BRANCH  50  51
DOCKED: ATOM     51  N1  UNL     1      10.420  -8.075   7.970 +0.00 -0.00    -0.302 N  
DOCKED: ATOM     52  C5  UNL     1      10.631  -8.675   6.751 +0.00 +0.00    +0.234 C  
DOCKED: ATOM     53  O1  UNL     1      10.912  -8.006   5.749 +0.00 -0.00    -0.274 OA 
DOCKED: ATOM     54  H9  UNL     1      10.521  -8.650   8.789 +0.00 +0.00    +0.150 HD 
DOCKED: BRANCH  52  55
DOCKED: ATOM     55  C6  UNL     1      10.388 -10.206   6.648 +0.00 +0.00    +0.161 C  
DOCKED: BRANCH  55  56
DOCKED: ATOM     56  N2  UNL     1       8.946 -10.350   6.882 +0.00 -0.00    -0.304 N  
DOCKED: ATOM     57  C7  UNL     1       8.379 -10.254   8.125 +0.00 +0.00    +0.211 C  
DOCKED: ATOM     58  C8  UNL     1       6.873 -10.289   8.120 +0.00 +0.00    +0.109 C  
DOCKED: ATOM     59  O2  UNL     1       9.029 -10.200   9.162 +0.00 -0.00    -0.276 OA 
DOCKED: ATOM     60  H11 UNL     1       8.360 -10.174   6.068 +0.00 +0.00    +0.149 HD 
DOCKED: ENDBRANCH  55  56
DOCKED: BRANCH  55  61
DOCKED: ATOM     61  C9  UNL     1      10.807 -10.928   5.344 +0.00 +0.00    +0.012 C  
DOCKED: ATOM     62  C10 UNL     1      12.009 -11.856   5.478 +0.00 +0.00    +0.009 C  
DOCKED: ATOM     63  C11 UNL     1       9.627 -11.670   4.707 +0.00 +0.00    +0.009 C  
DOCKED: ENDBRANCH  55  61
DOCKED: ENDBRANCH  52  55
DOCKED: ENDBRANCH  50  51
DOCKED: BRANCH  50  64
DOCKED: ATOM     64  C3  UNL     1       9.797  -6.014   9.196 +0.00 +0.00    +0.042 C  
DOCKED: BRANCH  64  65
DOCKED: ATOM     65  C2  UNL     1       8.538  -6.844   9.483 +0.00 +0.00    +0.071 C  
DOCKED: BRANCH  65  67
DOCKED: ATOM     66  C1  UNL     1       6.341  -5.430   8.535 +0.00 +0.00    +0.084 C  
DOCKED: ATOM     67  S1  UNL     1       7.318  -6.901   8.125 +0.00 -0.00    -0.164 S  
DOCKED: ENDBRANCH  65  67
DOCKED: ENDBRANCH  64  65
DOCKED: ENDBRANCH  50  64
DOCKED: ENDBRANCH  46  50
DOCKED: ENDBRANCH  45  48
DOCKED: BRANCH  45  68
DOCKED: ATOM     68  C14 UNL     1      14.744  -8.436   8.509 +0.00 +0.00    +0.028 C  
DOCKED: BRANCH  68  69
DOCKED: ATOM     69  C15 UNL     1      13.735  -9.546   8.147 +0.00 -0.00    -0.015 C  
DOCKED: ATOM     70  C16 UNL     1      12.839  -9.966   9.320 +0.00 +0.00    +0.007 C  
DOCKED: ATOM     71  C17 UNL     1      14.484 -10.789   7.625 +0.00 +0.00    +0.007 C  
DOCKED: ENDBRANCH  68  69
DOCKED: ENDBRANCH  45  68
DOCKED: ENDBRANCH  42  45
DOCKED: ENDBRANCH  41  42
DOCKED: ENDBRANCH   1  41
DOCKED: TORSDOF 29
DOCKED: TER
DOCKED: ENDMDL
________________________________________________________________________________


    FINAL DOCKED STATE:
    ________________________


Run:   15 / 20
Time taken for this run:   5.123s

DOCKED: MODEL        15
DOCKED: USER    Run = 15
DOCKED: USER
DOCKED: USER    Estimated Free Energy of Binding    =  +8.65 kcal/mol  [=(1)+(2)+(3)-(4)]
DOCKED: USER
DOCKED: USER    (1) Final Intermolecular Energy     =  +0.00 kcal/mol
DOCKED: USER        vdW + Hbond + desolv Energy     =  +0.00 kcal/mol
DOCKED: USER        Electrostatic Energy            =  +0.00 kcal/mol
DOCKED: USER        Moving Ligand-Fixed Receptor    =  +0.00 kcal/mol
DOCKED: USER        Moving Ligand-Moving Receptor   =  +0.00 kcal/mol
DOCKED: USER    (2) Final Total Internal Energy     = -23.27 kcal/mol
DOCKED: USER    (3) Torsional Free Energy           =  +8.65 kcal/mol
DOCKED: USER    (4) Unbound System's Energy         = -23.27 kcal/mol
DOCKED: USER
DOCKED: USER
DOCKED: REMARK  Name = ligands/ligand_41.pdb
DOCKED: REMARK  36 active torsions:
DOCKED: REMARK  status: ('A' for Active; 'I' for Inactive)
DOCKED: REMARK    1  A    between atoms: C1_1  and  S1_2
DOCKED: REMARK    2  A    between atoms: S1_2  and  C2_3
DOCKED: REMARK    3  A    between atoms: C2_3  and  C3_4
DOCKED: REMARK    4  A    between atoms: C3_4  and  C4_5
DOCKED: REMARK    5  A    between atoms: C4_5  and  N1_6
DOCKED: REMARK    6  A    between atoms: C4_5  and  C12_17
DOCKED: REMARK    7  A    between atoms: C5_7  and  C6_9
DOCKED: REMARK    8  A    between atoms: C6_9  and  N2_10
DOCKED: REMARK    9  A    between atoms: C6_9  and  C9_14
DOCKED: REMARK   10  A    between atoms: C7_11  and  C8_12
DOCKED: REMARK   11  A    between atoms: C9_14  and  C10_15
DOCKED: REMARK   12  A    between atoms: C9_14  and  C11_16
DOCKED: REMARK   13  A    between atoms: N3_19  and  C13_20
DOCKED: REMARK   14  A    between atoms: C13_20  and  C14_21
DOCKED: REMARK   15  A    between atoms: C13_20  and  C18_25
DOCKED: REMARK   16  A    between atoms: C14_21  and  C15_22
DOCKED: REMARK   17  A    between atoms: C15_22  and  C16_23
DOCKED: REMARK   18  A    between atoms: C15_22  and  C17_24
DOCKED: REMARK   19  A    between atoms: C18_25  and  O4_26
DOCKED: REMARK   20  A    between atoms: C18_25  and  C19_27
DOCKED: REMARK   21  A    between atoms: C19_27  and  C20_28
DOCKED: REMARK   22  A    between atoms: C24_34  and  C25_35
DOCKED: REMARK   23  A    between atoms: N5_37  and  C26_38
DOCKED: REMARK   24  A    between atoms: C26_38  and  C27_39
DOCKED: REMARK   25  A    between atoms: C26_38  and  C28_40
DOCKED: REMARK   26  A    between atoms: N6_42  and  C29_43
DOCKED: REMARK   27  A    between atoms: C29_43  and  C30_44
DOCKED: REMARK   28  A    between atoms: C29_43  and  C33_49
DOCKED: REMARK   29  A    between atoms: C30_44  and  C31_45
DOCKED: REMARK   30  A    between atoms: C31_45  and  C32_46
DOCKED: REMARK   31  A    between atoms: C32_46  and  O9_48
DOCKED: REMARK   32  A    between atoms: N7_51  and  C34_52
DOCKED: REMARK   33  A    between atoms: C34_52  and  C35_53
DOCKED: REMARK   34  A    between atoms: C34_52  and  C42_60
DOCKED: REMARK   35  A    between atoms: C35_53  and  C36_54
DOCKED: REMARK   36  A    between atoms: C42_60  and  O12_62
DOCKED: REMARK                            x       y       z     vdW  Elec       q    Type
DOCKED: REMARK                         _______ _______ _______ _____ _____    ______ ____
DOCKED: USER                              x       y       z     vdW  Elec       q    Type
DOCKED: USER                           _______ _______ _______ _____ _____    ______ ____
DOCKED: ROOT
DOCKED: ATOM      1  C20 UNL     1       7.817  -0.354   1.064 +0.00 +0.00    +0.219 C  
DOCKED: ATOM      2  O5  UNL     1       6.720  -0.624   1.558 +0.00 -0.00    -0.275 OA 
DOCKED: ATOM      3  N4  UNL     1       8.678  -1.376   0.698 +0.00 -0.00    -0.290 N  
DOCKED: ATOM      4  C21 UNL     1       9.995  -1.160   0.112 +0.00 +0.00    +0.108 C  
DOCKED: ATOM      5  C22 UNL     1      10.823  -2.394   0.446 +0.00 +0.00    +0.021 C  
DOCKED: ATOM      6  C23 UNL     1       9.793  -3.446   0.790 +0.00 +0.00    +0.033 C  
DOCKED: ATOM      7  C24 UNL     1       8.631  -2.663   1.405 +0.00 +0.00    +0.162 C  
DOCKED: ENDROOT
DOCKED: BRANCH   7   8
DOCKED: ATOM      8  C25 UNL     1       7.406  -3.629   1.394 +0.00 +0.00    +0.234 C  
DOCKED: ATOM      9  O6  UNL     1       7.382  -4.622   2.124 +0.00 -0.00    -0.274 OA 
DOCKED: ATOM     10  N5  UNL     1       6.346  -3.267   0.595 +0.00 -0.00    -0.303 N  
DOCKED: ATOM     11  H44 UNL     1       6.348  -2.260   0.408 +0.00 +0.00    +0.149 HD 
DOCKED: BRANCH  10  12
DOCKED: ATOM     12  C26 UNL     1       4.988  -3.771   0.823 +0.00 +0.00    +0.156 C  
DOCKED: ATOM     13  C27 UNL     1       4.908  -5.190   1.372 +0.00 +0.00    +0.038 C  
DOCKED: BRANCH  12  14
DOCKED: ATOM     14  C28 UNL     1       4.196  -2.717   1.639 +0.00 +0.00    +0.234 C  
DOCKED: ATOM     15  O7  UNL     1       4.655  -1.616   1.943 +0.00 -0.00    -0.274 OA 
DOCKED: ATOM     16  N6  UNL     1       2.876  -3.035   1.906 +0.00 -0.00    -0.302 N  
DOCKED: ATOM     17  H49 UNL     1       2.714  -4.002   2.162 +0.00 +0.00    +0.150 HD 
DOCKED: BRANCH  16  18
DOCKED: ATOM     18  C29 UNL     1       2.075  -2.050   2.630 +0.00 +0.00    +0.159 C  
DOCKED: BRANCH  18  19
DOCKED: ATOM     19  C33 UNL     1       1.668  -0.914   1.682 +0.00 +0.00    +0.234 C  
DOCKED: ATOM     20  O10 UNL     1       0.505  -0.745   1.313 +0.00 -0.00    -0.274 OA 
DOCKED: ATOM     21  N7  UNL     1       2.711  -0.140   1.240 +0.00 -0.00    -0.301 N  
DOCKED: ATOM     22  H56 UNL     1       3.654  -0.466   1.418 +0.00 +0.00    +0.150 HD 
DOCKED: BRANCH  21  23
DOCKED: ATOM     23  C34 UNL     1       2.555   0.811   0.139 +0.00 +0.00    +0.186 C  
DOCKED: BRANCH  23  24
DOCKED: ATOM     24  C42 UNL     1       3.947   1.192  -0.372 +0.00 +0.00    +0.326 C  
DOCKED: ATOM     25  O11 UNL     1       4.226   2.161  -1.062 +0.00 -0.00    -0.249 OA 
DOCKED: BRANCH  24  26
DOCKED: ATOM     26  O12 UNL     1       4.910   0.331   0.007 +0.00 -0.00    -0.479 OA 
DOCKED: ATOM     27  H65 UNL     1       4.851   0.336   0.986 +0.00 +0.00    +0.295 HD 
DOCKED: ENDBRANCH  24  26
DOCKED: ENDBRANCH  23  24
DOCKED: BRANCH  23  28
DOCKED: ATOM     28  C35 UNL     1       1.735   2.040   0.540 +0.00 +0.00    +0.069 C  
DOCKED: BRANCH  28  29
DOCKED: ATOM     29  C36 UNL     1       2.237   2.763   1.768 +0.00 -0.00    -0.045 A  
DOCKED: ATOM     30  C37 UNL     1       1.456   2.834   2.931 +0.00 +0.00    +0.004 A  
DOCKED: ATOM     31  C38 UNL     1       1.920   3.528   4.049 +0.00 +0.00    +0.000 A  
DOCKED: ATOM     32  C39 UNL     1       3.168   4.142   4.025 +0.00 +0.00    +0.000 A  
DOCKED: ATOM     33  C40 UNL     1       3.964   4.059   2.883 +0.00 +0.00    +0.000 A  
DOCKED: ATOM     34  C41 UNL     1       3.500   3.374   1.762 +0.00 +0.00    +0.004 A  
DOCKED: ENDBRANCH  28  29
DOCKED: ENDBRANCH  23  28
DOCKED: ENDBRANCH  21  23
DOCKED: ENDBRANCH  18  19
DOCKED: BRANCH  18  35
DOCKED: ATOM     35  C30 UNL     1       2.813  -1.512   3.867 +0.00 +0.00    +0.043 C  
DOCKED: BRANCH  35  36
DOCKED: ATOM     36  C31 UNL     1       2.571  -0.029   4.142 +0.00 +0.00    +0.123 C  
DOCKED: BRANCH  36  37
DOCKED: ATOM     37  C32 UNL     1       3.851   0.733   4.032 +0.00 +0.00    +0.305 C  
DOCKED: ATOM     38  O8  UNL     1       4.330   1.447   4.895 +0.00 -0.00    -0.251 OA 
DOCKED: BRANCH  37  39
DOCKED: ATOM     39  O9  UNL     1       4.439   0.598   2.830 +0.00 -0.00    -0.481 OA 
DOCKED: ATOM     40  H55 UNL     1       5.282   0.144   3.014 +0.00 +0.00    +0.295 HD 
DOCKED: ENDBRANCH  37  39
DOCKED: ENDBRANCH  36  37
DOCKED: ENDBRANCH  35  36
DOCKED: ENDBRANCH  18  35
DOCKED: ENDBRANCH  16  18
DOCKED: ENDBRANCH  12  14
DOCKED: ENDBRANCH  10  12
DOCKED: ENDBRANCH   7   8
DOCKED: BRANCH   1  41
DOCKED: ATOM     41  C19 UNL     1       8.176   1.095   0.773 +0.00 +0.00    +0.129 C  
DOCKED: BRANCH  41  42
DOCKED: ATOM     42  C18 UNL     1       7.588   2.019   1.859 +0.00 +0.00    +0.143 C  
DOCKED: BRANCH  42  43
DOCKED: ATOM     43  O4  UNL     1       6.156   1.812   1.899 +0.00 -0.00    -0.389 OA 
DOCKED: ATOM     44  H34 UNL     1       6.001   0.842   1.813 +0.00 +0.00    +0.210 HD 
DOCKED: ENDBRANCH  42  43
DOCKED: BRANCH  42  45
DOCKED: ATOM     45  C13 UNL     1       8.173   1.810   3.286 +0.00 +0.00    +0.102 C  
DOCKED: BRANCH  45  48
DOCKED: ATOM     46  C12 UNL     1       7.484   1.009   5.559 +0.00 +0.00    +0.234 C  
DOCKED: ATOM     47  O3  UNL     1       8.606   1.187   6.038 +0.00 -0.00    -0.274 OA 
DOCKED: ATOM     48  N3  UNL     1       7.162   1.416   4.283 +0.00 -0.00    -0.308 N  
DOCKED: ATOM     49  H22 UNL     1       6.282   1.044   3.912 +0.00 +0.00    +0.149 HD 
DOCKED: BRANCH  46  50
DOCKED: ATOM     50  C4  UNL     1       6.328   0.337   6.348 +0.00 +0.00    +0.160 C  
DOCKED: BRANCH  50  51
DOCKED: ATOM     51  N1  UNL     1       6.465  -1.119   6.208 +0.00 -0.00    -0.302 N  
DOCKED: ATOM     52  C5  UNL     1       6.422  -1.685   4.955 +0.00 +0.00    +0.234 C  
DOCKED: ATOM     53  O1  UNL     1       6.115  -1.016   3.961 +0.00 -0.00    -0.274 OA 
DOCKED: ATOM     54  H9  UNL     1       7.016  -1.586   6.906 +0.00 +0.00    +0.150 HD 
DOCKED: BRANCH  52  55
DOCKED: ATOM     55  C6  UNL     1       6.657  -3.217   4.848 +0.00 +0.00    +0.161 C  
DOCKED: BRANCH  55  56
DOCKED: ATOM     56  N2  UNL     1       8.058  -3.330   4.429 +0.00 -0.00    -0.304 N  
DOCKED: ATOM     57  C7  UNL     1       9.105  -2.890   5.196 +0.00 +0.00    +0.211 C  
DOCKED: ATOM     58  C8  UNL     1      10.463  -3.232   4.642 +0.00 +0.00    +0.109 C  
DOCKED: ATOM     59  O2  UNL     1       8.962  -2.225   6.215 +0.00 -0.00    -0.276 OA 
DOCKED: ATOM     60  H11 UNL     1       8.241  -4.048   3.729 +0.00 +0.00    +0.149 HD 
DOCKED: ENDBRANCH  55  56
DOCKED: BRANCH  55  61
DOCKED: ATOM     61  C9  UNL     1       6.388  -4.088   6.101 +0.00 +0.00    +0.012 C  
DOCKED: ATOM     62  C10 UNL     1       4.980  -3.973   6.675 +0.00 +0.00    +0.009 C  
DOCKED: ATOM     63  C11 UNL     1       6.748  -5.557   5.854 +0.00 +0.00    +0.009 C  
DOCKED: ENDBRANCH  55  61
DOCKED: ENDBRANCH  52  55
DOCKED: ENDBRANCH  50  51
DOCKED: BRANCH  50  64
DOCKED: ATOM     64  C3  UNL     1       6.316   0.748   7.831 +0.00 +0.00    +0.042 C  
DOCKED: BRANCH  64  65
DOCKED: ATOM     65  C2  UNL     1       6.403   2.266   8.042 +0.00 +0.00    +0.071 C  
DOCKED: BRANCH  65  67
DOCKED: ATOM     66  C1  UNL     1       6.042   4.081   5.969 +0.00 +0.00    +0.084 C  
DOCKED: ATOM     67  S1  UNL     1       5.076   3.238   7.250 +0.00 -0.00    -0.164 S  
DOCKED: ENDBRANCH  65  67
DOCKED: ENDBRANCH  64  65
DOCKED: ENDBRANCH  50  64
DOCKED: ENDBRANCH  46  50
DOCKED: ENDBRANCH  45  48
DOCKED: BRANCH  45  68
DOCKED: ATOM     68  C14 UNL     1       9.336   0.782   3.297 +0.00 +0.00    +0.028 C  
DOCKED: BRANCH  68  69
DOCKED: ATOM     69  C15 UNL     1      10.713   1.384   3.646 +0.00 -0.00    -0.015 C  
DOCKED: ATOM     70  C16 UNL     1      11.626   1.575   2.428 +0.00 +0.00    +0.007 C  
DOCKED: ATOM     71  C17 UNL     1      11.435   0.486   4.671 +0.00 +0.00    +0.007 C  
DOCKED: ENDBRANCH  68  69
DOCKED: ENDBRANCH  45  68
DOCKED: ENDBRANCH  42  45
DOCKED: ENDBRANCH  41  42
DOCKED: ENDBRANCH   1  41
DOCKED: TORSDOF 29
DOCKED: TER
DOCKED: ENDMDL
________________________________________________________________________________


    FINAL DOCKED STATE:
    ________________________


Run:   16 / 20
Time taken for this run:   5.123s

DOCKED: MODEL        16
DOCKED: USER    Run = 16
DOCKED: USER
DOCKED: USER    Estimated Free Energy of Binding    =  +8.65 kcal/mol  [=(1)+(2)+(3)-(4)]
DOCKED: USER
DOCKED: USER    (1) Final Intermolecular Energy     =  +0.00 kcal/mol
DOCKED: USER        vdW + Hbond + desolv Energy     =  +0.00 kcal/mol
DOCKED: USER        Electrostatic Energy            =  +0.00 kcal/mol
DOCKED: USER        Moving Ligand-Fixed Receptor    =  +0.00 kcal/mol
DOCKED: USER        Moving Ligand-Moving Receptor   =  +0.00 kcal/mol
DOCKED: USER    (2) Final Total Internal Energy     = -23.29 kcal/mol
DOCKED: USER    (3) Torsional Free Energy           =  +8.65 kcal/mol
DOCKED: USER    (4) Unbound System's Energy         = -23.29 kcal/mol
DOCKED: USER
DOCKED: USER
DOCKED: REMARK  Name = ligands/ligand_41.pdb
DOCKED: REMARK  36 active torsions:
DOCKED: REMARK  status: ('A' for Active; 'I' for Inactive)
DOCKED: REMARK    1  A    between atoms: C1_1  and  S1_2
DOCKED: REMARK    2  A    between atoms: S1_2  and  C2_3
DOCKED: REMARK    3  A    between atoms: C2_3  and  C3_4
DOCKED: REMARK    4  A    between atoms: C3_4  and  C4_5
DOCKED: REMARK    5  A    between atoms: C4_5  and  N1_6
DOCKED: REMARK    6  A    between atoms: C4_5  and  C12_17
DOCKED: REMARK    7  A    between atoms: C5_7  and  C6_9
DOCKED: REMARK    8  A    between atoms: C6_9  and  N2_10
DOCKED: REMARK    9  A    between atoms: C6_9  and  C9_14
DOCKED: REMARK   10  A    between atoms: C7_11  and  C8_12
DOCKED: REMARK   11  A    between atoms: C9_14  and  C10_15
DOCKED: REMARK   12  A    between atoms: C9_14  and  C11_16
DOCKED: REMARK   13  A    between atoms: N3_19  and  C13_20
DOCKED: REMARK   14  A    between atoms: C13_20  and  C14_21
DOCKED: REMARK   15  A    between atoms: C13_20  and  C18_25
DOCKED: REMARK   16  A    between atoms: C14_21  and  C15_22
DOCKED: REMARK   17  A    between atoms: C15_22  and  C16_23
DOCKED: REMARK   18  A    between atoms: C15_22  and  C17_24
DOCKED: REMARK   19  A    between atoms: C18_25  and  O4_26
DOCKED: REMARK   20  A    between atoms: C18_25  and  C19_27
DOCKED: REMARK   21  A    between atoms: C19_27  and  C20_28
DOCKED: REMARK   22  A    between atoms: C24_34  and  C25_35
DOCKED: REMARK   23  A    between atoms: N5_37  and  C26_38
DOCKED: REMARK   24  A    between atoms: C26_38  and  C27_39
DOCKED: REMARK   25  A    between atoms: C26_38  and  C28_40
DOCKED: REMARK   26  A    between atoms: N6_42  and  C29_43
DOCKED: REMARK   27  A    between atoms: C29_43  and  C30_44
DOCKED: REMARK   28  A    between atoms: C29_43  and  C33_49
DOCKED: REMARK   29  A    between atoms: C30_44  and  C31_45
DOCKED: REMARK   30  A    between atoms: C31_45  and  C32_46
DOCKED: REMARK   31  A    between atoms: C32_46  and  O9_48
DOCKED: REMARK   32  A    between atoms: N7_51  and  C34_52
DOCKED: REMARK   33  A    between atoms: C34_52  and  C35_53
DOCKED: REMARK   34  A    between atoms: C34_52  and  C42_60
DOCKED: REMARK   35  A    between atoms: C35_53  and  C36_54
DOCKED: REMARK   36  A    between atoms: C42_60  and  O12_62
DOCKED: REMARK                            x       y       z     vdW  Elec       q    Type
DOCKED: REMARK                         _______ _______ _______ _____ _____    ______ ____
DOCKED: USER                              x       y       z     vdW  Elec       q    Type
DOCKED: USER                           _______ _______ _______ _____ _____    ______ ____
DOCKED: ROOT
DOCKED: ATOM      1  C20 UNL     1       7.501  -4.849   3.065 +0.00 +0.00    +0.219 C  
DOCKED: ATOM      2  O5  UNL     1       7.292  -4.205   2.035 +0.00 -0.00    -0.275 OA 
DOCKED: ATOM      3  N4  UNL     1       6.450  -5.477   3.712 +0.00 -0.00    -0.290 N  
DOCKED: ATOM      4  C21 UNL     1       6.594  -6.255   4.936 +0.00 +0.00    +0.108 C  
DOCKED: ATOM      5  C22 UNL     1       5.241  -6.218   5.633 +0.00 +0.00    +0.021 C  
DOCKED: ATOM      6  C23 UNL     1       4.274  -5.823   4.539 +0.00 +0.00    +0.033 C  
DOCKED: ATOM      7  C24 UNL     1       5.091  -4.927   3.606 +0.00 +0.00    +0.162 C  
DOCKED: ENDROOT
DOCKED: BRANCH   7   8
DOCKED: ATOM      8  C25 UNL     1       4.280  -4.835   2.277 +0.00 +0.00    +0.234 C  
DOCKED: ATOM      9  O6  UNL     1       3.090  -5.153   2.243 +0.00 -0.00    -0.274 OA 
DOCKED: ATOM     10  N5  UNL     1       4.942  -4.315   1.188 +0.00 -0.00    -0.303 N  
DOCKED: ATOM     11  H44 UNL     1       5.733  -3.732   1.478 +0.00 +0.00    +0.149 HD 
DOCKED: BRANCH  10  12
DOCKED: ATOM     12  C26 UNL     1       4.230  -3.730   0.047 +0.00 +0.00    +0.156 C  
DOCKED: ATOM     13  C27 UNL     1       3.513  -2.417   0.336 +0.00 +0.00    +0.038 C  
DOCKED: BRANCH  12  14
DOCKED: ATOM     14  C28 UNL     1       5.191  -3.686  -1.170 +0.00 +0.00    +0.234 C  
DOCKED: ATOM     15  O7  UNL     1       4.806  -3.780  -2.336 +0.00 -0.00    -0.274 OA 
DOCKED: ATOM     16  N6  UNL     1       6.514  -3.405  -0.878 +0.00 -0.00    -0.302 N  
DOCKED: ATOM     17  H49 UNL     1       6.874  -3.864  -0.049 +0.00 +0.00    +0.150 HD 
DOCKED: BRANCH  16  18
DOCKED: ATOM     18  C29 UNL     1       7.447  -3.304  -1.998 +0.00 +0.00    +0.159 C  
DOCKED: BRANCH  18  19
DOCKED: ATOM     19  C33 UNL     1       8.680  -4.177  -1.726 +0.00 +0.00    +0.234 C  
DOCKED: ATOM     20  O10 UNL     1       9.196  -4.882  -2.594 +0.00 -0.00    -0.274 OA 
DOCKED: ATOM     21  N7  UNL     1       9.123  -4.146  -0.427 +0.00 -0.00    -0.301 N  
DOCKED: ATOM     22  H56 UNL     1       8.527  -3.712   0.268 +0.00 +0.00    +0.150 HD 
DOCKED: BRANCH  21  23
DOCKED: ATOM     23  C34 UNL     1      10.109  -5.103   0.074 +0.00 +0.00    +0.186 C  
DOCKED: BRANCH  23  24
DOCKED: ATOM     24  C42 UNL     1      11.488  -4.696  -0.452 +0.00 +0.00    +0.326 C  
DOCKED: ATOM     25  O11 UNL     1      12.303  -5.428  -0.994 +0.00 -0.00    -0.249 OA 
DOCKED: BRANCH  24  26
DOCKED: ATOM     26  O12 UNL     1      11.769  -3.394  -0.262 +0.00 -0.00    -0.479 OA 
DOCKED: ATOM     27  H65 UNL     1      11.012  -3.069   0.269 +0.00 +0.00    +0.295 HD 
DOCKED: ENDBRANCH  24  26
DOCKED: ENDBRANCH  23  24
DOCKED: BRANCH  23  28
DOCKED: ATOM     28  C35 UNL     1       9.760  -6.549  -0.291 +0.00 +0.00    +0.069 C  
DOCKED: BRANCH  28  29
DOCKED: ATOM     29  C36 UNL     1       8.444  -7.042   0.265 +0.00 -0.00    -0.045 A  
DOCKED: ATOM     30  C37 UNL     1       7.236  -6.759  -0.389 +0.00 +0.00    +0.004 A  
DOCKED: ATOM     31  C38 UNL     1       6.025  -7.197   0.148 +0.00 +0.00    +0.000 A  
DOCKED: ATOM     32  C39 UNL     1       6.008  -7.931   1.329 +0.00 +0.00    +0.000 A  
DOCKED: ATOM     33  C40 UNL     1       7.203  -8.239   1.977 +0.00 +0.00    +0.000 A  
DOCKED: ATOM     34  C41 UNL     1       8.414  -7.795   1.447 +0.00 +0.00    +0.004 A  
DOCKED: ENDBRANCH  28  29
DOCKED: ENDBRANCH  23  28
DOCKED: ENDBRANCH  21  23
DOCKED: ENDBRANCH  18  19
DOCKED: BRANCH  18  35
DOCKED: ATOM     35  C30 UNL     1       7.842  -1.846  -2.284 +0.00 +0.00    +0.043 C  
DOCKED: BRANCH  35  36
DOCKED: ATOM     36  C31 UNL     1       7.646  -0.903  -1.099 +0.00 +0.00    +0.123 C  
DOCKED: BRANCH  36  37
DOCKED: ATOM     37  C32 UNL     1       8.238  -1.496   0.138 +0.00 +0.00    +0.305 C  
DOCKED: ATOM     38  O8  UNL     1       9.427  -1.581   0.387 +0.00 -0.00    -0.251 OA 
DOCKED: BRANCH  37  39
DOCKED: ATOM     39  O9  UNL     1       7.311  -1.995   0.975 +0.00 -0.00    -0.481 OA 
DOCKED: ATOM     40  H55 UNL     1       7.737  -2.770   1.386 +0.00 +0.00    +0.295 HD 
DOCKED: ENDBRANCH  37  39
DOCKED: ENDBRANCH  36  37
DOCKED: ENDBRANCH  35  36
DOCKED: ENDBRANCH  18  35
DOCKED: ENDBRANCH  16  18
DOCKED: ENDBRANCH  12  14
DOCKED: ENDBRANCH  10  12
DOCKED: ENDBRANCH   7   8
DOCKED: BRANCH   1  41
DOCKED: ATOM     41  C19 UNL     1       8.927  -5.027   3.565 +0.00 +0.00    +0.129 C  
DOCKED: BRANCH  41  42
DOCKED: ATOM     42  C18 UNL     1       9.707  -3.702   3.441 +0.00 +0.00    +0.143 C  
DOCKED: BRANCH  42  43
DOCKED: ATOM     43  O4  UNL     1       9.798  -3.363   2.036 +0.00 -0.00    -0.389 OA 
DOCKED: ATOM     44  H34 UNL     1       8.986  -2.851   1.809 +0.00 +0.00    +0.210 HD 
DOCKED: ENDBRANCH  42  43
DOCKED: BRANCH  42  45
DOCKED: ATOM     45  C13 UNL     1       9.088  -2.502   4.215 +0.00 +0.00    +0.102 C  
DOCKED: BRANCH  45  48
DOCKED: ATOM     46  C12 UNL     1       7.852  -0.378   3.718 +0.00 +0.00    +0.234 C  
DOCKED: ATOM     47  O3  UNL     1       8.474   0.263   4.568 +0.00 -0.00    -0.274 OA 
DOCKED: ATOM     48  N3  UNL     1       8.188  -1.674   3.393 +0.00 -0.00    -0.308 N  
DOCKED: ATOM     49  H22 UNL     1       7.494  -2.180   2.832 +0.00 +0.00    +0.149 HD 
DOCKED: BRANCH  46  50
DOCKED: ATOM     50  C4  UNL     1       6.659   0.214   2.920 +0.00 +0.00    +0.160 C  
DOCKED: BRANCH  50  51
DOCKED: ATOM     51  N1  UNL     1       5.426  -0.069   3.666 +0.00 -0.00    -0.302 N  
DOCKED: ATOM     52  C5  UNL     1       4.885  -1.332   3.624 +0.00 +0.00    +0.234 C  
DOCKED: ATOM     53  O1  UNL     1       5.324  -2.192   2.851 +0.00 -0.00    -0.274 OA 
DOCKED: ATOM     54  H9  UNL     1       5.273   0.470   4.500 +0.00 +0.00    +0.150 HD 
DOCKED: BRANCH  52  55
DOCKED: ATOM     55  C6  UNL     1       3.628  -1.607   4.496 +0.00 +0.00    +0.161 C  
DOCKED: BRANCH  55  56
DOCKED: ATOM     56  N2  UNL     1       2.797  -2.474   3.652 +0.00 -0.00    -0.304 N  
DOCKED: ATOM     57  C7  UNL     1       1.489  -2.194   3.356 +0.00 +0.00    +0.211 C  
DOCKED: ATOM     58  C8  UNL     1       0.866  -3.136   2.360 +0.00 +0.00    +0.109 C  
DOCKED: ATOM     59  O2  UNL     1       0.853  -1.294   3.891 +0.00 -0.00    -0.276 OA 
DOCKED: ATOM     60  H11 UNL     1       3.314  -3.084   3.022 +0.00 +0.00    +0.149 HD 
DOCKED: ENDBRANCH  55  56
DOCKED: BRANCH  55  61
DOCKED: ATOM     61  C9  UNL     1       3.832  -2.239   5.895 +0.00 +0.00    +0.012 C  
DOCKED: ATOM     62  C10 UNL     1       2.834  -3.333   6.260 +0.00 +0.00    +0.009 C  
DOCKED: ATOM     63  C11 UNL     1       5.268  -2.741   6.084 +0.00 +0.00    +0.009 C  
DOCKED: ENDBRANCH  55  61
DOCKED: ENDBRANCH  52  55
DOCKED: ENDBRANCH  50  51
DOCKED: BRANCH  50  64
DOCKED: ATOM     64  C3  UNL     1       6.816   1.724   2.669 +0.00 +0.00    +0.042 C  
DOCKED: BRANCH  64  65
DOCKED: ATOM     65  C2  UNL     1       6.071   2.213   1.418 +0.00 +0.00    +0.071 C  
DOCKED: BRANCH  65  67
DOCKED: ATOM     66  C1  UNL     1       3.585   0.988   1.216 +0.00 +0.00    +0.084 C  
DOCKED: ATOM     67  S1  UNL     1       5.228   0.909   0.456 +0.00 -0.00    -0.164 S  
DOCKED: ENDBRANCH  65  67
DOCKED: ENDBRANCH  64  65
DOCKED: ENDBRANCH  50  64
DOCKED: ENDBRANCH  46  50
DOCKED: ENDBRANCH  45  48
DOCKED: BRANCH  45  68
DOCKED: ATOM     68  C14 UNL     1       8.343  -2.955   5.499 +0.00 +0.00    +0.028 C  
DOCKED: BRANCH  68  69
DOCKED: ATOM     69  C15 UNL     1       8.833  -2.272   6.793 +0.00 -0.00    -0.015 C  
DOCKED: ATOM     70  C16 UNL     1       7.920  -1.137   7.271 +0.00 +0.00    +0.007 C  
DOCKED: ATOM     71  C17 UNL     1      10.255  -1.712   6.586 +0.00 +0.00    +0.007 C  
DOCKED: ENDBRANCH  68  69
DOCKED: ENDBRANCH  45  68
DOCKED: ENDBRANCH  42  45
DOCKED: ENDBRANCH  41  42
DOCKED: ENDBRANCH   1  41
DOCKED: TORSDOF 29
DOCKED: TER
DOCKED: ENDMDL
________________________________________________________________________________


    FINAL DOCKED STATE:
    ________________________


Run:   17 / 20
Time taken for this run:   5.123s

DOCKED: MODEL        17
DOCKED: USER    Run = 17
DOCKED: USER
DOCKED: USER    Estimated Free Energy of Binding    =  +8.65 kcal/mol  [=(1)+(2)+(3)-(4)]
DOCKED: USER
DOCKED: USER    (1) Final Intermolecular Energy     =  +0.00 kcal/mol
DOCKED: USER        vdW + Hbond + desolv Energy     =  +0.00 kcal/mol
DOCKED: USER        Electrostatic Energy            =  +0.00 kcal/mol
DOCKED: USER        Moving Ligand-Fixed Receptor    =  +0.00 kcal/mol
DOCKED: USER        Moving Ligand-Moving Receptor   =  +0.00 kcal/mol
DOCKED: USER    (2) Final Total Internal Energy     = -23.32 kcal/mol
DOCKED: USER    (3) Torsional Free Energy           =  +8.65 kcal/mol
DOCKED: USER    (4) Unbound System's Energy         = -23.32 kcal/mol
DOCKED: USER
DOCKED: USER
DOCKED: REMARK  Name = ligands/ligand_41.pdb
DOCKED: REMARK  36 active torsions:
DOCKED: REMARK  status: ('A' for Active; 'I' for Inactive)
DOCKED: REMARK    1  A    between atoms: C1_1  and  S1_2
DOCKED: REMARK    2  A    between atoms: S1_2  and  C2_3
DOCKED: REMARK    3  A    between atoms: C2_3  and  C3_4
DOCKED: REMARK    4  A    between atoms: C3_4  and  C4_5
DOCKED: REMARK    5  A    between atoms: C4_5  and  N1_6
DOCKED: REMARK    6  A    between atoms: C4_5  and  C12_17
DOCKED: REMARK    7  A    between atoms: C5_7  and  C6_9
DOCKED: REMARK    8  A    between atoms: C6_9  and  N2_10
DOCKED: REMARK    9  A    between atoms: C6_9  and  C9_14
DOCKED: REMARK   10  A    between atoms: C7_11  and  C8_12
DOCKED: REMARK   11  A    between atoms: C9_14  and  C10_15
DOCKED: REMARK   12  A    between atoms: C9_14  and  C11_16
DOCKED: REMARK   13  A    between atoms: N3_19  and  C13_20
DOCKED: REMARK   14  A    between atoms: C13_20  and  C14_21
DOCKED: REMARK   15  A    between atoms: C13_20  and  C18_25
DOCKED: REMARK   16  A    between atoms: C14_21  and  C15_22
DOCKED: REMARK   17  A    between atoms: C15_22  and  C16_23
DOCKED: REMARK   18  A    between atoms: C15_22  and  C17_24
DOCKED: REMARK   19  A    between atoms: C18_25  and  O4_26
DOCKED: REMARK   20  A    between atoms: C18_25  and  C19_27
DOCKED: REMARK   21  A    between atoms: C19_27  and  C20_28
DOCKED: REMARK   22  A    between atoms: C24_34  and  C25_35
DOCKED: REMARK   23  A    between atoms: N5_37  and  C26_38
DOCKED: REMARK   24  A    between atoms: C26_38  and  C27_39
DOCKED: REMARK   25  A    between atoms: C26_38  and  C28_40
DOCKED: REMARK   26  A    between atoms: N6_42  and  C29_43
DOCKED: REMARK   27  A    between atoms: C29_43  and  C30_44
DOCKED: REMARK   28  A    between atoms: C29_43  and  C33_49
DOCKED: REMARK   29  A    between atoms: C30_44  and  C31_45
DOCKED: REMARK   30  A    between atoms: C31_45  and  C32_46
DOCKED: REMARK   31  A    between atoms: C32_46  and  O9_48
DOCKED: REMARK   32  A    between atoms: N7_51  and  C34_52
DOCKED: REMARK   33  A    between atoms: C34_52  and  C35_53
DOCKED: REMARK   34  A    between atoms: C34_52  and  C42_60
DOCKED: REMARK   35  A    between atoms: C35_53  and  C36_54
DOCKED: REMARK   36  A    between atoms: C42_60  and  O12_62
DOCKED: REMARK                            x       y       z     vdW  Elec       q    Type
DOCKED: REMARK                         _______ _______ _______ _____ _____    ______ ____
DOCKED: USER                              x       y       z     vdW  Elec       q    Type
DOCKED: USER                           _______ _______ _______ _____ _____    ______ ____
DOCKED: ROOT
DOCKED: ATOM      1  C20 UNL     1      12.710 -10.978  -2.528 +0.00 +0.00    +0.219 C  
DOCKED: ATOM      2  O5  UNL     1      12.421  -9.784  -2.635 +0.00 -0.00    -0.275 OA 
DOCKED: ATOM      3  N4  UNL     1      12.289 -11.879  -3.492 +0.00 -0.00    -0.290 N  
DOCKED: ATOM      4  C21 UNL     1      12.575 -13.308  -3.451 +0.00 +0.00    +0.108 C  
DOCKED: ATOM      5  C22 UNL     1      11.475 -13.991  -4.252 +0.00 +0.00    +0.021 C  
DOCKED: ATOM      6  C23 UNL     1      10.893 -12.881  -5.099 +0.00 +0.00    +0.033 C  
DOCKED: ATOM      7  C24 UNL     1      11.057 -11.619  -4.249 +0.00 +0.00    +0.162 C  
DOCKED: ENDROOT
DOCKED: BRANCH   7   8
DOCKED: ATOM      8  C25 UNL     1      10.860 -10.416  -5.222 +0.00 +0.00    +0.234 C  
DOCKED: ATOM      9  O6  UNL     1      10.324 -10.576  -6.320 +0.00 -0.00    -0.274 OA 
DOCKED: ATOM     10  N5  UNL     1      11.241  -9.179  -4.753 +0.00 -0.00    -0.303 N  
DOCKED: ATOM     11  H44 UNL     1      11.256  -9.158  -3.729 +0.00 +0.00    +0.149 HD 
DOCKED: BRANCH  10  12
DOCKED: ATOM     12  C26 UNL     1      10.705  -7.933  -5.311 +0.00 +0.00    +0.156 C  
DOCKED: ATOM     13  C27 UNL     1       9.223  -7.692  -5.050 +0.00 +0.00    +0.038 C  
DOCKED: BRANCH  12  14
DOCKED: ATOM     14  C28 UNL     1      11.632  -6.761  -4.895 +0.00 +0.00    +0.234 C  
DOCKED: ATOM     15  O7  UNL     1      11.801  -5.757  -5.587 +0.00 -0.00    -0.274 OA 
DOCKED: ATOM     16  N6  UNL     1      12.172  -6.848  -3.624 +0.00 -0.00    -0.302 N  
DOCKED: ATOM     17  H49 UNL     1      12.486  -7.774  -3.356 +0.00 +0.00    +0.150 HD 
DOCKED: BRANCH  16  18
DOCKED: ATOM     18  C29 UNL     1      13.013  -5.743  -3.169 +0.00 +0.00    +0.159 C  
DOCKED: BRANCH  18  19
DOCKED: ATOM     19  C33 UNL     1      14.345  -6.289  -2.638 +0.00 +0.00    +0.234 C  
DOCKED: ATOM     20  O10 UNL     1      15.428  -5.764  -2.902 +0.00 -0.00    -0.274 OA 
DOCKED: ATOM     21  N7  UNL     1      14.233  -7.436  -1.893 +0.00 -0.00    -0.301 N  
DOCKED: ATOM     22  H56 UNL     1      13.342  -7.919  -1.894 +0.00 +0.00    +0.150 HD 
DOCKED: BRANCH  21  23
DOCKED: ATOM     23  C34 UNL     1      15.401  -8.237  -1.530 +0.00 +0.00    +0.186 C  
DOCKED: BRANCH  23  24
DOCKED: ATOM     24  C42 UNL     1      16.142  -7.527  -0.394 +0.00 +0.00    +0.326 C  
DOCKED: ATOM     25  O11 UNL     1      17.341  -7.301  -0.339 +0.00 -0.00    -0.249 OA 
DOCKED: BRANCH  24  26
DOCKED: ATOM     26  O12 UNL     1      15.334  -7.143   0.613 +0.00 -0.00    -0.479 OA 
DOCKED: ATOM     27  H65 UNL     1      14.465  -7.528   0.371 +0.00 +0.00    +0.295 HD 
DOCKED: ENDBRANCH  24  26
DOCKED: ENDBRANCH  23  24
DOCKED: BRANCH  23  28
DOCKED: ATOM     28  C35 UNL     1      16.316  -8.513  -2.726 +0.00 +0.00    +0.069 C  
DOCKED: BRANCH  28  29
DOCKED: ATOM     29  C36 UNL     1      15.673  -9.295  -3.848 +0.00 -0.00    -0.045 A  
DOCKED: ATOM     30  C37 UNL     1      14.863  -8.656  -4.799 +0.00 +0.00    +0.004 A  
DOCKED: ATOM     31  C38 UNL     1      14.254  -9.393  -5.814 +0.00 +0.00    +0.000 A  
DOCKED: ATOM     32  C39 UNL     1      14.456 -10.766  -5.901 +0.00 +0.00    +0.000 A  
DOCKED: ATOM     33  C40 UNL     1      15.277 -11.410  -4.976 +0.00 +0.00    +0.000 A  
DOCKED: ATOM     34  C41 UNL     1      15.881 -10.678  -3.956 +0.00 +0.00    +0.004 A  
DOCKED: ENDBRANCH  28  29
DOCKED: ENDBRANCH  23  28
DOCKED: ENDBRANCH  21  23
DOCKED: ENDBRANCH  18  19
DOCKED: BRANCH  18  35
DOCKED: ATOM     35  C30 UNL     1      12.300  -4.877  -2.117 +0.00 +0.00    +0.043 C  
DOCKED: BRANCH  35  36
DOCKED: ATOM     36  C31 UNL     1      11.159  -5.589  -1.393 +0.00 +0.00    +0.123 C  
DOCKED: BRANCH  36  37
DOCKED: ATOM     37  C32 UNL     1      11.607  -6.931  -0.914 +0.00 +0.00    +0.305 C  
DOCKED: ATOM     38  O8  UNL     1      12.351  -7.138   0.028 +0.00 -0.00    -0.251 OA 
DOCKED: BRANCH  37  39
DOCKED: ATOM     39  O9  UNL     1      11.139  -7.940  -1.670 +0.00 -0.00    -0.481 OA 
DOCKED: ATOM     40  H55 UNL     1      11.845  -8.613  -1.653 +0.00 +0.00    +0.295 HD 
DOCKED: ENDBRANCH  37  39
DOCKED: ENDBRANCH  36  37
DOCKED: ENDBRANCH  35  36
DOCKED: ENDBRANCH  18  35
DOCKED: ENDBRANCH  16  18
DOCKED: ENDBRANCH  12  14
DOCKED: ENDBRANCH  10  12
DOCKED: ENDBRANCH   7   8
DOCKED: BRANCH   1  41
DOCKED: ATOM     41  C19 UNL     1      13.607 -11.435  -1.387 +0.00 +0.00    +0.129 C  
DOCKED: BRANCH  41  42
DOCKED: ATOM     42  C18 UNL     1      13.178 -10.764  -0.067 +0.00 +0.00    +0.143 C  
DOCKED: BRANCH  42  43
DOCKED: ATOM     43  O4  UNL     1      13.392  -9.338  -0.196 +0.00 -0.00    -0.389 OA 
DOCKED: ATOM     44  H34 UNL     1      12.587  -8.962  -0.627 +0.00 +0.00    +0.210 HD 
DOCKED: ENDBRANCH  42  43
DOCKED: BRANCH  42  45
DOCKED: ATOM     45  C13 UNL     1      11.701 -11.021   0.350 +0.00 +0.00    +0.102 C  
DOCKED: BRANCH  45  48
DOCKED: ATOM     46  C12 UNL     1       9.533  -9.766   0.466 +0.00 +0.00    +0.234 C  
DOCKED: ATOM     47  O3  UNL     1       9.222 -10.268   1.548 +0.00 -0.00    -0.274 OA 
DOCKED: ATOM     48  N3  UNL     1      10.771  -9.971  -0.103 +0.00 -0.00    -0.308 N  
DOCKED: ATOM     49  H22 UNL     1      10.856  -9.684  -1.084 +0.00 +0.00    +0.149 HD 
DOCKED: BRANCH  46  50
DOCKED: ATOM     50  C4  UNL     1       8.582  -8.843  -0.341 +0.00 +0.00    +0.160 C  
DOCKED: BRANCH  50  51
DOCKED: ATOM     51  N1  UNL     1       7.776  -9.686  -1.235 +0.00 -0.00    -0.302 N  
DOCKED: ATOM     52  C5  UNL     1       8.344 -10.191  -2.382 +0.00 +0.00    +0.234 C  
DOCKED: ATOM     53  O1  UNL     1       9.464  -9.824  -2.756 +0.00 -0.00    -0.274 OA 
DOCKED: ATOM     54  H9  UNL     1       7.049 -10.229  -0.804 +0.00 +0.00    +0.150 HD 
DOCKED: BRANCH  52  55
DOCKED: ATOM     55  C6  UNL     1       7.482 -11.146  -3.252 +0.00 +0.00    +0.161 C  
DOCKED: BRANCH  55  56
DOCKED: ATOM     56  N2  UNL     1       7.823 -10.771  -4.630 +0.00 -0.00    -0.304 N  
DOCKED: ATOM     57  C7  UNL     1       6.881 -10.437  -5.567 +0.00 +0.00    +0.211 C  
DOCKED: ATOM     58  C8  UNL     1       7.455  -9.948  -6.871 +0.00 +0.00    +0.109 C  
DOCKED: ATOM     59  O2  UNL     1       5.677 -10.575  -5.393 +0.00 -0.00    -0.276 OA 
DOCKED: ATOM     60  H11 UNL     1       8.774 -10.432  -4.759 +0.00 +0.00    +0.149 HD 
DOCKED: ENDBRANCH  55  56
DOCKED: BRANCH  55  61
DOCKED: ATOM     61  C9  UNL     1       7.644 -12.672  -3.044 +0.00 +0.00    +0.012 C  
DOCKED: ATOM     62  C10 UNL     1       7.709 -13.494  -4.327 +0.00 +0.00    +0.009 C  
DOCKED: ATOM     63  C11 UNL     1       8.839 -12.994  -2.140 +0.00 +0.00    +0.009 C  
DOCKED: ENDBRANCH  55  61
DOCKED: ENDBRANCH  52  55
DOCKED: ENDBRANCH  50  51
DOCKED: BRANCH  50  64
DOCKED: ATOM     64  C3  UNL     1       7.680  -7.992   0.571 +0.00 +0.00    +0.042 C  
DOCKED: BRANCH  64  65
DOCKED: ATOM     65  C2  UNL     1       7.195  -6.695  -0.093 +0.00 +0.00    +0.071 C  
DOCKED: BRANCH  65  67
DOCKED: ATOM     66  C1  UNL     1       6.561  -7.126  -2.764 +0.00 +0.00    +0.084 C  
DOCKED: ATOM     67  S1  UNL     1       7.870  -6.375  -1.760 +0.00 -0.00    -0.164 S  
DOCKED: ENDBRANCH  65  67
DOCKED: ENDBRANCH  64  65
DOCKED: ENDBRANCH  50  64
DOCKED: ENDBRANCH  46  50
DOCKED: ENDBRANCH  45  48
DOCKED: BRANCH  45  68
DOCKED: ATOM     68  C14 UNL     1      11.189 -12.405  -0.131 +0.00 +0.00    +0.028 C  
DOCKED: BRANCH  68  69
DOCKED: ATOM     69  C15 UNL     1      10.718 -13.339   1.003 +0.00 -0.00    -0.015 C  
DOCKED: ATOM     70  C16 UNL     1       9.194 -13.375   1.175 +0.00 +0.00    +0.007 C  
DOCKED: ATOM     71  C17 UNL     1      11.358 -12.908   2.339 +0.00 +0.00    +0.007 C  
DOCKED: ENDBRANCH  68  69
DOCKED: ENDBRANCH  45  68
DOCKED: ENDBRANCH  42  45
DOCKED: ENDBRANCH  41  42
DOCKED: ENDBRANCH   1  41
DOCKED: TORSDOF 29
DOCKED: TER
DOCKED: ENDMDL
________________________________________________________________________________


    FINAL DOCKED STATE:
    ________________________


Run:   18 / 20
Time taken for this run:   5.123s

DOCKED: MODEL        18
DOCKED: USER    Run = 18
DOCKED: USER
DOCKED: USER    Estimated Free Energy of Binding    =  +8.65 kcal/mol  [=(1)+(2)+(3)-(4)]
DOCKED: USER
DOCKED: USER    (1) Final Intermolecular Energy     =  +0.00 kcal/mol
DOCKED: USER        vdW + Hbond + desolv Energy     =  +0.00 kcal/mol
DOCKED: USER        Electrostatic Energy            =  +0.00 kcal/mol
DOCKED: USER        Moving Ligand-Fixed Receptor    =  +0.00 kcal/mol
DOCKED: USER        Moving Ligand-Moving Receptor   =  +0.00 kcal/mol
DOCKED: USER    (2) Final Total Internal Energy     = -23.28 kcal/mol
DOCKED: USER    (3) Torsional Free Energy           =  +8.65 kcal/mol
DOCKED: USER    (4) Unbound System's Energy         = -23.28 kcal/mol
DOCKED: USER
DOCKED: USER
DOCKED: REMARK  Name = ligands/ligand_41.pdb
DOCKED: REMARK  36 active torsions:
DOCKED: REMARK  status: ('A' for Active; 'I' for Inactive)
DOCKED: REMARK    1  A    between atoms: C1_1  and  S1_2
DOCKED: REMARK    2  A    between atoms: S1_2  and  C2_3
DOCKED: REMARK    3  A    between atoms: C2_3  and  C3_4
DOCKED: REMARK    4  A    between atoms: C3_4  and  C4_5
DOCKED: REMARK    5  A    between atoms: C4_5  and  N1_6
DOCKED: REMARK    6  A    between atoms: C4_5  and  C12_17
DOCKED: REMARK    7  A    between atoms: C5_7  and  C6_9
DOCKED: REMARK    8  A    between atoms: C6_9  and  N2_10
DOCKED: REMARK    9  A    between atoms: C6_9  and  C9_14
DOCKED: REMARK   10  A    between atoms: C7_11  and  C8_12
DOCKED: REMARK   11  A    between atoms: C9_14  and  C10_15
DOCKED: REMARK   12  A    between atoms: C9_14  and  C11_16
DOCKED: REMARK   13  A    between atoms: N3_19  and  C13_20
DOCKED: REMARK   14  A    between atoms: C13_20  and  C14_21
DOCKED: REMARK   15  A    between atoms: C13_20  and  C18_25
DOCKED: REMARK   16  A    between atoms: C14_21  and  C15_22
DOCKED: REMARK   17  A    between atoms: C15_22  and  C16_23
DOCKED: REMARK   18  A    between atoms: C15_22  and  C17_24
DOCKED: REMARK   19  A    between atoms: C18_25  and  O4_26
DOCKED: REMARK   20  A    between atoms: C18_25  and  C19_27
DOCKED: REMARK   21  A    between atoms: C19_27  and  C20_28
DOCKED: REMARK   22  A    between atoms: C24_34  and  C25_35
DOCKED: REMARK   23  A    between atoms: N5_37  and  C26_38
DOCKED: REMARK   24  A    between atoms: C26_38  and  C27_39
DOCKED: REMARK   25  A    between atoms: C26_38  and  C28_40
DOCKED: REMARK   26  A    between atoms: N6_42  and  C29_43
DOCKED: REMARK   27  A    between atoms: C29_43  and  C30_44
DOCKED: REMARK   28  A    between atoms: C29_43  and  C33_49
DOCKED: REMARK   29  A    between atoms: C30_44  and  C31_45
DOCKED: REMARK   30  A    between atoms: C31_45  and  C32_46
DOCKED: REMARK   31  A    between atoms: C32_46  and  O9_48
DOCKED: REMARK   32  A    between atoms: N7_51  and  C34_52
DOCKED: REMARK   33  A    between atoms: C34_52  and  C35_53
DOCKED: REMARK   34  A    between atoms: C34_52  and  C42_60
DOCKED: REMARK   35  A    between atoms: C35_53  and  C36_54
DOCKED: REMARK   36  A    between atoms: C42_60  and  O12_62
DOCKED: REMARK                            x       y       z     vdW  Elec       q    Type
DOCKED: REMARK                         _______ _______ _______ _____ _____    ______ ____
DOCKED: USER                              x       y       z     vdW  Elec       q    Type
DOCKED: USER                           _______ _______ _______ _____ _____    ______ ____
DOCKED: ROOT
DOCKED: ATOM      1  C20 UNL     1       9.295  -1.959  -4.292 +0.00 +0.00    +0.219 C  
DOCKED: ATOM      2  O5  UNL     1      10.007  -0.954  -4.343 +0.00 -0.00    -0.275 OA 
DOCKED: ATOM      3  N4  UNL     1       9.448  -2.861  -3.253 +0.00 -0.00    -0.290 N  
DOCKED: ATOM      4  C21 UNL     1       8.661  -4.079  -3.109 +0.00 +0.00    +0.108 C  
DOCKED: ATOM      5  C22 UNL     1       9.508  -5.046  -2.293 +0.00 +0.00    +0.021 C  
DOCKED: ATOM      6  C23 UNL     1      10.529  -4.161  -1.615 +0.00 +0.00    +0.033 C  
DOCKED: ATOM      7  C24 UNL     1      10.756  -3.010  -2.598 +0.00 +0.00    +0.162 C  
DOCKED: ENDROOT
DOCKED: BRANCH   7   8
DOCKED: ATOM      8  C25 UNL     1      11.467  -1.883  -1.787 +0.00 +0.00    +0.234 C  
DOCKED: ATOM      9  O6  UNL     1      11.996  -2.129  -0.701 +0.00 -0.00    -0.274 OA 
DOCKED: ATOM     10  N5  UNL     1      11.533  -0.645  -2.384 +0.00 -0.00    -0.303 N  
DOCKED: ATOM     11  H44 UNL     1      11.440  -0.717  -3.402 +0.00 +0.00    +0.149 HD 
DOCKED: BRANCH  10  12
DOCKED: ATOM     12  C26 UNL     1      12.538   0.353  -2.004 +0.00 +0.00    +0.156 C  
DOCKED: ATOM     13  C27 UNL     1      13.976  -0.010  -2.356 +0.00 +0.00    +0.038 C  
DOCKED: BRANCH  12  14
DOCKED: ATOM     14  C28 UNL     1      12.079   1.743  -2.517 +0.00 +0.00    +0.234 C  
DOCKED: ATOM     15  O7  UNL     1      12.363   2.798  -1.950 +0.00 -0.00    -0.274 OA 
DOCKED: ATOM     16  N6  UNL     1      11.428   1.745  -3.738 +0.00 -0.00    -0.302 N  
DOCKED: ATOM     17  H49 UNL     1      10.768   0.987  -3.870 +0.00 +0.00    +0.150 HD 
DOCKED: BRANCH  16  18
DOCKED: ATOM     18  C29 UNL     1      11.021   3.037  -4.286 +0.00 +0.00    +0.159 C  
DOCKED: BRANCH  18  19
DOCKED: ATOM     19  C33 UNL     1       9.538   2.990  -4.679 +0.00 +0.00    +0.234 C  
DOCKED: ATOM     20  O10 UNL     1       8.755   3.905  -4.421 +0.00 -0.00    -0.274 OA 
DOCKED: ATOM     21  N7  UNL     1       9.148   1.824  -5.289 +0.00 -0.00    -0.301 N  
DOCKED: ATOM     22  H56 UNL     1       9.793   1.042  -5.278 +0.00 +0.00    +0.150 HD 
DOCKED: BRANCH  21  23
DOCKED: ATOM     23  C34 UNL     1       7.738   1.494  -5.493 +0.00 +0.00    +0.186 C  
DOCKED: BRANCH  23  24
DOCKED: ATOM     24  C42 UNL     1       7.215   2.315  -6.675 +0.00 +0.00    +0.326 C  
DOCKED: ATOM     25  O11 UNL     1       6.163   2.934  -6.720 +0.00 -0.00    -0.249 OA 
DOCKED: BRANCH  24  26
DOCKED: ATOM     26  O12 UNL     1       8.042   2.307  -7.738 +0.00 -0.00    -0.479 OA 
DOCKED: ATOM     27  H65 UNL     1       8.688   1.602  -7.523 +0.00 +0.00    +0.295 HD 
DOCKED: ENDBRANCH  24  26
DOCKED: ENDBRANCH  23  24
DOCKED: BRANCH  23  28
DOCKED: ATOM     28  C35 UNL     1       6.898   1.708  -4.231 +0.00 +0.00    +0.069 C  
DOCKED: BRANCH  28  29
DOCKED: ATOM     29  C36 UNL     1       7.310   0.867  -3.045 +0.00 -0.00    -0.045 A  
DOCKED: ATOM     30  C37 UNL     1       8.361   1.270  -2.208 +0.00 +0.00    +0.004 A  
DOCKED: ATOM     31  C38 UNL     1       8.750   0.471  -1.132 +0.00 +0.00    +0.000 A  
DOCKED: ATOM     32  C39 UNL     1       8.088  -0.725  -0.873 +0.00 +0.00    +0.000 A  
DOCKED: ATOM     33  C40 UNL     1       7.028  -1.126  -1.684 +0.00 +0.00    +0.000 A  
DOCKED: ATOM     34  C41 UNL     1       6.642  -0.334  -2.764 +0.00 +0.00    +0.004 A  
DOCKED: ENDBRANCH  28  29
DOCKED: ENDBRANCH  23  28
DOCKED: ENDBRANCH  21  23
DOCKED: ENDBRANCH  18  19
DOCKED: BRANCH  18  35
DOCKED: ATOM     35  C30 UNL     1      11.903   3.459  -5.472 +0.00 +0.00    +0.043 C  
DOCKED: BRANCH  35  36
DOCKED: ATOM     36  C31 UNL     1      12.625   2.300  -6.156 +0.00 +0.00    +0.123 C  
DOCKED: BRANCH  36  37
DOCKED: ATOM     37  C32 UNL     1      11.668   1.188  -6.438 +0.00 +0.00    +0.305 C  
DOCKED: ATOM     38  O8  UNL     1      10.817   1.187  -7.309 +0.00 -0.00    -0.251 OA 
DOCKED: BRANCH  37  39
DOCKED: ATOM     39  O9  UNL     1      11.795   0.158  -5.582 +0.00 -0.00    -0.481 OA 
DOCKED: ATOM     40  H55 UNL     1      10.895  -0.209  -5.498 +0.00 +0.00    +0.295 HD 
DOCKED: ENDBRANCH  37  39
DOCKED: ENDBRANCH  36  37
DOCKED: ENDBRANCH  35  36
DOCKED: ENDBRANCH  18  35
DOCKED: ENDBRANCH  16  18
DOCKED: ENDBRANCH  12  14
DOCKED: ENDBRANCH  10  12
DOCKED: ENDBRANCH   7   8
DOCKED: BRANCH   1  41
DOCKED: ATOM     41  C19 UNL     1       8.190  -2.151  -5.321 +0.00 +0.00    +0.129 C  
DOCKED: BRANCH  41  42
DOCKED: ATOM     42  C18 UNL     1       8.718  -1.840  -6.736 +0.00 +0.00    +0.143 C  
DOCKED: BRANCH  42  43
DOCKED: ATOM     43  O4  UNL     1       9.047  -0.431  -6.794 +0.00 -0.00    -0.389 OA 
DOCKED: ATOM     44  H34 UNL     1       9.956  -0.331  -6.424 +0.00 +0.00    +0.210 HD 
DOCKED: ENDBRANCH  42  43
DOCKED: BRANCH  42  45
DOCKED: ATOM     45  C13 UNL     1       9.959  -2.672  -7.172 +0.00 +0.00    +0.102 C  
DOCKED: BRANCH  45  48
DOCKED: ATOM     46  C12 UNL     1      12.410  -2.313  -7.559 +0.00 +0.00    +0.234 C  
DOCKED: ATOM     47  O3  UNL     1      12.416  -2.989  -8.590 +0.00 -0.00    -0.274 OA 
DOCKED: ATOM     48  N3  UNL     1      11.242  -1.999  -6.900 +0.00 -0.00    -0.308 N  
DOCKED: ATOM     49  H22 UNL     1      11.359  -1.614  -5.957 +0.00 +0.00    +0.149 HD 
DOCKED: BRANCH  46  50
DOCKED: ATOM     50  C4  UNL     1      13.702  -1.734  -6.922 +0.00 +0.00    +0.160 C  
DOCKED: BRANCH  50  51
DOCKED: ATOM     51  N1  UNL     1      14.230  -2.727  -5.977 +0.00 -0.00    -0.302 N  
DOCKED: ATOM     52  C5  UNL     1      13.631  -2.875  -4.747 +0.00 +0.00    +0.234 C  
DOCKED: ATOM     53  O1  UNL     1      12.760  -2.086  -4.360 +0.00 -0.00    -0.274 OA 
DOCKED: ATOM     54  H9  UNL     1      14.667  -3.539  -6.377 +0.00 +0.00    +0.150 HD 
DOCKED: BRANCH  52  55
DOCKED: ATOM     55  C6  UNL     1      14.169  -3.995  -3.814 +0.00 +0.00    +0.161 C  
DOCKED: BRANCH  55  56
DOCKED: ATOM     56  N2  UNL     1      14.104  -3.398  -2.475 +0.00 -0.00    -0.304 N  
DOCKED: ATOM     57  C7  UNL     1      15.176  -3.358  -1.623 +0.00 +0.00    +0.211 C  
DOCKED: ATOM     58  C8  UNL     1      14.931  -2.575  -0.360 +0.00 +0.00    +0.109 C  
DOCKED: ATOM     59  O2  UNL     1      16.228  -3.950  -1.833 +0.00 -0.00    -0.276 OA 
DOCKED: ATOM     60  H11 UNL     1      13.357  -2.719  -2.343 +0.00 +0.00    +0.149 HD 
DOCKED: ENDBRANCH  55  56
DOCKED: BRANCH  55  61
DOCKED: ATOM     61  C9  UNL     1      13.458  -5.370  -3.836 +0.00 +0.00    +0.012 C  
DOCKED: ATOM     62  C10 UNL     1      13.193  -5.980  -2.464 +0.00 +0.00    +0.009 C  
DOCKED: ATOM     63  C11 UNL     1      12.166  -5.324  -4.660 +0.00 +0.00    +0.009 C  
DOCKED: ENDBRANCH  55  61
DOCKED: ENDBRANCH  52  55
DOCKED: ENDBRANCH  50  51
DOCKED: BRANCH  50  64
DOCKED: ATOM     64  C3  UNL     1      14.760  -1.365  -7.978 +0.00 +0.00    +0.042 C  
DOCKED: BRANCH  64  65
DOCKED: ATOM     65  C2  UNL     1      15.799  -0.355  -7.469 +0.00 +0.00    +0.071 C  
DOCKED: BRANCH  65  67
DOCKED: ATOM     66  C1  UNL     1      16.447  -0.678  -4.787 +0.00 +0.00    +0.084 C  
DOCKED: ATOM     67  S1  UNL     1      15.430   0.388  -5.843 +0.00 -0.00    -0.164 S  
DOCKED: ENDBRANCH  65  67
DOCKED: ENDBRANCH  64  65
DOCKED: ENDBRANCH  50  64
DOCKED: ENDBRANCH  46  50
DOCKED: ENDBRANCH  45  48
DOCKED: BRANCH  45  68
DOCKED: ATOM     68  C14 UNL     1       9.971  -4.085  -6.530 +0.00 +0.00    +0.028 C  
DOCKED: BRANCH  68  69
DOCKED: ATOM     69  C15 UNL     1       9.814  -5.242  -7.537 +0.00 -0.00    -0.015 C  
DOCKED: ATOM     70  C16 UNL     1       8.945  -6.395  -7.016 +0.00 +0.00    +0.007 C  
DOCKED: ATOM     71  C17 UNL     1      11.200  -5.799  -7.921 +0.00 +0.00    +0.007 C  
DOCKED: ENDBRANCH  68  69
DOCKED: ENDBRANCH  45  68
DOCKED: ENDBRANCH  42  45
DOCKED: ENDBRANCH  41  42
DOCKED: ENDBRANCH   1  41
DOCKED: TORSDOF 29
DOCKED: TER
DOCKED: ENDMDL
________________________________________________________________________________


    FINAL DOCKED STATE:
    ________________________


Run:   19 / 20
Time taken for this run:   5.123s

DOCKED: MODEL        19
DOCKED: USER    Run = 19
DOCKED: USER
DOCKED: USER    Estimated Free Energy of Binding    =  +8.65 kcal/mol  [=(1)+(2)+(3)-(4)]
DOCKED: USER
DOCKED: USER    (1) Final Intermolecular Energy     =  +0.00 kcal/mol
DOCKED: USER        vdW + Hbond + desolv Energy     =  +0.00 kcal/mol
DOCKED: USER        Electrostatic Energy            =  +0.00 kcal/mol
DOCKED: USER        Moving Ligand-Fixed Receptor    =  +0.00 kcal/mol
DOCKED: USER        Moving Ligand-Moving Receptor   =  +0.00 kcal/mol
DOCKED: USER    (2) Final Total Internal Energy     = -23.31 kcal/mol
DOCKED: USER    (3) Torsional Free Energy           =  +8.65 kcal/mol
DOCKED: USER    (4) Unbound System's Energy         = -23.31 kcal/mol
DOCKED: USER
DOCKED: USER
DOCKED: REMARK  Name = ligands/ligand_41.pdb
DOCKED: REMARK  36 active torsions:
DOCKED: REMARK  status: ('A' for Active; 'I' for Inactive)
DOCKED: REMARK    1  A    between atoms: C1_1  and  S1_2
DOCKED: REMARK    2  A    between atoms: S1_2  and  C2_3
DOCKED: REMARK    3  A    between atoms: C2_3  and  C3_4
DOCKED: REMARK    4  A    between atoms: C3_4  and  C4_5
DOCKED: REMARK    5  A    between atoms: C4_5  and  N1_6
DOCKED: REMARK    6  A    between atoms: C4_5  and  C12_17
DOCKED: REMARK    7  A    between atoms: C5_7  and  C6_9
DOCKED: REMARK    8  A    between atoms: C6_9  and  N2_10
DOCKED: REMARK    9  A    between atoms: C6_9  and  C9_14
DOCKED: REMARK   10  A    between atoms: C7_11  and  C8_12
DOCKED: REMARK   11  A    between atoms: C9_14  and  C10_15
DOCKED: REMARK   12  A    between atoms: C9_14  and  C11_16
DOCKED: REMARK   13  A    between atoms: N3_19  and  C13_20
DOCKED: REMARK   14  A    between atoms: C13_20  and  C14_21
DOCKED: REMARK   15  A    between atoms: C13_20  and  C18_25
DOCKED: REMARK   16  A    between atoms: C14_21  and  C15_22
DOCKED: REMARK   17  A    between atoms: C15_22  and  C16_23
DOCKED: REMARK   18  A    between atoms: C15_22  and  C17_24
DOCKED: REMARK   19  A    between atoms: C18_25  and  O4_26
DOCKED: REMARK   20  A    between atoms: C18_25  and  C19_27
DOCKED: REMARK   21  A    between atoms: C19_27  and  C20_28
DOCKED: REMARK   22  A    between atoms: C24_34  and  C25_35
DOCKED: REMARK   23  A    between atoms: N5_37  and  C26_38
DOCKED: REMARK   24  A    between atoms: C26_38  and  C27_39
DOCKED: REMARK   25  A    between atoms: C26_38  and  C28_40
DOCKED: REMARK   26  A    between atoms: N6_42  and  C29_43
DOCKED: REMARK   27  A    between atoms: C29_43  and  C30_44
DOCKED: REMARK   28  A    between atoms: C29_43  and  C33_49
DOCKED: REMARK   29  A    between atoms: C30_44  and  C31_45
DOCKED: REMARK   30  A    between atoms: C31_45  and  C32_46
DOCKED: REMARK   31  A    between atoms: C32_46  and  O9_48
DOCKED: REMARK   32  A    between atoms: N7_51  and  C34_52
DOCKED: REMARK   33  A    between atoms: C34_52  and  C35_53
DOCKED: REMARK   34  A    between atoms: C34_52  and  C42_60
DOCKED: REMARK   35  A    between atoms: C35_53  and  C36_54
DOCKED: REMARK   36  A    between atoms: C42_60  and  O12_62
DOCKED: REMARK                            x       y       z     vdW  Elec       q    Type
DOCKED: REMARK                         _______ _______ _______ _____ _____    ______ ____
DOCKED: USER                              x       y       z     vdW  Elec       q    Type
DOCKED: USER                           _______ _______ _______ _____ _____    ______ ____
DOCKED: ROOT
DOCKED: ATOM      1  C20 UNL     1      16.479  -4.554  -0.287 +0.00 +0.00    +0.219 C  
DOCKED: ATOM      2  O5  UNL     1      15.609  -4.820   0.545 +0.00 -0.00    -0.275 OA 
DOCKED: ATOM      3  N4  UNL     1      16.365  -5.036  -1.581 +0.00 -0.00    -0.290 N  
DOCKED: ATOM      4  C21 UNL     1      17.342  -4.782  -2.633 +0.00 +0.00    +0.108 C  
DOCKED: ATOM      5  C22 UNL     1      17.215  -5.930  -3.625 +0.00 +0.00    +0.021 C  
DOCKED: ATOM      6  C23 UNL     1      15.853  -6.519  -3.334 +0.00 +0.00    +0.033 C  
DOCKED: ATOM      7  C24 UNL     1      15.645  -6.291  -1.835 +0.00 +0.00    +0.162 C  
DOCKED: ENDROOT
DOCKED: BRANCH   7   8
DOCKED: ATOM      8  C25 UNL     1      14.121  -6.500  -1.574 +0.00 +0.00    +0.234 C  
DOCKED: ATOM      9  O6  UNL     1      13.413  -7.067  -2.408 +0.00 -0.00    -0.274 OA 
DOCKED: ATOM     10  N5  UNL     1      13.646  -6.090  -0.350 +0.00 -0.00    -0.303 N  
DOCKED: ATOM     11  H44 UNL     1      14.398  -6.046   0.345 +0.00 +0.00    +0.149 HD 
DOCKED: BRANCH  10  12
DOCKED: ATOM     12  C26 UNL     1      12.409  -6.625   0.228 +0.00 +0.00    +0.156 C  
DOCKED: ATOM     13  C27 UNL     1      12.467  -8.092   0.636 +0.00 +0.00    +0.038 C  
DOCKED: BRANCH  12  14
DOCKED: ATOM     14  C28 UNL     1      11.922  -5.663   1.343 +0.00 +0.00    +0.234 C  
DOCKED: ATOM     15  O7  UNL     1      10.736  -5.518   1.638 +0.00 -0.00    -0.274 OA 
DOCKED: ATOM     16  N6  UNL     1      12.919  -5.059   2.089 +0.00 -0.00    -0.302 N  
DOCKED: ATOM     17  H49 UNL     1      13.720  -4.742   1.553 +0.00 +0.00    +0.150 HD 
DOCKED: BRANCH  16  18
DOCKED: ATOM     18  C29 UNL     1      12.508  -4.182   3.183 +0.00 +0.00    +0.159 C  
DOCKED: BRANCH  18  19
DOCKED: ATOM     19  C33 UNL     1      13.245  -2.840   3.077 +0.00 +0.00    +0.234 C  
DOCKED: ATOM     20  O10 UNL     1      12.680  -1.759   3.250 +0.00 -0.00    -0.274 OA 
DOCKED: ATOM     21  N7  UNL     1      14.567  -2.943   2.722 +0.00 -0.00    -0.301 N  
DOCKED: ATOM     22  H56 UNL     1      14.903  -3.842   2.395 +0.00 +0.00    +0.150 HD 
DOCKED: BRANCH  21  23
DOCKED: ATOM     23  C34 UNL     1      15.351  -1.776   2.320 +0.00 +0.00    +0.186 C  
DOCKED: BRANCH  23  24
DOCKED: ATOM     24  C42 UNL     1      15.714  -0.981   3.577 +0.00 +0.00    +0.326 C  
DOCKED: ATOM     25  O11 UNL     1      15.591   0.224   3.734 +0.00 -0.00    -0.249 OA 
DOCKED: BRANCH  24  26
DOCKED: ATOM     26  O12 UNL     1      16.217  -1.744   4.566 +0.00 -0.00    -0.479 OA 
DOCKED: ATOM     27  H65 UNL     1      16.307  -2.628   4.152 +0.00 +0.00    +0.295 HD 
DOCKED: ENDBRANCH  24  26
DOCKED: ENDBRANCH  23  24
DOCKED: BRANCH  23  28
DOCKED: ATOM     28  C35 UNL     1      14.626  -0.912   1.285 +0.00 +0.00    +0.069 C  
DOCKED: BRANCH  28  29
DOCKED: ATOM     29  C36 UNL     1      14.334  -1.605  -0.025 +0.00 -0.00    -0.045 A  
DOCKED: ATOM     30  C37 UNL     1      13.213  -2.437  -0.165 +0.00 +0.00    +0.004 A  
DOCKED: ATOM     31  C38 UNL     1      12.968  -3.092  -1.372 +0.00 +0.00    +0.000 A  
DOCKED: ATOM     32  C39 UNL     1      13.827  -2.915  -2.452 +0.00 +0.00    +0.000 A  
DOCKED: ATOM     33  C40 UNL     1      14.932  -2.074  -2.333 +0.00 +0.00    +0.000 A  
DOCKED: ATOM     34  C41 UNL     1      15.184  -1.424  -1.126 +0.00 +0.00    +0.004 A  
DOCKED: ENDBRANCH  28  29
DOCKED: ENDBRANCH  23  28
DOCKED: ENDBRANCH  21  23
DOCKED: ENDBRANCH  18  19
DOCKED: BRANCH  18  35
DOCKED: ATOM     35  C30 UNL     1      12.730  -4.838   4.556 +0.00 +0.00    +0.043 C  
DOCKED: BRANCH  35  36
DOCKED: ATOM     36  C31 UNL     1      13.766  -5.961   4.550 +0.00 +0.00    +0.123 C  
DOCKED: BRANCH  36  37
DOCKED: ATOM     37  C32 UNL     1      15.008  -5.515   3.849 +0.00 +0.00    +0.305 C  
DOCKED: ATOM     38  O8  UNL     1      15.836  -4.739   4.294 +0.00 -0.00    -0.251 OA 
DOCKED: BRANCH  37  39
DOCKED: ATOM     39  O9  UNL     1      15.121  -6.025   2.610 +0.00 -0.00    -0.481 OA 
DOCKED: ATOM     40  H55 UNL     1      15.592  -5.340   2.100 +0.00 +0.00    +0.295 HD 
DOCKED: ENDBRANCH  37  39
DOCKED: ENDBRANCH  36  37
DOCKED: ENDBRANCH  35  36
DOCKED: ENDBRANCH  18  35
DOCKED: ENDBRANCH  16  18
DOCKED: ENDBRANCH  12  14
DOCKED: ENDBRANCH  10  12
DOCKED: ENDBRANCH   7   8
DOCKED: BRANCH   1  41
DOCKED: ATOM     41  C19 UNL     1      17.621  -3.622   0.089 +0.00 +0.00    +0.129 C  
DOCKED: BRANCH  41  42
DOCKED: ATOM     42  C18 UNL     1      18.166  -3.982   1.486 +0.00 +0.00    +0.143 C  
DOCKED: BRANCH  42  43
DOCKED: ATOM     43  O4  UNL     1      17.115  -3.746   2.454 +0.00 -0.00    -0.389 OA 
DOCKED: ATOM     44  H34 UNL     1      16.560  -4.562   2.483 +0.00 +0.00    +0.210 HD 
DOCKED: ENDBRANCH  42  43
DOCKED: BRANCH  42  45
DOCKED: ATOM     45  C13 UNL     1      18.676  -5.444   1.636 +0.00 +0.00    +0.102 C  
DOCKED: BRANCH  45  48
DOCKED: ATOM     46  C12 UNL     1      17.968  -7.589   2.724 +0.00 +0.00    +0.234 C  
DOCKED: ATOM     47  O3  UNL     1      19.118  -7.874   3.067 +0.00 -0.00    -0.274 OA 
DOCKED: ATOM     48  N3  UNL     1      17.658  -6.372   2.158 +0.00 -0.00    -0.308 N  
DOCKED: ATOM     49  H22 UNL     1      16.729  -6.312   1.727 +0.00 +0.00    +0.149 HD 
DOCKED: BRANCH  46  50
DOCKED: ATOM     50  C4  UNL     1      16.766  -8.551   2.919 +0.00 +0.00    +0.160 C  
DOCKED: BRANCH  50  51
DOCKED: ATOM     51  N1  UNL     1      16.667  -9.404   1.727 +0.00 -0.00    -0.302 N  
DOCKED: ATOM     52  C5  UNL     1      16.143  -8.886   0.566 +0.00 +0.00    +0.234 C  
DOCKED: ATOM     53  O1  UNL     1      15.611  -7.769   0.546 +0.00 -0.00    -0.274 OA 
DOCKED: ATOM     54  H9  UNL     1      17.355 -10.131   1.637 +0.00 +0.00    +0.150 HD 
DOCKED: BRANCH  52  55
DOCKED: ATOM     55  C6  UNL     1      16.136  -9.798  -0.692 +0.00 +0.00    +0.161 C  
DOCKED: BRANCH  55  56
DOCKED: ATOM     56  N2  UNL     1      14.857  -9.490  -1.342 +0.00 -0.00    -0.304 N  
DOCKED: ATOM     57  C7  UNL     1      13.957 -10.455  -1.713 +0.00 +0.00    +0.211 C  
DOCKED: ATOM     58  C8  UNL     1      12.651  -9.914  -2.232 +0.00 +0.00    +0.109 C  
DOCKED: ATOM     59  O2  UNL     1      14.203 -11.655  -1.684 +0.00 -0.00    -0.276 OA 
DOCKED: ATOM     60  H11 UNL     1      14.514  -8.544  -1.189 +0.00 +0.00    +0.149 HD 
DOCKED: ENDBRANCH  55  56
DOCKED: BRANCH  55  61
DOCKED: ATOM     61  C9  UNL     1      17.306  -9.668  -1.697 +0.00 +0.00    +0.012 C  
DOCKED: ATOM     62  C10 UNL     1      16.898  -9.674  -3.166 +0.00 +0.00    +0.009 C  
DOCKED: ATOM     63  C11 UNL     1      18.181  -8.447  -1.390 +0.00 +0.00    +0.009 C  
DOCKED: ENDBRANCH  55  61
DOCKED: ENDBRANCH  52  55
DOCKED: ENDBRANCH  50  51
DOCKED: BRANCH  50  64
DOCKED: ATOM     64  C3  UNL     1      16.899  -9.403   4.194 +0.00 +0.00    +0.042 C  
DOCKED: BRANCH  64  65
DOCKED: ATOM     65  C2  UNL     1      15.557  -9.945   4.706 +0.00 +0.00    +0.071 C  
DOCKED: BRANCH  65  67
DOCKED: ATOM     66  C1  UNL     1      13.815 -10.624   2.650 +0.00 +0.00    +0.084 C  
DOCKED: ATOM     67  S1  UNL     1      14.080  -9.294   3.852 +0.00 -0.00    -0.164 S  
DOCKED: ENDBRANCH  65  67
DOCKED: ENDBRANCH  64  65
DOCKED: ENDBRANCH  50  64
DOCKED: ENDBRANCH  46  50
DOCKED: ENDBRANCH  45  48
DOCKED: BRANCH  45  68
DOCKED: ATOM     68  C14 UNL     1      19.250  -6.003   0.306 +0.00 +0.00    +0.028 C  
DOCKED: BRANCH  68  69
DOCKED: ATOM     69  C15 UNL     1      20.721  -6.459   0.389 +0.00 -0.00    -0.015 C  
DOCKED: ATOM     70  C16 UNL     1      20.885  -7.979   0.515 +0.00 +0.00    +0.007 C  
DOCKED: ATOM     71  C17 UNL     1      21.414  -5.784   1.590 +0.00 +0.00    +0.007 C  
DOCKED: ENDBRANCH  68  69
DOCKED: ENDBRANCH  45  68
DOCKED: ENDBRANCH  42  45
DOCKED: ENDBRANCH  41  42
DOCKED: ENDBRANCH   1  41
DOCKED: TORSDOF 29
DOCKED: TER
DOCKED: ENDMDL
________________________________________________________________________________


    FINAL DOCKED STATE:
    ________________________


Run:   20 / 20
Time taken for this run:   5.123s

DOCKED: MODEL        20
DOCKED: USER    Run = 20
DOCKED: USER
DOCKED: USER    Estimated Free Energy of Binding    =  +8.65 kcal/mol  [=(1)+(2)+(3)-(4)]
DOCKED: USER
DOCKED: USER    (1) Final Intermolecular Energy     =  +0.00 kcal/mol
DOCKED: USER        vdW + Hbond + desolv Energy     =  +0.00 kcal/mol
DOCKED: USER        Electrostatic Energy            =  +0.00 kcal/mol
DOCKED: USER        Moving Ligand-Fixed Receptor    =  +0.00 kcal/mol
DOCKED: USER        Moving Ligand-Moving Receptor   =  +0.00 kcal/mol
DOCKED: USER    (2) Final Total Internal Energy     = -23.28 kcal/mol
DOCKED: USER    (3) Torsional Free Energy           =  +8.65 kcal/mol
DOCKED: USER    (4) Unbound System's Energy         = -23.28 kcal/mol
DOCKED: USER
DOCKED: USER
DOCKED: REMARK  Name = ligands/ligand_41.pdb
DOCKED: REMARK  36 active torsions:
DOCKED: REMARK  status: ('A' for Active; 'I' for Inactive)
DOCKED: REMARK    1  A    between atoms: C1_1  and  S1_2
DOCKED: REMARK    2  A    between atoms: S1_2  and  C2_3
DOCKED: REMARK    3  A    between atoms: C2_3  and  C3_4
DOCKED: REMARK    4  A    between atoms: C3_4  and  C4_5
DOCKED: REMARK    5  A    between atoms: C4_5  and  N1_6
DOCKED: REMARK    6  A    between atoms: C4_5  and  C12_17
DOCKED: REMARK    7  A    between atoms: C5_7  and  C6_9
DOCKED: REMARK    8  A    between atoms: C6_9  and  N2_10
DOCKED: REMARK    9  A    between atoms: C6_9  and  C9_14
DOCKED: REMARK   10  A    between atoms: C7_11  and  C8_12
DOCKED: REMARK   11  A    between atoms: C9_14  and  C10_15
DOCKED: REMARK   12  A    between atoms: C9_14  and  C11_16
DOCKED: REMARK   13  A    between atoms: N3_19  and  C13_20
DOCKED: REMARK   14  A    between atoms: C13_20  and  C14_21
DOCKED: REMARK   15  A    between atoms: C13_20  and  C18_25
DOCKED: REMARK   16  A    between atoms: C14_21  and  C15_22
DOCKED: REMARK   17  A    between atoms: C15_22  and  C16_23
DOCKED: REMARK   18  A    between atoms: C15_22  and  C17_24
DOCKED: REMARK   19  A    between atoms: C18_25  and  O4_26
DOCKED: REMARK   20  A    between atoms: C18_25  and  C19_27
DOCKED: REMARK   21  A    between atoms: C19_27  and  C20_28
DOCKED: REMARK   22  A    between atoms: C24_34  and  C25_35
DOCKED: REMARK   23  A    between atoms: N5_37  and  C26_38
DOCKED: REMARK   24  A    between atoms: C26_38  and  C27_39
DOCKED: REMARK   25  A    between atoms: C26_38  and  C28_40
DOCKED: REMARK   26  A    between atoms: N6_42  and  C29_43
DOCKED: REMARK   27  A    between atoms: C29_43  and  C30_44
DOCKED: REMARK   28  A    between atoms: C29_43  and  C33_49
DOCKED: REMARK   29  A    between atoms: C30_44  and  C31_45
DOCKED: REMARK   30  A    between atoms: C31_45  and  C32_46
DOCKED: REMARK   31  A    between atoms: C32_46  and  O9_48
DOCKED: REMARK   32  A    between atoms: N7_51  and  C34_52
DOCKED: REMARK   33  A    between atoms: C34_52  and  C35_53
DOCKED: REMARK   34  A    between atoms: C34_52  and  C42_60
DOCKED: REMARK   35  A    between atoms: C35_53  and  C36_54
DOCKED: REMARK   36  A    between atoms: C42_60  and  O12_62
DOCKED: REMARK                            x       y       z     vdW  Elec       q    Type
DOCKED: REMARK                         _______ _______ _______ _____ _____    ______ ____
DOCKED: USER                              x       y       z     vdW  Elec       q    Type
DOCKED: USER                           _______ _______ _______ _____ _____    ______ ____
DOCKED: ROOT
DOCKED: ATOM      1  C20 UNL     1      11.336 -11.358  -0.084 +0.00 +0.00    +0.219 C  
DOCKED: ATOM      2  O5  UNL     1      11.038 -10.181  -0.299 +0.00 -0.00    -0.275 OA 
DOCKED: ATOM      3  N4  UNL     1      12.491 -11.888  -0.634 +0.00 -0.00    -0.290 N  
DOCKED: ATOM      4  C21 UNL     1      12.925 -13.266  -0.444 +0.00 +0.00    +0.108 C  
DOCKED: ATOM      5  C22 UNL     1      13.798 -13.613  -1.643 +0.00 +0.00    +0.021 C  
DOCKED: ATOM      6  C23 UNL     1      14.200 -12.268  -2.207 +0.00 +0.00    +0.033 C  
DOCKED: ATOM      7  C24 UNL     1      13.016 -11.349  -1.897 +0.00 +0.00    +0.162 C  
DOCKED: ENDROOT
DOCKED: BRANCH   7   8
DOCKED: ATOM      8  C25 UNL     1      13.541  -9.892  -2.081 +0.00 +0.00    +0.234 C  
DOCKED: ATOM      9  O6  UNL     1      14.594  -9.675  -2.684 +0.00 -0.00    -0.274 OA 
DOCKED: ATOM     10  N5  UNL     1      12.732  -8.884  -1.609 +0.00 -0.00    -0.303 N  
DOCKED: ATOM     11  H44 UNL     1      11.758  -9.191  -1.538 +0.00 +0.00    +0.149 HD 
DOCKED: BRANCH  10  12
DOCKED: ATOM     12  C26 UNL     1      12.828  -7.508  -2.107 +0.00 +0.00    +0.156 C  
DOCKED: ATOM     13  C27 UNL     1      12.355  -7.304  -3.541 +0.00 +0.00    +0.038 C  
DOCKED: BRANCH  12  14
DOCKED: ATOM     14  C28 UNL     1      12.175  -6.556  -1.070 +0.00 +0.00    +0.234 C  
DOCKED: ATOM     15  O7  UNL     1      12.529  -5.388  -0.911 +0.00 -0.00    -0.274 OA 
DOCKED: ATOM     16  N6  UNL     1      11.069  -7.060  -0.409 +0.00 -0.00    -0.302 N  
DOCKED: ATOM     17  H49 UNL     1      11.147  -8.032  -0.128 +0.00 +0.00    +0.150 HD 
DOCKED: BRANCH  16  18
DOCKED: ATOM     18  C29 UNL     1      10.391  -6.182   0.541 +0.00 +0.00    +0.159 C  
DOCKED: BRANCH  18  19
DOCKED: ATOM     19  C33 UNL     1      10.182  -6.919   1.871 +0.00 +0.00    +0.234 C  
DOCKED: ATOM     20  O10 UNL     1      10.370  -6.381   2.963 +0.00 -0.00    -0.274 OA 
DOCKED: ATOM     21  N7  UNL     1       9.822  -8.237   1.740 +0.00 -0.00    -0.301 N  
DOCKED: ATOM     22  H56 UNL     1       9.890  -8.660   0.822 +0.00 +0.00    +0.150 HD 
DOCKED: BRANCH  21  23
DOCKED: ATOM     23  C34 UNL     1       9.836  -9.157   2.877 +0.00 +0.00    +0.186 C  
DOCKED: BRANCH  23  24
DOCKED: ATOM     24  C42 UNL     1       8.616  -8.863   3.754 +0.00 +0.00    +0.326 C  
DOCKED: ATOM     25  O11 UNL     1       8.615  -8.701   4.965 +0.00 -0.00    -0.249 OA 
DOCKED: BRANCH  24  26
DOCKED: ATOM     26  O12 UNL     1       7.465  -8.792   3.060 +0.00 -0.00    -0.479 OA 
DOCKED: ATOM     27  H65 UNL     1       7.726  -9.049   2.151 +0.00 +0.00    +0.295 HD 
DOCKED: ENDBRANCH  24  26
DOCKED: ENDBRANCH  23  24
DOCKED: BRANCH  23  28
DOCKED: ATOM     28  C35 UNL     1      11.143  -9.086   3.671 +0.00 +0.00    +0.069 C  
DOCKED: BRANCH  28  29
DOCKED: ATOM     29  C36 UNL     1      12.382  -9.452   2.887 +0.00 -0.00    -0.045 A  
DOCKED: ATOM     30  C37 UNL     1      13.021  -8.508   2.069 +0.00 +0.00    +0.004 A  
DOCKED: ATOM     31  C38 UNL     1      14.148  -8.866   1.329 +0.00 +0.00    +0.000 A  
DOCKED: ATOM     32  C39 UNL     1      14.656 -10.159   1.408 +0.00 +0.00    +0.000 A  
DOCKED: ATOM     33  C40 UNL     1      14.044 -11.100   2.234 +0.00 +0.00    +0.000 A  
DOCKED: ATOM     34  C41 UNL     1      12.913 -10.748   2.968 +0.00 +0.00    +0.004 A  
DOCKED: ENDBRANCH  28  29
DOCKED: ENDBRANCH  23  28
DOCKED: ENDBRANCH  21  23
DOCKED: ENDBRANCH  18  19
DOCKED: BRANCH  18  35
DOCKED: ATOM     35  C30 UNL     1       9.063  -5.649  -0.020 +0.00 +0.00    +0.043 C  
DOCKED: BRANCH  35  36
DOCKED: ATOM     36  C31 UNL     1       8.472  -6.501  -1.142 +0.00 +0.00    +0.123 C  
DOCKED: BRANCH  36  37
DOCKED: ATOM     37  C32 UNL     1       8.484  -7.944  -0.755 +0.00 +0.00    +0.305 C  
DOCKED: ATOM     38  O8  UNL     1       7.735  -8.471   0.049 +0.00 -0.00    -0.251 OA 
DOCKED: BRANCH  37  39
DOCKED: ATOM     39  O9  UNL     1       9.464  -8.640  -1.359 +0.00 -0.00    -0.481 OA 
DOCKED: ATOM     40  H55 UNL     1       9.709  -9.334  -0.718 +0.00 +0.00    +0.295 HD 
DOCKED: ENDBRANCH  37  39
DOCKED: ENDBRANCH  36  37
DOCKED: ENDBRANCH  35  36
DOCKED: ENDBRANCH  18  35
DOCKED: ENDBRANCH  16  18
DOCKED: ENDBRANCH  12  14
DOCKED: ENDBRANCH  10  12
DOCKED: ENDBRANCH   7   8
DOCKED: BRANCH   1  41
DOCKED: ATOM     41  C19 UNL     1      10.481 -12.191   0.859 +0.00 +0.00    +0.129 C  
DOCKED: BRANCH  41  42
DOCKED: ATOM     42  C18 UNL     1       8.984 -11.927   0.599 +0.00 +0.00    +0.143 C  
DOCKED: BRANCH  42  43
DOCKED: ATOM     43  O4  UNL     1       8.712 -10.537   0.902 +0.00 -0.00    -0.389 OA 
DOCKED: ATOM     44  H34 UNL     1       8.907 -10.019   0.085 +0.00 +0.00    +0.210 HD 
DOCKED: ENDBRANCH  42  43
DOCKED: BRANCH  42  45
DOCKED: ATOM     45  C13 UNL     1       8.506 -12.234  -0.850 +0.00 +0.00    +0.102 C  
DOCKED: BRANCH  45  48
DOCKED: ATOM     46  C12 UNL     1       7.810 -10.986  -2.910 +0.00 +0.00    +0.234 C  
DOCKED: ATOM     47  O3  UNL     1       6.901 -11.779  -3.167 +0.00 -0.00    -0.274 OA 
DOCKED: ATOM     48  N3  UNL     1       8.533 -11.060  -1.740 +0.00 -0.00    -0.308 N  
DOCKED: ATOM     49  H22 UNL     1       9.387 -10.493  -1.715 +0.00 +0.00    +0.149 HD 
DOCKED: BRANCH  46  50
DOCKED: ATOM     50  C4  UNL     1       8.209  -9.825  -3.859 +0.00 +0.00    +0.160 C  
DOCKED: BRANCH  50  51
DOCKED: ATOM     51  N1  UNL     1       9.238 -10.322  -4.783 +0.00 -0.00    -0.302 N  
DOCKED: ATOM     52  C5  UNL     1      10.532 -10.465  -4.339 +0.00 +0.00    +0.234 C  
DOCKED: ATOM     53  O1  UNL     1      10.880 -10.039  -3.231 +0.00 -0.00    -0.274 OA 
DOCKED: ATOM     54  H9  UNL     1       8.927 -10.946  -5.506 +0.00 +0.00    +0.150 HD 
DOCKED: BRANCH  52  55
DOCKED: ATOM     55  C6  UNL     1      11.568 -11.075  -5.324 +0.00 +0.00    +0.161 C  
DOCKED: BRANCH  55  56
DOCKED: ATOM     56  N2  UNL     1      12.793 -10.308  -5.065 +0.00 -0.00    -0.304 N  
DOCKED: ATOM     57  C7  UNL     1      13.484  -9.651  -6.048 +0.00 +0.00    +0.211 C  
DOCKED: ATOM     58  C8  UNL     1      14.628  -8.811  -5.543 +0.00 +0.00    +0.109 C  
DOCKED: ATOM     59  O2  UNL     1      13.240  -9.774  -7.242 +0.00 -0.00    -0.276 OA 
DOCKED: ATOM     60  H11 UNL     1      12.908  -9.996  -4.103 +0.00 +0.00    +0.149 HD 
DOCKED: ENDBRANCH  55  56
DOCKED: BRANCH  55  61
DOCKED: ATOM     61  C9  UNL     1      11.847 -12.596  -5.245 +0.00 +0.00    +0.012 C  
DOCKED: ATOM     62  C10 UNL     1      13.316 -12.988  -5.355 +0.00 +0.00    +0.009 C  
DOCKED: ATOM     63  C11 UNL     1      11.218 -13.220  -3.995 +0.00 +0.00    +0.009 C  
DOCKED: ENDBRANCH  55  61
DOCKED: ENDBRANCH  52  55
DOCKED: ENDBRANCH  50  51
DOCKED: BRANCH  50  64
DOCKED: ATOM     64  C3  UNL     1       7.004  -9.261  -4.633 +0.00 +0.00    +0.042 C  
DOCKED: BRANCH  64  65
DOCKED: ATOM     65  C2  UNL     1       7.200  -7.808  -5.089 +0.00 +0.00    +0.071 C  
DOCKED: BRANCH  65  67
DOCKED: ATOM     66  C1  UNL     1       9.802  -7.346  -5.948 +0.00 +0.00    +0.084 C  
DOCKED: ATOM     67  S1  UNL     1       8.741  -7.014  -4.516 +0.00 -0.00    -0.164 S  
DOCKED: ENDBRANCH  65  67
DOCKED: ENDBRANCH  64  65
DOCKED: ENDBRANCH  50  64
DOCKED: ENDBRANCH  46  50
DOCKED: ENDBRANCH  45  48
DOCKED: BRANCH  45  68
DOCKED: ATOM     68  C14 UNL     1       9.311 -13.391  -1.499 +0.00 +0.00    +0.028 C  
DOCKED: BRANCH  68  69
DOCKED: ATOM     69  C15 UNL     1       8.449 -14.580  -1.972 +0.00 -0.00    -0.015 C  
DOCKED: ATOM     70  C16 UNL     1       8.198 -14.592  -3.485 +0.00 +0.00    +0.007 C  
DOCKED: ATOM     71  C17 UNL     1       7.089 -14.566  -1.244 +0.00 +0.00    +0.007 C  
DOCKED: ENDBRANCH  68  69
DOCKED: ENDBRANCH  45  68
DOCKED: ENDBRANCH  42  45
DOCKED: ENDBRANCH  41  42
DOCKED: ENDBRANCH   1  41
DOCKED: TORSDOF 29
DOCKED: TER
DOCKED: ENDMDL
________________________________________________________________________________


    CLUSTERING HISTOGRAM
    ____________________


________________________________________________________________________________
     |           |     |           |     |
Clus | Lowest    | Run | Mean      | Num | Histogram
-ter | Binding   |     | Binding   | in  |
Rank | Energy    |     | Energy    | Clus|    5    10   15   20   25   30   35
_____|___________|_____|___________|_____|____:____|____:____|____:____|____:___
   1 |     +8.65 |   1 |     +8.65 |   1 |#
   2 |     +8.65 |   2 |     +8.65 |   1 |#
   3 |     +8.65 |   3 |     +8.65 |   1 |#
   4 |     +8.65 |   4 |     +8.65 |   1 |#
   5 |     +8.65 |   5 |     +8.65 |   1 |#
   6 |     +8.65 |   6 |     +8.65 |   1 |#
   7 |     +8.65 |   7 |     +8.65 |   1 |#
   8 |     +8.65 |   8 |     +8.65 |   1 |#
   9 |     +8.65 |   9 |     +8.65 |   1 |#
  10 |     +8.65 |  10 |     +8.65 |   1 |#
  11 |     +8.65 |  11 |     +8.65 |   1 |#
  12 |     +8.65 |  12 |     +8.65 |   1 |#
  13 |     +8.65 |  13 |     +8.65 |   1 |#
  14 |     +8.65 |  14 |     +8.65 |   1 |#
  15 |     +8.65 |  15 |     +8.65 |   1 |#
  16 |     +8.65 |  16 |     +8.65 |   1 |#
  17 |     +8.65 |  17 |     +8.65 |   1 |#
  18 |     +8.65 |  18 |     +8.65 |   1 |#
  19 |     +8.65 |  19 |     +8.65 |   1 |#
  20 |     +8.65 |  20 |     +8.65 |   1 |#
_____|___________|_____|___________|_____|______________________________________


    RMSD TABLE
    __________


_______________________________________________________________________
     |      |      |           |         |                 |
Rank | Sub- | Run  | Binding   | Cluster | Reference       | Grep
     | Rank |      | Energy    | RMSD    | RMSD            | Pattern
_____|______|______|___________|_________|_________________|___________
   1      1      1       +8.65      0.00     11.09           RANKING
   2      1      2       +8.65      0.00      7.75           RANKING
   3      1      3       +8.65      0.00     10.83           RANKING
   4      1      4       +8.65      0.00      7.98           RANKING
   5      1      5       +8.65      0.00     11.85           RANKING
   6      1      6       +8.65      0.00      8.52           RANKING
   7      1      7       +8.65      0.00      8.96           RANKING
   8      1      8       +8.65      0.00     10.25           RANKING
   9      1      9       +8.65      0.00      9.70           RANKING
  10      1     10       +8.65      0.00     10.42           RANKING
  11      1     11       +8.65      0.00      6.15           RANKING
  12      1     12       +8.65      0.00      7.54           RANKING
  13      1     13       +8.65      0.00      8.82           RANKING
  14      1     14       +8.65      0.00      7.04           RANKING
  15      1     15       +8.65      0.00      4.41           RANKING
  16      1     16       +8.65      0.00      4.71           RANKING
  17      1     17       +8.65      0.00     11.01           RANKING
  18      1     18       +8.65      0.00      9.88           RANKING
  19      1     19       +8.65      0.00     10.06           RANKING
  20      1     20       +8.65      0.00     10.88           RANKING

Run time 103.262 sec
Idle time 0.294 sec
