REMARK  Name = ligands/ligand_42.pdb
REMARK  94 active torsions:
REMARK  status: ('A' for Active; 'I' for Inactive)
REMARK    1  A    between atoms: C1_1  and  C2_2
REMARK    2  A    between atoms: C2_2  and  C3_3
REMARK    3  A    between atoms: C3_3  and  C4_4
REMARK    4  A    between atoms: C3_3  and  C5_5
REMARK    5  A    between atoms: C5_5  and  N1_6
REMARK    6  A    between atoms: C5_5  and  C40_64
REMARK    7  A    between atoms: C6_7  and  C7_9
REMARK    8  A    between atoms: C7_9  and  C8_10
REMARK    9  A    between atoms: C7_9  and  N2_15
REMARK   10  A    between atoms: C8_10  and  C9_11
REMARK   11  A    between atoms: C9_11  and  C10_12
REMARK   12  A    between atoms: C10_12  and  O3_14
REMARK   13  A    between atoms: C11_16  and  C12_18
REMARK   14  A    between atoms: C12_18  and  C13_19
REMARK   15  A    between atoms: C12_18  and  N3_24
REMARK   16  A    between atoms: C13_19  and  C14_20
REMARK   17  A    between atoms: C14_20  and  C15_21
REMARK   18  A    between atoms: C15_21  and  O6_23
REMARK   19  A    between atoms: C16_25  and  C17_27
REMARK   20  A    between atoms: C17_27  and  N4_28
REMARK   21  A    between atoms: C17_27  and  C38_61
REMARK   22  A    between atoms: C18_29  and  C19_31
REMARK   23  A    between atoms: C19_31  and  C20_32
REMARK   24  A    between atoms: C19_31  and  N6_37
REMARK   25  A    between atoms: C20_32  and  C21_33
REMARK   26  A    between atoms: C21_33  and  C22_34
REMARK   27  A    between atoms: C22_34  and  C23_35
REMARK   28  A    between atoms: C23_35  and  N5_36
REMARK   29  A    between atoms: C24_38  and  C25_40
REMARK   30  A    between atoms: C25_40  and  N7_41
REMARK   31  A    between atoms: C25_40  and  C34_57
REMARK   32  A    between atoms: C26_42  and  C27_44
REMARK   33  A    between atoms: C27_44  and  C28_45
REMARK   34  A    between atoms: C27_44  and  N9_49
REMARK   35  A    between atoms: C28_45  and  C29_46
REMARK   36  A    between atoms: C30_50  and  C31_52
REMARK   37  A    between atoms: C31_52  and  N10_53
REMARK   38  A    between atoms: C31_52  and  C32_54
REMARK   39  A    between atoms: C32_54  and  C33_55
REMARK   40  A    between atoms: C32_54  and  O13_56
REMARK   41  A    between atoms: C34_57  and  C35_58
REMARK   42  A    between atoms: C34_57  and  C36_59
REMARK   43  A    between atoms: C36_59  and  C37_60
REMARK   44  A    between atoms: C38_61  and  C39_62
REMARK   45  A    between atoms: C38_61  and  O14_63
REMARK   46  A    between atoms: N11_66  and  C41_67
REMARK   47  A    between atoms: C41_67  and  C42_68
REMARK   48  A    between atoms: C41_67  and  C43_70
REMARK   49  A    between atoms: C42_68  and  O16_69
REMARK   50  A    between atoms: N12_72  and  C44_73
REMARK   51  A    between atoms: C44_73  and  C45_74
REMARK   52  A    between atoms: C44_73  and  C48_79
REMARK   53  A    between atoms: C45_74  and  C46_75
REMARK   54  A    between atoms: C46_75  and  C47_76
REMARK   55  A    between atoms: C47_76  and  O19_78
REMARK   56  A    between atoms: N13_81  and  C49_82
REMARK   57  A    between atoms: C49_82  and  C50_83
REMARK   58  A    between atoms: C49_82  and  C87_145
REMARK   59  A    between atoms: N14_85  and  C51_86
REMARK   60  A    between atoms: C51_86  and  C52_87
REMARK   61  A    between atoms: C51_86  and  C54_91
REMARK   62  A    between atoms: C52_87  and  C53_88
REMARK   63  A    between atoms: N16_93  and  C55_94
REMARK   64  A    between atoms: C55_94  and  C56_95
REMARK   65  A    between atoms: C55_94  and  C84_142
REMARK   66  A    between atoms: N17_97  and  C57_98
REMARK   67  A    between atoms: C57_98  and  C58_99
REMARK   68  A    between atoms: C57_98  and  C60_103
REMARK   69  A    between atoms: C58_99  and  C59_100
REMARK   70  A    between atoms: C59_100  and  O26_102
REMARK   71  A    between atoms: N18_105  and  C61_106
REMARK   72  A    between atoms: C61_106  and  C62_107
REMARK   73  A    between atoms: C61_106  and  C63_108
REMARK   74  A    between atoms: N19_110  and  C64_111
REMARK   75  A    between atoms: C64_111  and  C65_112
REMARK   76  A    between atoms: C64_111  and  C68_117
REMARK   77  A    between atoms: C65_112  and  C66_113
REMARK   78  A    between atoms: C66_113  and  C67_114
REMARK   79  A    between atoms: C67_114  and  O30_116
REMARK   80  A    between atoms: N20_119  and  C69_120
REMARK   81  A    between atoms: C69_120  and  C70_121
REMARK   82  A    between atoms: C69_120  and  C77_128
REMARK   83  A    between atoms: C70_121  and  C71_122
REMARK   84  A    between atoms: N21_130  and  C78_131
REMARK   85  A    between atoms: C78_131  and  C79_132
REMARK   86  A    between atoms: C78_131  and  C83_139
REMARK   87  A    between atoms: C79_132  and  C80_133
REMARK   88  A    between atoms: C80_133  and  C81_134
REMARK   89  A    between atoms: C81_134  and  N22_135
REMARK   90  A    between atoms: C83_139  and  O34_141
REMARK   91  A    between atoms: C84_142  and  C85_143
REMARK   92  A    between atoms: C84_142  and  C86_144
REMARK   93  A    between atoms: C87_145  and  C88_146
REMARK   94  A    between atoms: C87_145  and  C89_147
REMARK                            x       y       z     vdW  Elec       q    Type
REMARK                         _______ _______ _______ _____ _____    ______ ____
ROOT
ATOM      1  C44 UNL     1       3.628   6.500  -1.840  0.00  0.00    +0.159 C 
ENDROOT
BRANCH   1   4
ATOM      2  C43 UNL     1       2.704   6.297   0.427  0.00  0.00    +0.236 C 
ATOM      3  O17 UNL     1       2.910   7.481   0.691  0.00  0.00    -0.274 OA
ATOM      4  N12 UNL     1       3.211   5.682  -0.701  0.00  0.00    -0.302 N 
ATOM      5  H75 UNL     1       2.815   4.773  -0.957  0.00  0.00    +0.150 HD
BRANCH   2   6
ATOM      6  C41 UNL     1       1.821   5.411   1.319  0.00  0.00    +0.184 C 
BRANCH   6   9
ATOM      7  C40 UNL     1       3.130   4.243   3.077  0.00  0.00    +0.234 C 
ATOM      8  O15 UNL     1       3.295   3.237   2.391  0.00  0.00    -0.274 OA
ATOM      9  N11 UNL     1       2.416   5.332   2.646  0.00  0.00    -0.301 N 
ATOM     10  H70 UNL     1       2.274   6.136   3.246  0.00  0.00    +0.150 HD
BRANCH   7  11
ATOM     11  C5  UNL     1       3.726   4.393   4.498  0.00  0.00    +0.162 C 
BRANCH  11  12
ATOM     12  N1  UNL     1       3.925   3.059   5.064  0.00  0.00    -0.302 N 
ATOM     13  C6  UNL     1       3.598   2.818   6.381  0.00  0.00    +0.234 C 
ATOM     14  O1  UNL     1       3.392   3.732   7.181  0.00  0.00    -0.274 OA
ATOM     15  H11 UNL     1       3.744   2.290   4.428  0.00  0.00    +0.150 HD
BRANCH  13  16
ATOM     16  C7  UNL     1       3.687   1.349   6.858  0.00  0.00    +0.159 C 
BRANCH  16  17
ATOM     17  N2  UNL     1       3.644   0.322   5.796  0.00  0.00    -0.302 N 
ATOM     18  C11 UNL     1       2.530   0.172   4.983  0.00  0.00    +0.234 C 
ATOM     19  O4  UNL     1       1.685   1.052   4.866  0.00  0.00    -0.274 OA
ATOM     20  H18 UNL     1       4.072  -0.554   6.063  0.00  0.00    +0.150 HD
BRANCH  18  21
ATOM     21  C12 UNL     1       2.496  -1.180   4.207  0.00  0.00    +0.159 C 
BRANCH  21  22
ATOM     22  N3  UNL     1       1.337  -1.289   3.330  0.00  0.00    -0.302 N 
ATOM     23  C16 UNL     1       0.071  -1.458   3.859  0.00  0.00    +0.236 C 
ATOM     24  O7  UNL     1      -0.114  -1.613   5.067  0.00  0.00    -0.274 OA
ATOM     25  H25 UNL     1       1.441  -0.969   2.373  0.00  0.00    +0.150 HD
BRANCH  23  26
ATOM     26  C17 UNL     1      -1.092  -1.530   2.838  0.00  0.00    +0.187 C 
BRANCH  26  27
ATOM     27  N4  UNL     1      -2.369  -1.600   3.566  0.00  0.00    -0.300 N 
ATOM     28  C18 UNL     1      -2.926  -2.811   3.916  0.00  0.00    +0.234 C 
ATOM     29  O8  UNL     1      -2.395  -3.881   3.616  0.00  0.00    -0.274 OA
ATOM     30  H27 UNL     1      -2.460  -0.862   4.255  0.00  0.00    +0.150 HD
BRANCH  28  31
ATOM     31  C19 UNL     1      -4.327  -2.745   4.611  0.00  0.00    +0.159 C 
BRANCH  31  32
ATOM     32  N6  UNL     1      -4.468  -3.911   5.486  0.00  0.00    -0.302 N 
ATOM     33  C24 UNL     1      -4.910  -5.120   5.005  0.00  0.00    +0.234 C 
ATOM     34  O9  UNL     1      -5.362  -5.247   3.865  0.00  0.00    -0.274 OA
ATOM     35  H39 UNL     1      -3.865  -3.915   6.297  0.00  0.00    +0.150 HD
BRANCH  33  36
ATOM     36  C25 UNL     1      -4.943  -6.305   6.013  0.00  0.00    +0.162 C 
BRANCH  36  37
ATOM     37  N7  UNL     1      -5.083  -7.512   5.190  0.00  0.00    -0.302 N 
ATOM     38  C26 UNL     1      -5.941  -8.533   5.526  0.00  0.00    +0.234 C 
ATOM     39  O10 UNL     1      -6.553  -8.556   6.592  0.00  0.00    -0.274 OA
ATOM     40  H41 UNL     1      -4.628  -7.493   4.283  0.00  0.00    +0.150 HD
BRANCH  38  41
ATOM     41  C27 UNL     1      -6.056  -9.648   4.467  0.00  0.00    +0.168 C 
BRANCH  41  42
ATOM     42  N9  UNL     1      -6.947 -10.682   4.963  0.00  0.00    -0.302 N 
ATOM     43  C30 UNL     1      -7.082 -11.912   4.369  0.00  0.00    +0.233 C 
ATOM     44  O12 UNL     1      -6.325 -12.312   3.482  0.00  0.00    -0.274 OA
ATOM     45  H47 UNL     1      -7.671 -10.422   5.636  0.00  0.00    +0.150 HD
BRANCH  43  46
ATOM     46  C31 UNL     1      -8.249 -12.761   4.924  0.00  0.00    +0.166 C 
BRANCH  46  47
ATOM     47  N10 UNL     1      -9.227 -11.889   5.624  0.00  0.00    -0.318 NA
ATOM     48  H49 UNL     1     -10.001 -12.457   5.960  0.00  0.00    +0.119 HD
ATOM     49  H50 UNL     1      -9.637 -11.232   4.953  0.00  0.00    +0.119 HD
ENDBRANCH  46  47
BRANCH  46  50
ATOM     50  C32 UNL     1      -8.878 -13.625   3.803  0.00  0.00    +0.137 C 
ATOM     51  C33 UNL     1      -9.434 -12.828   2.625  0.00  0.00    +0.040 C 
BRANCH  50  52
ATOM     52  O13 UNL     1      -7.942 -14.587   3.309  0.00  0.00    -0.390 OA
ATOM     53  H55 UNL     1      -7.161 -14.084   2.992  0.00  0.00    +0.210 HD
ENDBRANCH  50  52
ENDBRANCH  46  50
ENDBRANCH  43  46
ENDBRANCH  41  42
BRANCH  41  54
ATOM     54  C28 UNL     1      -6.494  -9.085   3.111  0.00  0.00    +0.127 C 
BRANCH  54  55
ATOM     55  C29 UNL     1      -7.723  -8.212   3.241  0.00  0.00    +0.213 C 
ATOM     56  N8  UNL     1      -7.559  -6.903   2.882  0.00  0.00    -0.329 N 
ATOM     57  O11 UNL     1      -8.806  -8.635   3.632  0.00  0.00    -0.276 OA
ATOM     58  H45 UNL     1      -8.328  -6.283   3.096  0.00  0.00    +0.145 HD
ATOM     59  H46 UNL     1      -6.639  -6.457   2.865  0.00  0.00    +0.145 HD
ENDBRANCH  54  55
ENDBRANCH  41  54
ENDBRANCH  38  41
ENDBRANCH  36  37
BRANCH  36  60
ATOM     60  C34 UNL     1      -3.760  -6.509   6.988  0.00  0.00    +0.015 C 
ATOM     61  C35 UNL     1      -2.392  -6.261   6.341  0.00  0.00    +0.010 C 
BRANCH  60  62
ATOM     62  C36 UNL     1      -3.971  -5.740   8.310  0.00  0.00    +0.002 C 
ATOM     63  C37 UNL     1      -2.880  -5.996   9.340  0.00  0.00    +0.004 C 
ENDBRANCH  60  62
ENDBRANCH  36  60
ENDBRANCH  33  36
ENDBRANCH  31  32
BRANCH  31  64
ATOM     64  C20 UNL     1      -4.604  -1.470   5.431  0.00  0.00    +0.032 C 
BRANCH  64  65
ATOM     65  C21 UNL     1      -5.212  -0.351   4.577  0.00  0.00    +0.003 C 
BRANCH  65  66
ATOM     66  C22 UNL     1      -5.432   0.923   5.399  0.00  0.00    +0.015 C 
BRANCH  66  67
ATOM     67  C23 UNL     1      -6.104   2.013   4.562  0.00  0.00    +0.077 C 
BRANCH  67  68
ATOM     68  N5  UNL     1      -6.349   3.195   5.374  0.00  0.00    -0.330 NA
ATOM     69  H37 UNL     1      -6.716   3.945   4.784  0.00  0.00    +0.118 HD
ATOM     70  H38 UNL     1      -5.473   3.547   5.761  0.00  0.00    +0.118 HD
ENDBRANCH  67  68
ENDBRANCH  66  67
ENDBRANCH  65  66
ENDBRANCH  64  65
ENDBRANCH  31  64
ENDBRANCH  28  31
ENDBRANCH  26  27
BRANCH  26  71
ATOM     71  C38 UNL     1      -1.139  -0.331   1.867  0.00  0.00    +0.141 C 
ATOM     72  C39 UNL     1      -2.130  -0.577   0.726  0.00  0.00    +0.040 C 
BRANCH  71  73
ATOM     73  O14 UNL     1      -1.529   0.873   2.536  0.00  0.00    -0.390 OA
ATOM     74  H69 UNL     1      -2.483   0.826   2.708  0.00  0.00    +0.210 HD
ENDBRANCH  71  73
ENDBRANCH  26  71
ENDBRANCH  23  26
ENDBRANCH  21  22
BRANCH  21  75
ATOM     75  C13 UNL     1       3.806  -1.435   3.434  0.00  0.00    +0.043 C 
BRANCH  75  76
ATOM     76  C14 UNL     1       4.184  -0.332   2.437  0.00  0.00    +0.123 C 
BRANCH  76  77
ATOM     77  C15 UNL     1       3.736  -0.668   1.041  0.00  0.00    +0.305 C 
ATOM     78  O5  UNL     1       2.581  -0.903   0.707  0.00  0.00    -0.251 OA
BRANCH  77  79
ATOM     79  O6  UNL     1       4.763  -0.701   0.176  0.00  0.00    -0.481 OA
ATOM     80  H24 UNL     1       4.428  -0.957  -0.719  0.00  0.00    +0.295 HD
ENDBRANCH  77  79
ENDBRANCH  76  77
ENDBRANCH  75  76
ENDBRANCH  21  75
ENDBRANCH  18  21
ENDBRANCH  16  17
BRANCH  16  81
ATOM     81  C8  UNL     1       5.004   1.144   7.633  0.00  0.00    +0.043 C 
BRANCH  81  82
ATOM     82  C9  UNL     1       5.132   1.948   8.930  0.00  0.00    +0.123 C 
BRANCH  82  83
ATOM     83  C10 UNL     1       6.430   1.622   9.626  0.00  0.00    +0.305 C 
ATOM     84  O2  UNL     1       7.252   0.786   9.292  0.00  0.00    -0.251 OA
BRANCH  83  85
ATOM     85  O3  UNL     1       6.626   2.379  10.721  0.00  0.00    -0.481 OA
ATOM     86  H17 UNL     1       7.508   2.101  11.053  0.00  0.00    +0.295 HD
ENDBRANCH  83  85
ENDBRANCH  82  83
ENDBRANCH  81  82
ENDBRANCH  16  81
ENDBRANCH  13  16
ENDBRANCH  11  12
BRANCH  11  87
ATOM     87  C3  UNL     1       5.045   5.206   4.529  0.00  0.00    +0.015 C 
ATOM     88  C4  UNL     1       6.041   4.732   3.461  0.00  0.00    +0.010 C 
BRANCH  87  90
ATOM     89  C1  UNL     1       5.998   7.569   4.787  0.00  0.00    +0.004 C 
ATOM     90  C2  UNL     1       4.780   6.724   4.435  0.00  0.00    +0.002 C 
ENDBRANCH  87  90
ENDBRANCH  11  87
ENDBRANCH   7  11
ENDBRANCH   6   9
BRANCH   6  91
ATOM     91  C42 UNL     1       0.433   6.066   1.399  0.00  0.00    +0.187 C 
BRANCH  91  92
ATOM     92  O16 UNL     1       0.463   7.259   2.197  0.00  0.00    -0.393 OA
ATOM     93  H74 UNL     1       1.091   7.874   1.762  0.00  0.00    +0.209 HD
ENDBRANCH  91  92
ENDBRANCH   6  91
ENDBRANCH   2   6
ENDBRANCH   1   4
BRANCH   1  94
ATOM     94  C48 UNL     1       2.337   6.834  -2.633  0.00  0.00    +0.234 C 
ATOM     95  O20 UNL     1       1.247   6.314  -2.377  0.00  0.00    -0.274 OA
ATOM     96  N13 UNL     1       2.478   7.735  -3.665  0.00  0.00    -0.302 N 
ATOM     97  H82 UNL     1       3.421   7.926  -3.990  0.00  0.00    +0.150 HD
BRANCH  96  98
ATOM     98  C49 UNL     1       1.457   7.771  -4.723  0.00  0.00    +0.161 C 
BRANCH  98  99
ATOM     99  C50 UNL     1       1.996   6.775  -5.774  0.00  0.00    +0.234 C 
ATOM    100  O21 UNL     1       3.203   6.636  -5.975  0.00  0.00    -0.274 OA
ATOM    101  N14 UNL     1       1.048   6.031  -6.439  0.00  0.00    -0.302 N 
ATOM    102  H84 UNL     1       0.060   6.233  -6.329  0.00  0.00    +0.150 HD
BRANCH 101 103
ATOM    103  C51 UNL     1       1.456   5.054  -7.447  0.00  0.00    +0.168 C 
BRANCH 103 104
ATOM    104  C54 UNL     1       0.307   4.871  -8.453  0.00  0.00    +0.234 C 
ATOM    105  O23 UNL     1       0.207   5.619  -9.432  0.00  0.00    -0.274 OA
ATOM    106  N16 UNL     1      -0.684   3.978  -8.117  0.00  0.00    -0.302 N 
ATOM    107  H90 UNL     1      -0.649   3.466  -7.245  0.00  0.00    +0.150 HD
BRANCH 106 108
ATOM    108  C55 UNL     1      -1.842   3.758  -8.990  0.00  0.00    +0.161 C 
BRANCH 108 109
ATOM    109  C56 UNL     1      -3.106   3.722  -8.106  0.00  0.00    +0.234 C 
ATOM    110  O24 UNL     1      -3.426   4.704  -7.422  0.00  0.00    -0.274 OA
ATOM    111  N17 UNL     1      -3.844   2.565  -8.054  0.00  0.00    -0.302 N 
ATOM    112  H92 UNL     1      -3.405   1.696  -8.333  0.00  0.00    +0.150 HD
BRANCH 111 113
ATOM    113  C57 UNL     1      -5.091   2.493  -7.274  0.00  0.00    +0.169 C 
BRANCH 113 114
ATOM    114  C60 UNL     1      -4.803   2.149  -5.805  0.00  0.00    +0.234 C 
ATOM    115  O27 UNL     1      -5.492   2.579  -4.880  0.00  0.00    -0.274 OA
ATOM    116  N18 UNL     1      -3.838   1.176  -5.629  0.00  0.00    -0.303 N 
ATOM    117  H97 UNL     1      -3.077   1.219  -6.299  0.00  0.00    +0.149 HD
BRANCH 116 118
ATOM    118  C61 UNL     1      -3.416   0.759  -4.292  0.00  0.00    +0.156 C 
ATOM    119  C62 UNL     1      -3.733  -0.722  -4.110  0.00  0.00    +0.038 C 
BRANCH 118 120
ATOM    120  C63 UNL     1      -1.903   1.053  -4.193  0.00  0.00    +0.234 C 
ATOM    121  O28 UNL     1      -1.264   1.538  -5.130  0.00  0.00    -0.274 OA
ATOM    122  N19 UNL     1      -1.337   0.746  -2.971  0.00  0.00    -0.302 N 
ATOM    123  HA2 UNL     1      -1.853   0.085  -2.405  0.00  0.00    +0.150 HD
BRANCH 122 124
ATOM    124  C64 UNL     1       0.115   0.646  -2.841  0.00  0.00    +0.159 C 
BRANCH 124 125
ATOM    125  C68 UNL     1       0.485  -0.808  -3.209  0.00  0.00    +0.234 C 
ATOM    126  O31 UNL     1      -0.360  -1.695  -3.334  0.00  0.00    -0.274 OA
ATOM    127  N20 UNL     1       1.830  -1.051  -3.332  0.00  0.00    -0.302 N 
ATOM    128  HA9 UNL     1       2.505  -0.312  -3.149  0.00  0.00    +0.150 HD
BRANCH 127 129
ATOM    129  C69 UNL     1       2.350  -2.402  -3.539  0.00  0.00    +0.163 C 
BRANCH 129 130
ATOM    130  C77 UNL     1       3.784  -2.406  -2.950  0.00  0.00    +0.234 C 
ATOM    131  O32 UNL     1       4.199  -1.477  -2.258  0.00  0.00    -0.274 OA
ATOM    132  N21 UNL     1       4.530  -3.535  -3.168  0.00  0.00    -0.301 N 
ATOM    133  HB8 UNL     1       4.134  -4.323  -3.675  0.00  0.00    +0.150 HD
BRANCH 132 134
ATOM    134  C78 UNL     1       5.928  -3.657  -2.750  0.00  0.00    +0.182 C 
BRANCH 134 135
ATOM    135  C83 UNL     1       6.628  -4.710  -3.613  0.00  0.00    +0.325 C 
ATOM    136  O33 UNL     1       6.148  -5.262  -4.594  0.00  0.00    -0.249 OA
BRANCH 135 137
ATOM    137  O34 UNL     1       7.894  -4.969  -3.242  0.00  0.00    -0.479 OA
ATOM    138  HD0 UNL     1       8.207  -5.632  -3.898  0.00  0.00    +0.295 HD
ENDBRANCH 135 137
ENDBRANCH 134 135
BRANCH 134 139
ATOM    139  C79 UNL     1       6.083  -3.893  -1.239  0.00  0.00    +0.035 C 
BRANCH 139 140
ATOM    140  C80 UNL     1       5.272  -5.047  -0.635  0.00  0.00    +0.026 C 
BRANCH 140 141
ATOM    141  C81 UNL     1       5.878  -6.424  -0.886  0.00  0.00    +0.145 C 
BRANCH 141 142
ATOM    142  N22 UNL     1       5.142  -7.434  -0.136  0.00  0.00    -0.253 NA
ATOM    143  C82 UNL     1       5.409  -7.637   1.099  0.00  0.00    +0.188 C 
ATOM    144  N23 UNL     1       4.706  -8.556   1.795  0.00  0.00    -0.370 N 
ATOM    145  N24 UNL     1       6.324  -7.057   1.904  0.00  0.00    -0.370 N 
ATOM    146  HC6 UNL     1       4.333  -8.193   2.663  0.00  0.00    +0.159 HD
ATOM    147  HC7 UNL     1       3.948  -8.917   1.218  0.00  0.00    +0.159 HD
ATOM    148  HC8 UNL     1       6.672  -7.697   2.607  0.00  0.00    +0.159 HD
ATOM    149  HC9 UNL     1       7.093  -6.618   1.413  0.00  0.00    +0.159 HD
ENDBRANCH 141 142
ENDBRANCH 140 141
ENDBRANCH 139 140
ENDBRANCH 134 139
ENDBRANCH 132 134
ENDBRANCH 129 130
BRANCH 129 150
ATOM    150  C70 UNL     1       2.290  -2.769  -5.033  0.00  0.00    +0.067 C 
BRANCH 150 151
ATOM    151  C71 UNL     1       2.108  -4.251  -5.280  0.00  0.00    -0.045 A 
ATOM    152  C72 UNL     1       0.950  -4.905  -4.832  0.00  0.00    +0.004 A 
ATOM    153  C73 UNL     1       0.786  -6.275  -5.029  0.00  0.00    +0.000 A 
ATOM    154  C74 UNL     1       1.773  -7.008  -5.685  0.00  0.00    +0.000 A 
ATOM    155  C75 UNL     1       2.914  -6.364  -6.160  0.00  0.00    +0.000 A 
ATOM    156  C76 UNL     1       3.078  -4.991  -5.966  0.00  0.00    +0.004 A 
ENDBRANCH 150 151
ENDBRANCH 129 150
ENDBRANCH 127 129
ENDBRANCH 124 125
BRANCH 124 157
ATOM    157  C65 UNL     1       0.562   0.909  -1.401  0.00  0.00    +0.043 C 
BRANCH 157 158
ATOM    158  C66 UNL     1       0.031   2.216  -0.813  0.00  0.00    +0.123 C 
BRANCH 158 159
ATOM    159  C67 UNL     1       0.623   3.406  -1.504  0.00  0.00    +0.305 C 
ATOM    160  O29 UNL     1       1.783   3.508  -1.875  0.00  0.00    -0.251 OA
BRANCH 159 161
ATOM    161  O30 UNL     1      -0.251   4.425  -1.601  0.00  0.00    -0.481 OA
ATOM    162  HA8 UNL     1       0.238   5.181  -2.019  0.00  0.00    +0.295 HD
ENDBRANCH 159 161
ENDBRANCH 158 159
ENDBRANCH 157 158
ENDBRANCH 124 157
ENDBRANCH 122 124
ENDBRANCH 118 120
ENDBRANCH 116 118
ENDBRANCH 113 114
BRANCH 113 163
ATOM    163  C58 UNL     1      -6.032   1.425  -7.838  0.00  0.00    +0.152 C 
BRANCH 163 164
ATOM    164  C59 UNL     1      -7.101   2.015  -8.706  0.00  0.00    +0.307 C 
ATOM    165  O25 UNL     1      -8.273   1.670  -8.718  0.00  0.00    -0.251 OA
BRANCH 164 166
ATOM    166  O26 UNL     1      -6.649   2.915  -9.596  0.00  0.00    -0.481 OA
ATOM    167  H96 UNL     1      -7.448   3.186 -10.097  0.00  0.00    +0.295 HD
ENDBRANCH 164 166
ENDBRANCH 163 164
ENDBRANCH 113 163
ENDBRANCH 111 113
ENDBRANCH 108 109
BRANCH 108 168
ATOM    168  C84 UNL     1      -1.546   2.653 -10.035  0.00  0.00    +0.012 C 
ATOM    169  C85 UNL     1      -2.656   2.518 -11.082  0.00  0.00    +0.009 C 
ATOM    170  C86 UNL     1      -1.170   1.282  -9.460  0.00  0.00    +0.009 C 
ENDBRANCH 108 168
ENDBRANCH 106 108
ENDBRANCH 103 104
BRANCH 103 171
ATOM    171  C52 UNL     1       1.960   3.761  -6.806  0.00  0.00    +0.127 C 
BRANCH 171 172
ATOM    172  C53 UNL     1       2.512   2.827  -7.855  0.00  0.00    +0.213 C 
ATOM    173  N15 UNL     1       3.680   3.218  -8.433  0.00  0.00    -0.329 N 
ATOM    174  O22 UNL     1       1.941   1.797  -8.189  0.00  0.00    -0.276 OA
ATOM    175  H88 UNL     1       4.113   2.562  -9.074  0.00  0.00    +0.145 HD
ATOM    176  H89 UNL     1       4.272   3.929  -8.016  0.00  0.00    +0.145 HD
ENDBRANCH 171 172
ENDBRANCH 103 171
ENDBRANCH 101 103
ENDBRANCH  98  99
BRANCH  98 177
ATOM    177  C87 UNL     1       1.277   9.191  -5.295  0.00  0.00    +0.012 C 
ATOM    178  C88 UNL     1       0.220   9.217  -6.404  0.00  0.00    +0.009 C 
ATOM    179  C89 UNL     1       0.862  10.165  -4.184  0.00  0.00    +0.009 C 
ENDBRANCH  98 177
ENDBRANCH  96  98
ENDBRANCH   1  94
BRANCH   1 180
ATOM    180  C45 UNL     1       4.612   5.732  -2.724  0.00  0.00    +0.043 C 
BRANCH 180 181
ATOM    181  C46 UNL     1       5.891   5.346  -1.981  0.00  0.00    +0.123 C 
BRANCH 181 182
ATOM    182  C47 UNL     1       6.866   4.662  -2.903  0.00  0.00    +0.305 C 
ATOM    183  O18 UNL     1       6.617   4.124  -3.970  0.00  0.00    -0.251 OA
BRANCH 182 184
ATOM    184  O19 UNL     1       8.119   4.671  -2.415  0.00  0.00    -0.481 OA
ATOM    185  H81 UNL     1       8.644   4.176  -3.081  0.00  0.00    +0.295 HD
ENDBRANCH 182 184
ENDBRANCH 181 182
ENDBRANCH 180 181
ENDBRANCH   1 180
TORSDOF 83
