REMARK  Name = ligands/ligand_35.pdb
REMARK  95 active torsions:
REMARK  status: ('A' for Active; 'I' for Inactive)
REMARK    1  A    between atoms: C1_1  and  C2_2
REMARK    2  A    between atoms: C2_2  and  C3_3
REMARK    3  A    between atoms: C3_3  and  C4_4
REMARK    4  A    between atoms: C3_3  and  C5_5
REMARK    5  A    between atoms: C5_5  and  N1_6
REMARK    6  A    between atoms: C5_5  and  C40_64
REMARK    7  A    between atoms: C6_7  and  C7_9
REMARK    8  A    between atoms: C7_9  and  C8_10
REMARK    9  A    between atoms: C7_9  and  N2_15
REMARK   10  A    between atoms: C8_10  and  C9_11
REMARK   11  A    between atoms: C9_11  and  C10_12
REMARK   12  A    between atoms: C10_12  and  O3_14
REMARK   13  A    between atoms: C11_16  and  C12_18
REMARK   14  A    between atoms: C12_18  and  C13_19
REMARK   15  A    between atoms: C12_18  and  N3_24
REMARK   16  A    between atoms: C13_19  and  C14_20
REMARK   17  A    between atoms: C14_20  and  C15_21
REMARK   18  A    between atoms: C15_21  and  O6_23
REMARK   19  A    between atoms: C16_25  and  C17_27
REMARK   20  A    between atoms: C17_27  and  N4_28
REMARK   21  A    between atoms: C17_27  and  C38_61
REMARK   22  A    between atoms: C18_29  and  C19_31
REMARK   23  A    between atoms: C19_31  and  C20_32
REMARK   24  A    between atoms: C19_31  and  N6_37
REMARK   25  A    between atoms: C20_32  and  C21_33
REMARK   26  A    between atoms: C21_33  and  C22_34
REMARK   27  A    between atoms: C22_34  and  C23_35
REMARK   28  A    between atoms: C23_35  and  N5_36
REMARK   29  A    between atoms: C24_38  and  C25_40
REMARK   30  A    between atoms: C25_40  and  N7_41
REMARK   31  A    between atoms: C25_40  and  C34_57
REMARK   32  A    between atoms: C26_42  and  C27_44
REMARK   33  A    between atoms: C27_44  and  C28_45
REMARK   34  A    between atoms: C27_44  and  N9_49
REMARK   35  A    between atoms: C28_45  and  C29_46
REMARK   36  A    between atoms: C30_50  and  C31_52
REMARK   37  A    between atoms: C31_52  and  N10_53
REMARK   38  A    between atoms: C31_52  and  C32_54
REMARK   39  A    between atoms: C32_54  and  C33_55
REMARK   40  A    between atoms: C32_54  and  O13_56
REMARK   41  A    between atoms: C34_57  and  C35_58
REMARK   42  A    between atoms: C34_57  and  C36_59
REMARK   43  A    between atoms: C36_59  and  C37_60
REMARK   44  A    between atoms: C38_61  and  C39_62
REMARK   45  A    between atoms: C38_61  and  O14_63
REMARK   46  A    between atoms: N11_66  and  C41_67
REMARK   47  A    between atoms: C41_67  and  C42_68
REMARK   48  A    between atoms: C41_67  and  C43_70
REMARK   49  A    between atoms: C42_68  and  O16_69
REMARK   50  A    between atoms: N12_72  and  C44_73
REMARK   51  A    between atoms: C44_73  and  C45_74
REMARK   52  A    between atoms: C44_73  and  C48_79
REMARK   53  A    between atoms: C45_74  and  C46_75
REMARK   54  A    between atoms: C46_75  and  C47_76
REMARK   55  A    between atoms: C47_76  and  O19_78
REMARK   56  A    between atoms: N13_81  and  C49_82
REMARK   57  A    between atoms: C49_82  and  C50_83
REMARK   58  A    between atoms: C49_82  and  C87_147
REMARK   59  A    between atoms: N14_85  and  C51_86
REMARK   60  A    between atoms: C51_86  and  C52_87
REMARK   61  A    between atoms: C51_86  and  C54_91
REMARK   62  A    between atoms: C52_87  and  C53_88
REMARK   63  A    between atoms: N16_93  and  C55_94
REMARK   64  A    between atoms: C55_94  and  C56_95
REMARK   65  A    between atoms: C55_94  and  C59_100
REMARK   66  A    between atoms: C56_95  and  C57_96
REMARK   67  A    between atoms: C57_96  and  C58_97
REMARK   68  A    between atoms: C58_97  and  O25_99
REMARK   69  A    between atoms: N17_102  and  C60_103
REMARK   70  A    between atoms: C60_103  and  C61_104
REMARK   71  A    between atoms: C60_103  and  C63_108
REMARK   72  A    between atoms: C61_104  and  C62_105
REMARK   73  A    between atoms: C62_105  and  O28_107
REMARK   74  A    between atoms: N18_110  and  C64_111
REMARK   75  A    between atoms: C64_111  and  C65_112
REMARK   76  A    between atoms: C64_111  and  C66_113
REMARK   77  A    between atoms: N19_115  and  C67_116
REMARK   78  A    between atoms: C67_116  and  C68_117
REMARK   79  A    between atoms: C67_116  and  C71_122
REMARK   80  A    between atoms: C68_117  and  C69_118
REMARK   81  A    between atoms: C69_118  and  C70_119
REMARK   82  A    between atoms: C70_119  and  O32_121
REMARK   83  A    between atoms: N20_124  and  C72_125
REMARK   84  A    between atoms: C72_125  and  C73_126
REMARK   85  A    between atoms: C72_125  and  C80_133
REMARK   86  A    between atoms: C73_126  and  C74_127
REMARK   87  A    between atoms: N21_135  and  C81_136
REMARK   88  A    between atoms: C81_136  and  C82_137
REMARK   89  A    between atoms: C81_136  and  C86_144
REMARK   90  A    between atoms: C82_137  and  C83_138
REMARK   91  A    between atoms: C83_138  and  C84_139
REMARK   92  A    between atoms: C84_139  and  N22_140
REMARK   93  A    between atoms: C86_144  and  O36_146
REMARK   94  A    between atoms: C87_147  and  C88_148
REMARK   95  A    between atoms: C87_147  and  C89_149
REMARK                            x       y       z     vdW  Elec       q    Type
REMARK                         _______ _______ _______ _____ _____    ______ ____
ROOT
ATOM      1  C44 UNL     1       6.995  -4.157   4.453  0.00  0.00    +0.159 C 
ENDROOT
BRANCH   1   2
ATOM      2  C48 UNL     1       7.616  -3.142   3.453  0.00  0.00    +0.234 C 
ATOM      3  O20 UNL     1       6.898  -2.358   2.830  0.00  0.00    -0.274 OA
ATOM      4  N13 UNL     1       8.993  -3.082   3.432  0.00  0.00    -0.302 N 
ATOM      5  H82 UNL     1       9.438  -3.476   4.252  0.00  0.00    +0.150 HD
BRANCH   4   6
ATOM      6  C49 UNL     1       9.726  -1.932   2.888  0.00  0.00    +0.161 C 
BRANCH   6   7
ATOM      7  C50 UNL     1       9.498  -0.724   3.835  0.00  0.00    +0.234 C 
ATOM      8  O21 UNL     1       9.089  -0.880   4.989  0.00  0.00    -0.274 OA
ATOM      9  N14 UNL     1       9.891   0.511   3.382  0.00  0.00    -0.302 N 
ATOM     10  H84 UNL     1      10.188   0.638   2.421  0.00  0.00    +0.150 HD
BRANCH   9  11
ATOM     11  C51 UNL     1       9.672   1.722   4.183  0.00  0.00    +0.168 C 
BRANCH  11  12
ATOM     12  C54 UNL     1       9.345   2.853   3.191  0.00  0.00    +0.234 C 
ATOM     13  O23 UNL     1      10.149   3.720   2.862  0.00  0.00    -0.274 OA
ATOM     14  N16 UNL     1       8.096   2.741   2.625  0.00  0.00    -0.302 N 
ATOM     15  H90 UNL     1       7.431   2.076   3.021  0.00  0.00    +0.150 HD
BRANCH  14  16
ATOM     16  C55 UNL     1       7.531   3.768   1.747  0.00  0.00    +0.159 C 
BRANCH  16  17
ATOM     17  C59 UNL     1       6.023   3.797   2.073  0.00  0.00    +0.234 C 
ATOM     18  O26 UNL     1       5.459   2.844   2.610  0.00  0.00    -0.274 OA
ATOM     19  N17 UNL     1       5.359   4.951   1.724  0.00  0.00    -0.302 N 
ATOM     20  H97 UNL     1       5.805   5.597   1.074  0.00  0.00    +0.150 HD
BRANCH  19  21
ATOM     21  C60 UNL     1       3.908   5.018   1.868  0.00  0.00    +0.169 C 
BRANCH  21  22
ATOM     22  C63 UNL     1       3.238   4.216   0.739  0.00  0.00    +0.234 C 
ATOM     23  O29 UNL     1       3.723   4.107  -0.384  0.00  0.00    -0.274 OA
ATOM     24  N18 UNL     1       2.030   3.659   1.103  0.00  0.00    -0.303 N 
ATOM     25  HA2 UNL     1       1.557   4.063   1.902  0.00  0.00    +0.149 HD
BRANCH  24  26
ATOM     26  C64 UNL     1       1.174   2.974   0.142  0.00  0.00    +0.156 C 
ATOM     27  C65 UNL     1       0.546   1.770   0.816  0.00  0.00    +0.038 C 
BRANCH  26  28
ATOM     28  C66 UNL     1       0.094   3.970  -0.321  0.00  0.00    +0.234 C 
ATOM     29  O30 UNL     1      -0.226   4.942   0.362  0.00  0.00    -0.274 OA
ATOM     30  N19 UNL     1      -0.478   3.688  -1.538  0.00  0.00    -0.302 N 
ATOM     31  HA7 UNL     1      -0.447   2.727  -1.884  0.00  0.00    +0.150 HD
BRANCH  30  32
ATOM     32  C67 UNL     1      -1.478   4.556  -2.149  0.00  0.00    +0.159 C 
BRANCH  32  33
ATOM     33  C71 UNL     1      -2.105   3.865  -3.382  0.00  0.00    +0.234 C 
ATOM     34  O33 UNL     1      -1.580   2.913  -3.962  0.00  0.00    -0.274 OA
ATOM     35  N20 UNL     1      -3.302   4.417  -3.789  0.00  0.00    -0.302 N 
ATOM     36  HB4 UNL     1      -3.596   5.310  -3.410  0.00  0.00    +0.150 HD
BRANCH  35  37
ATOM     37  C72 UNL     1      -3.965   4.004  -5.031  0.00  0.00    +0.163 C 
BRANCH  37  38
ATOM     38  C80 UNL     1      -4.052   5.262  -5.905  0.00  0.00    +0.234 C 
ATOM     39  O34 UNL     1      -4.566   6.300  -5.495  0.00  0.00    -0.274 OA
ATOM     40  N21 UNL     1      -3.461   5.144  -7.144  0.00  0.00    -0.301 N 
ATOM     41  HC3 UNL     1      -3.226   4.216  -7.475  0.00  0.00    +0.150 HD
BRANCH  40  42
ATOM     42  C81 UNL     1      -3.595   6.183  -8.170  0.00  0.00    +0.182 C 
BRANCH  42  43
ATOM     43  C86 UNL     1      -4.497   5.613  -9.265  0.00  0.00    +0.325 C 
ATOM     44  O35 UNL     1      -4.854   4.449  -9.375  0.00  0.00    -0.249 OA
BRANCH  43  45
ATOM     45  O36 UNL     1      -4.882   6.533 -10.170  0.00  0.00    -0.479 OA
ATOM     46  HD5 UNL     1      -5.456   6.045 -10.798  0.00  0.00    +0.295 HD
ENDBRANCH  43  45
ENDBRANCH  42  43
BRANCH  42  47
ATOM     47  C82 UNL     1      -2.229   6.553  -8.763  0.00  0.00    +0.035 C 
BRANCH  47  48
ATOM     48  C83 UNL     1      -1.253   7.171  -7.751  0.00  0.00    +0.026 C 
BRANCH  48  49
ATOM     49  C84 UNL     1      -1.683   8.551  -7.253  0.00  0.00    +0.145 C 
BRANCH  49  50
ATOM     50  N22 UNL     1      -0.762   8.976  -6.211  0.00  0.00    -0.253 NA
ATOM     51  C85 UNL     1       0.176   9.810  -6.436  0.00  0.00    +0.188 C 
ATOM     52  N23 UNL     1       1.004  10.144  -5.420  0.00  0.00    -0.370 N 
ATOM     53  N24 UNL     1       0.553  10.427  -7.575  0.00  0.00    -0.370 N 
ATOM     54  HD1 UNL     1       0.585   9.853  -4.523  0.00  0.00    +0.159 HD
ATOM     55  HD2 UNL     1       1.170  11.145  -5.380  0.00  0.00    +0.159 HD
ATOM     56  HD3 UNL     1       1.560  10.517  -7.660  0.00  0.00    +0.159 HD
ATOM     57  HD4 UNL     1       0.155  10.029  -8.420  0.00  0.00    +0.159 HD
ENDBRANCH  49  50
ENDBRANCH  48  49
ENDBRANCH  47  48
ENDBRANCH  42  47
ENDBRANCH  40  42
ENDBRANCH  37  38
BRANCH  37  58
ATOM     58  C73 UNL     1      -5.381   3.474  -4.767  0.00  0.00    +0.067 C 
BRANCH  58  59
ATOM     59  C74 UNL     1      -5.373   2.021  -4.339  0.00  0.00    -0.045 A 
ATOM     60  C75 UNL     1      -5.019   1.658  -3.034  0.00  0.00    +0.004 A 
ATOM     61  C76 UNL     1      -4.992   0.318  -2.652  0.00  0.00    +0.000 A 
ATOM     62  C77 UNL     1      -5.315  -0.676  -3.572  0.00  0.00    +0.000 A 
ATOM     63  C78 UNL     1      -5.664  -0.328  -4.877  0.00  0.00    +0.000 A 
ATOM     64  C79 UNL     1      -5.695   1.014  -5.258  0.00  0.00    +0.004 A 
ENDBRANCH  58  59
ENDBRANCH  37  58
ENDBRANCH  35  37
ENDBRANCH  32  33
BRANCH  32  65
ATOM     65  C68 UNL     1      -0.914   5.934  -2.535  0.00  0.00    +0.043 C 
BRANCH  65  66
ATOM     66  C69 UNL     1       0.350   5.854  -3.395  0.00  0.00    +0.123 C 
BRANCH  66  67
ATOM     67  C70 UNL     1       0.776   7.222  -3.847  0.00  0.00    +0.305 C 
ATOM     68  O31 UNL     1       0.571   8.286  -3.279  0.00  0.00    -0.251 OA
BRANCH  67  69
ATOM     69  O32 UNL     1       1.470   7.168  -5.004  0.00  0.00    -0.481 OA
ATOM     70  HB3 UNL     1       1.541   8.109  -5.282  0.00  0.00    +0.295 HD
ENDBRANCH  67  69
ENDBRANCH  66  67
ENDBRANCH  65  66
ENDBRANCH  32  65
ENDBRANCH  30  32
ENDBRANCH  26  28
ENDBRANCH  24  26
ENDBRANCH  21  22
BRANCH  21  71
ATOM     71  C61 UNL     1       3.392   6.451   1.819  0.00  0.00    +0.152 C 
BRANCH  71  72
ATOM     72  C62 UNL     1       3.304   7.021   3.200  0.00  0.00    +0.307 C 
ATOM     73  O27 UNL     1       3.991   7.923   3.649  0.00  0.00    -0.251 OA
BRANCH  72  74
ATOM     74  O28 UNL     1       2.339   6.448   3.948  0.00  0.00    -0.481 OA
ATOM     75  HA1 UNL     1       2.381   6.927   4.803  0.00  0.00    +0.295 HD
ENDBRANCH  72  74
ENDBRANCH  71  72
ENDBRANCH  21  71
ENDBRANCH  19  21
ENDBRANCH  16  17
BRANCH  16  76
ATOM     76  C56 UNL     1       7.844   3.415   0.285  0.00  0.00    +0.043 C 
BRANCH  76  77
ATOM     77  C57 UNL     1       7.449   4.456  -0.760  0.00  0.00    +0.123 C 
BRANCH  77  78
ATOM     78  C58 UNL     1       8.024   5.808  -0.452  0.00  0.00    +0.305 C 
ATOM     79  O24 UNL     1       9.164   6.186  -0.658  0.00  0.00    -0.251 OA
BRANCH  78  80
ATOM     80  O25 UNL     1       7.145   6.592   0.203  0.00  0.00    -0.481 OA
ATOM     81  H96 UNL     1       7.659   7.417   0.367  0.00  0.00    +0.295 HD
ENDBRANCH  78  80
ENDBRANCH  77  78
ENDBRANCH  76  77
ENDBRANCH  16  76
ENDBRANCH  14  16
ENDBRANCH  11  12
BRANCH  11  82
ATOM     82  C52 UNL     1      10.906   2.052   5.021  0.00  0.00    +0.127 C 
BRANCH  82  83
ATOM     83  C53 UNL     1      10.588   3.147   6.013  0.00  0.00    +0.213 C 
ATOM     84  N15 UNL     1      11.680   3.678   6.635  0.00  0.00    -0.329 N 
ATOM     85  O22 UNL     1       9.459   3.525   6.293  0.00  0.00    -0.276 OA
ATOM     86  H88 UNL     1      12.623   3.355   6.470  0.00  0.00    +0.145 HD
ATOM     87  H89 UNL     1      11.525   4.401   7.324  0.00  0.00    +0.145 HD
ENDBRANCH  82  83
ENDBRANCH  11  82
ENDBRANCH   9  11
ENDBRANCH   6   7
BRANCH   6  88
ATOM     88  C87 UNL     1       9.654  -1.693   1.359  0.00  0.00    +0.012 C 
ATOM     89  C88 UNL     1       9.913  -2.985   0.575  0.00  0.00    +0.009 C 
ATOM     90  C89 UNL     1       8.399  -1.006   0.820  0.00  0.00    +0.009 C 
ENDBRANCH   6  88
ENDBRANCH   4   6
ENDBRANCH   1   2
BRANCH   1  93
ATOM     91  C43 UNL     1       4.939  -5.037   3.288  0.00  0.00    +0.236 C 
ATOM     92  O17 UNL     1       5.508  -6.013   2.801  0.00  0.00    -0.274 OA
ATOM     93  N12 UNL     1       5.545  -4.186   4.191  0.00  0.00    -0.302 N 
ATOM     94  H75 UNL     1       5.150  -3.250   4.198  0.00  0.00    +0.150 HD
BRANCH  91  95
ATOM     95  C41 UNL     1       3.480  -4.685   2.927  0.00  0.00    +0.184 C 
BRANCH  95  98
ATOM     96  C40 UNL     1       2.591  -5.617   0.784  0.00  0.00    +0.234 C 
ATOM     97  O15 UNL     1       2.602  -4.535   0.198  0.00  0.00    -0.274 OA
ATOM     98  N11 UNL     1       2.937  -5.774   2.102  0.00  0.00    -0.301 N 
ATOM     99  H70 UNL     1       3.151  -6.714   2.421  0.00  0.00    +0.150 HD
BRANCH  96 100
ATOM    100  C5  UNL     1       2.144  -6.915   0.083  0.00  0.00    +0.162 C 
BRANCH 100 101
ATOM    101  N1  UNL     1       1.034  -6.550  -0.803  0.00  0.00    -0.302 N 
ATOM    102  C6  UNL     1      -0.204  -7.150  -0.696  0.00  0.00    +0.234 C 
ATOM    103  O1  UNL     1      -0.410  -8.116   0.044  0.00  0.00    -0.274 OA
ATOM    104  H11 UNL     1       1.054  -5.590  -1.125  0.00  0.00    +0.150 HD
BRANCH 102 105
ATOM    105  C7  UNL     1      -1.258  -6.663  -1.715  0.00  0.00    +0.159 C 
BRANCH 105 106
ATOM    106  N2  UNL     1      -1.163  -5.215  -1.940  0.00  0.00    -0.302 N 
ATOM    107  C11 UNL     1      -1.834  -4.341  -1.108  0.00  0.00    +0.234 C 
ATOM    108  O4  UNL     1      -2.633  -4.743  -0.262  0.00  0.00    -0.274 OA
ATOM    109  H18 UNL     1      -0.385  -4.881  -2.487  0.00  0.00    +0.150 HD
BRANCH 107 110
ATOM    110  C12 UNL     1      -1.621  -2.820  -1.367  0.00  0.00    +0.159 C 
BRANCH 110 111
ATOM    111  N3  UNL     1      -1.863  -2.114  -0.114  0.00  0.00    -0.302 N 
ATOM    112  C16 UNL     1      -1.076  -2.243   1.001  0.00  0.00    +0.236 C 
ATOM    113  O7  UNL     1      -0.003  -2.853   0.978  0.00  0.00    -0.274 OA
ATOM    114  H25 UNL     1      -2.763  -1.642   0.009  0.00  0.00    +0.150 HD
BRANCH 112 115
ATOM    115  C17 UNL     1      -1.645  -1.654   2.309  0.00  0.00    +0.187 C 
BRANCH 115 116
ATOM    116  N4  UNL     1      -1.946  -0.207   2.252  0.00  0.00    -0.300 N 
ATOM    117  C18 UNL     1      -2.990   0.338   1.535  0.00  0.00    +0.234 C 
ATOM    118  O8  UNL     1      -3.602  -0.305   0.676  0.00  0.00    -0.274 OA
ATOM    119  H27 UNL     1      -1.783   0.231   3.152  0.00  0.00    +0.150 HD
BRANCH 117 120
ATOM    120  C19 UNL     1      -3.235   1.860   1.760  0.00  0.00    +0.159 C 
BRANCH 120 121
ATOM    121  N6  UNL     1      -4.435   2.273   1.021  0.00  0.00    -0.302 N 
ATOM    122  C24 UNL     1      -5.699   1.925   1.471  0.00  0.00    +0.234 C 
ATOM    123  O9  UNL     1      -5.871   1.319   2.528  0.00  0.00    -0.274 OA
ATOM    124  H39 UNL     1      -4.325   2.279   0.016  0.00  0.00    +0.150 HD
BRANCH 122 125
ATOM    125  C25 UNL     1      -6.856   2.352   0.525  0.00  0.00    +0.162 C 
BRANCH 125 126
ATOM    126  N7  UNL     1      -7.591   1.141   0.158  0.00  0.00    -0.302 N 
ATOM    127  C26 UNL     1      -8.383   0.433   1.036  0.00  0.00    +0.234 C 
ATOM    128  O10 UNL     1      -8.763   0.849   2.131  0.00  0.00    -0.274 OA
ATOM    129  H41 UNL     1      -7.355   0.718  -0.737  0.00  0.00    +0.150 HD
BRANCH 127 130
ATOM    130  C27 UNL     1      -8.752  -0.979   0.554  0.00  0.00    +0.168 C 
BRANCH 130 131
ATOM    131  N9  UNL     1      -9.242  -1.714   1.715  0.00  0.00    -0.302 N 
ATOM    132  C30 UNL     1      -9.200  -3.088   1.740  0.00  0.00    +0.233 C 
ATOM    133  O12 UNL     1      -8.970  -3.752   0.724  0.00  0.00    -0.274 OA
ATOM    134  H47 UNL     1      -9.312  -1.174   2.576  0.00  0.00    +0.150 HD
BRANCH 132 135
ATOM    135  C31 UNL     1      -9.509  -3.721   3.116  0.00  0.00    +0.166 C 
BRANCH 135 136
ATOM    136  N10 UNL     1      -9.661  -5.199   2.968  0.00  0.00    -0.318 NA
ATOM    137  H49 UNL     1     -10.472  -5.355   2.362  0.00  0.00    +0.119 HD
ATOM    138  H50 UNL     1      -8.879  -5.501   2.370  0.00  0.00    +0.119 HD
ENDBRANCH 135 136
BRANCH 135 139
ATOM    139  C32 UNL     1      -8.404  -3.374   4.145  0.00  0.00    +0.137 C 
ATOM    140  C33 UNL     1      -8.972  -3.232   5.550  0.00  0.00    +0.040 C 
BRANCH 139 141
ATOM    141  O13 UNL     1      -7.419  -4.417   4.179  0.00  0.00    -0.390 OA
ATOM    142  H55 UNL     1      -7.945  -5.244   4.201  0.00  0.00    +0.210 HD
ENDBRANCH 139 141
ENDBRANCH 135 139
ENDBRANCH 132 135
ENDBRANCH 130 131
BRANCH 130 143
ATOM    143  C28 UNL     1      -9.793  -0.928  -0.558  0.00  0.00    +0.127 C 
BRANCH 143 144
ATOM    144  C29 UNL     1      -9.092  -1.125  -1.871  0.00  0.00    +0.213 C 
ATOM    145  N8  UNL     1      -8.751  -2.409  -2.158  0.00  0.00    -0.329 N 
ATOM    146  O11 UNL     1      -8.816  -0.181  -2.607  0.00  0.00    -0.276 OA
ATOM    147  H45 UNL     1      -8.208  -2.591  -2.993  0.00  0.00    +0.145 HD
ATOM    148  H46 UNL     1      -8.825  -3.154  -1.466  0.00  0.00    +0.145 HD
ENDBRANCH 143 144
ENDBRANCH 130 143
ENDBRANCH 127 130
ENDBRANCH 125 126
BRANCH 125 149
ATOM    149  C34 UNL     1      -7.691   3.531   1.089  0.00  0.00    +0.015 C 
ATOM    150  C35 UNL     1      -6.771   4.671   1.565  0.00  0.00    +0.010 C 
BRANCH 149 151
ATOM    151  C36 UNL     1      -8.673   4.121   0.047  0.00  0.00    +0.002 C 
ATOM    152  C37 UNL     1      -9.879   3.250  -0.267  0.00  0.00    +0.004 C 
ENDBRANCH 149 151
ENDBRANCH 125 149
ENDBRANCH 122 125
ENDBRANCH 120 121
BRANCH 120 153
ATOM    153  C20 UNL     1      -3.261   2.330   3.232  0.00  0.00    +0.032 C 
BRANCH 153 154
ATOM    154  C21 UNL     1      -1.937   2.966   3.679  0.00  0.00    +0.003 C 
BRANCH 154 155
ATOM    155  C22 UNL     1      -2.012   3.609   5.069  0.00  0.00    +0.015 C 
BRANCH 155 156
ATOM    156  C23 UNL     1      -2.063   2.581   6.199  0.00  0.00    +0.077 C 
BRANCH 156 157
ATOM    157  N5  UNL     1      -2.110   3.249   7.495  0.00  0.00    -0.330 NA
ATOM    158  H37 UNL     1      -1.365   3.939   7.558  0.00  0.00    +0.118 HD
ATOM    159  H38 UNL     1      -2.981   3.774   7.569  0.00  0.00    +0.118 HD
ENDBRANCH 156 157
ENDBRANCH 155 156
ENDBRANCH 154 155
ENDBRANCH 153 154
ENDBRANCH 120 153
ENDBRANCH 117 120
ENDBRANCH 115 116
BRANCH 115 160
ATOM    160  C38 UNL     1      -2.832  -2.486   2.844  0.00  0.00    +0.141 C 
ATOM    161  C39 UNL     1      -2.409  -3.894   3.255  0.00  0.00    +0.040 C 
BRANCH 160 162
ATOM    162  O14 UNL     1      -3.361  -1.827   4.007  0.00  0.00    -0.390 OA
ATOM    163  H69 UNL     1      -4.178  -2.310   4.248  0.00  0.00    +0.210 HD
ENDBRANCH 160 162
ENDBRANCH 115 160
ENDBRANCH 112 115
ENDBRANCH 110 111
BRANCH 110 164
ATOM    164  C13 UNL     1      -0.298  -2.438  -2.047  0.00  0.00    +0.043 C 
BRANCH 164 165
ATOM    165  C14 UNL     1       0.032  -0.946  -2.046  0.00  0.00    +0.123 C 
BRANCH 165 166
ATOM    166  C15 UNL     1      -1.106  -0.047  -2.449  0.00  0.00    +0.305 C 
ATOM    167  O5  UNL     1      -1.466   0.950  -1.844  0.00  0.00    -0.251 OA
BRANCH 166 168
ATOM    168  O6  UNL     1      -1.680  -0.415  -3.613  0.00  0.00    -0.481 OA
ATOM    169  H24 UNL     1      -2.320   0.304  -3.818  0.00  0.00    +0.295 HD
ENDBRANCH 166 168
ENDBRANCH 165 166
ENDBRANCH 164 165
ENDBRANCH 110 164
ENDBRANCH 107 110
ENDBRANCH 105 106
BRANCH 105 170
ATOM    170  C8  UNL     1      -1.040  -7.423  -3.032  0.00  0.00    +0.043 C 
BRANCH 170 171
ATOM    171  C9  UNL     1      -2.074  -7.095  -4.112  0.00  0.00    +0.123 C 
BRANCH 171 172
ATOM    172  C10 UNL     1      -3.495  -7.366  -3.702  0.00  0.00    +0.305 C 
ATOM    173  O2  UNL     1      -4.457  -6.663  -3.962  0.00  0.00    -0.251 OA
BRANCH 172 174
ATOM    174  O3  UNL     1      -3.648  -8.526  -3.042  0.00  0.00    -0.481 OA
ATOM    175  H17 UNL     1      -4.605  -8.572  -2.835  0.00  0.00    +0.295 HD
ENDBRANCH 172 174
ENDBRANCH 171 172
ENDBRANCH 170 171
ENDBRANCH 105 170
ENDBRANCH 102 105
ENDBRANCH 100 101
BRANCH 100 176
ATOM    176  C3  UNL     1       3.269  -7.620  -0.713  0.00  0.00    +0.015 C 
ATOM    177  C4  UNL     1       4.006  -6.667  -1.665  0.00  0.00    +0.010 C 
BRANCH 176 179
ATOM    178  C1  UNL     1       5.244  -9.238  -0.496  0.00  0.00    +0.004 C 
ATOM    179  C2  UNL     1       4.242  -8.352   0.231  0.00  0.00    +0.002 C 
ENDBRANCH 176 179
ENDBRANCH 100 176
ENDBRANCH  96 100
ENDBRANCH  95  98
BRANCH  95 180
ATOM    180  C42 UNL     1       2.594  -4.515   4.168  0.00  0.00    +0.187 C 
BRANCH 180 181
ATOM    181  O16 UNL     1       1.353  -3.885   3.839  0.00  0.00    -0.393 OA
ATOM    182  H74 UNL     1       1.112  -4.156   2.929  0.00  0.00    +0.209 HD
ENDBRANCH 180 181
ENDBRANCH  95 180
ENDBRANCH  91  95
ENDBRANCH   1  93
BRANCH   1 183
ATOM    183  C45 UNL     1       7.714  -5.510   4.539  0.00  0.00    +0.043 C 
BRANCH 183 184
ATOM    184  C46 UNL     1       7.096  -6.446   5.578  0.00  0.00    +0.123 C 
BRANCH 184 185
ATOM    185  C47 UNL     1       7.925  -7.688   5.757  0.00  0.00    +0.305 C 
ATOM    186  O18 UNL     1       9.073  -7.870   5.390  0.00  0.00    -0.251 OA
BRANCH 185 187
ATOM    187  O19 UNL     1       7.266  -8.635   6.449  0.00  0.00    -0.481 OA
ATOM    188  H81 UNL     1       7.907  -9.378   6.506  0.00  0.00    +0.295 HD
ENDBRANCH 185 187
ENDBRANCH 184 185
ENDBRANCH 183 184
ENDBRANCH   1 183
TORSDOF 86
