REMARK  Name = ligands/ligand_12.pdb
REMARK  30 active torsions:
REMARK  status: ('A' for Active; 'I' for Inactive)
REMARK    1  A    between atoms: C1_1  and  C2_2
REMARK    2  A    between atoms: C2_2  and  C3_3
REMARK    3  A    between atoms: C3_3  and  C4_4
REMARK    4  A    between atoms: C3_3  and  C5_5
REMARK    5  A    between atoms: C5_5  and  N1_6
REMARK    6  A    between atoms: C5_5  and  C11_14
REMARK    7  A    between atoms: C6_7  and  O2_9
REMARK    8  A    between atoms: O2_9  and  C7_10
REMARK    9  A    between atoms: C7_10  and  C8_11
REMARK   10  A    between atoms: C7_10  and  C9_12
REMARK   11  A    between atoms: C7_10  and  C10_13
REMARK   12  A    between atoms: N2_16  and  C12_17
REMARK   13  A    between atoms: C12_17  and  C13_18
REMARK   14  A    between atoms: C12_17  and  C14_19
REMARK   15  A    between atoms: N3_21  and  C15_22
REMARK   16  A    between atoms: C15_22  and  C16_23
REMARK   17  A    between atoms: C15_22  and  C23_30
REMARK   18  A    between atoms: C16_23  and  C17_24
REMARK   19  A    between atoms: C23_30  and  O5_31
REMARK   20  A    between atoms: C23_30  and  C24_32
REMARK   21  A    between atoms: C24_32  and  C25_33
REMARK   22  A    between atoms: C25_33  and  C26_34
REMARK   23  A    between atoms: C25_33  and  C27_35
REMARK   24  A    between atoms: N4_37  and  C28_38
REMARK   25  A    between atoms: C28_38  and  C29_39
REMARK   26  A    between atoms: C28_38  and  C36_49
REMARK   27  A    between atoms: N5_41  and  C30_42
REMARK   28  A    between atoms: C30_42  and  C31_43
REMARK   29  A    between atoms: C36_49  and  C37_50
REMARK   30  A    between atoms: C36_49  and  C38_51
REMARK                            x       y       z     vdW  Elec       q    Type
REMARK                         _______ _______ _______ _____ _____    ______ ____
ROOT
ATOM      1  C15 UNL     1      -0.157  -2.343  -4.033  0.00  0.00    +0.106 C 
ENDROOT
BRANCH   1   4
ATOM      2  C14 UNL     1       1.219  -1.329  -2.224  0.00  0.00    +0.233 C 
ATOM      3  O4  UNL     1       2.257  -1.848  -2.635  0.00  0.00    -0.274 OA
ATOM      4  N3  UNL     1       0.008  -1.480  -2.861  0.00  0.00    -0.308 N 
ATOM      5  H26 UNL     1      -0.835  -1.208  -2.362  0.00  0.00    +0.149 HD
BRANCH   2   6
ATOM      6  C12 UNL     1       1.175  -0.458  -0.952  0.00  0.00    +0.156 C 
ATOM      7  C13 UNL     1       0.877   0.998  -1.290  0.00  0.00    +0.038 C 
BRANCH   6  10
ATOM      8  C11 UNL     1       2.626  -0.457   1.072  0.00  0.00    +0.234 C 
ATOM      9  O3  UNL     1       1.696  -0.191   1.831  0.00  0.00    -0.274 OA
ATOM     10  N2  UNL     1       2.463  -0.599  -0.287  0.00  0.00    -0.303 N 
ATOM     11  H21 UNL     1       3.241  -0.878  -0.876  0.00  0.00    +0.149 HD
BRANCH   8  12
ATOM     12  C5  UNL     1       4.075  -0.715   1.555  0.00  0.00    +0.165 C 
BRANCH  12  13
ATOM     13  N1  UNL     1       4.318   0.213   2.650  0.00  0.00    -0.270 N 
ATOM     14  C6  UNL     1       4.646   1.517   2.426  0.00  0.00    +0.401 C 
ATOM     15  O1  UNL     1       4.876   2.000   1.329  0.00  0.00    -0.226 OA
ATOM     16  H11 UNL     1       3.864   0.055   3.541  0.00  0.00    +0.153 HD
BRANCH  14  17
ATOM     17  O2  UNL     1       4.632   2.169   3.609  0.00  0.00    -0.445 OA
BRANCH  17  18
ATOM     18  C7  UNL     1       4.877   3.594   3.676  0.00  0.00    +0.107 C 
ATOM     19  C8  UNL     1       6.257   3.961   3.121  0.00  0.00    +0.055 C 
ATOM     20  C9  UNL     1       3.749   4.368   2.988  0.00  0.00    +0.055 C 
ATOM     21  C10 UNL     1       4.855   3.930   5.176  0.00  0.00    +0.055 C 
ENDBRANCH  17  18
ENDBRANCH  14  17
ENDBRANCH  12  13
BRANCH  12  22
ATOM     22  C3  UNL     1       4.278  -2.186   2.015  0.00  0.00    +0.015 C 
ATOM     23  C4  UNL     1       5.706  -2.392   2.541  0.00  0.00    +0.010 C 
BRANCH  22  25
ATOM     24  C1  UNL     1       4.171  -4.648   1.241  0.00  0.00    +0.004 C 
ATOM     25  C2  UNL     1       3.956  -3.186   0.880  0.00  0.00    +0.002 C 
ENDBRANCH  22  25
ENDBRANCH  12  22
ENDBRANCH   8  12
ENDBRANCH   6  10
ENDBRANCH   2   6
ENDBRANCH   1   4
BRANCH   1  26
ATOM     26  C16 UNL     1      -0.264  -3.850  -3.684  0.00  0.00    +0.060 C 
BRANCH  26  27
ATOM     27  C17 UNL     1      -1.412  -4.270  -2.797  0.00  0.00    -0.046 A 
ATOM     28  C18 UNL     1      -2.499  -4.977  -3.331  0.00  0.00    +0.004 A 
ATOM     29  C19 UNL     1      -3.579  -5.340  -2.526  0.00  0.00    +0.000 A 
ATOM     30  C20 UNL     1      -3.579  -5.011  -1.171  0.00  0.00    +0.000 A 
ATOM     31  C21 UNL     1      -2.495  -4.331  -0.619  0.00  0.00    +0.000 A 
ATOM     32  C22 UNL     1      -1.412  -3.975  -1.424  0.00  0.00    +0.004 A 
ENDBRANCH  26  27
ENDBRANCH   1  26
BRANCH   1  33
ATOM     33  C23 UNL     1      -1.231  -1.777  -5.003  0.00  0.00    +0.136 C 
BRANCH  33  34
ATOM     34  O5  UNL     1      -1.177  -2.478  -6.253  0.00  0.00    -0.390 OA
ATOM     35  H36 UNL     1      -0.317  -2.269  -6.656  0.00  0.00    +0.210 HD
ENDBRANCH  33  34
BRANCH  33  36
ATOM     36  C24 UNL     1      -2.690  -1.811  -4.514  0.00  0.00    +0.045 C 
BRANCH  36  37
ATOM     37  C25 UNL     1      -3.409  -0.482  -4.799  0.00  0.00    +0.074 C 
ATOM     38  C26 UNL     1      -4.918  -0.686  -4.925  0.00  0.00    +0.017 C 
BRANCH  37  39
ATOM     39  C27 UNL     1      -3.047   0.517  -3.703  0.00  0.00    +0.217 C 
ATOM     40  O6  UNL     1      -2.156   1.348  -3.852  0.00  0.00    -0.276 OA
ATOM     41  N4  UNL     1      -3.699   0.353  -2.511  0.00  0.00    -0.304 N 
ATOM     42  H43 UNL     1      -4.315  -0.443  -2.368  0.00  0.00    +0.149 HD
BRANCH  41  43
ATOM     43  C28 UNL     1      -3.396   1.120  -1.303  0.00  0.00    +0.161 C 
BRANCH  43  44
ATOM     44  C29 UNL     1      -3.386   0.056  -0.179  0.00  0.00    +0.234 C 
ATOM     45  O7  UNL     1      -4.046  -0.982  -0.265  0.00  0.00    -0.274 OA
ATOM     46  N5  UNL     1      -2.598   0.351   0.909  0.00  0.00    -0.310 N 
ATOM     47  H45 UNL     1      -2.145   1.251   0.974  0.00  0.00    +0.149 HD
BRANCH  46  48
ATOM     48  C30 UNL     1      -2.584  -0.491   2.086  0.00  0.00    +0.139 C 
BRANCH  48  49
ATOM     49  C31 UNL     1      -3.705  -0.143   3.026  0.00  0.00    -0.027 A 
ATOM     50  C32 UNL     1      -4.946  -0.789   2.928  0.00  0.00    +0.025 A 
ATOM     51  C33 UNL     1      -5.961  -0.423   3.795  0.00  0.00    +0.111 A 
ATOM     52  N6  UNL     1      -5.826   0.528   4.749  0.00  0.00    -0.263 NA
ATOM     53  C34 UNL     1      -4.629   1.150   4.817  0.00  0.00    +0.111 A 
ATOM     54  C35 UNL     1      -3.555   0.857   3.990  0.00  0.00    +0.025 A 
ENDBRANCH  48  49
ENDBRANCH  46  48
ENDBRANCH  43  44
BRANCH  43  55
ATOM     55  C36 UNL     1      -4.436   2.236  -1.061  0.00  0.00    +0.012 C 
ATOM     56  C37 UNL     1      -4.143   3.043   0.207  0.00  0.00    +0.009 C 
ATOM     57  C38 UNL     1      -4.504   3.202  -2.252  0.00  0.00    +0.009 C 
ENDBRANCH  43  55
ENDBRANCH  41  43
ENDBRANCH  37  39
ENDBRANCH  36  37
ENDBRANCH  33  36
ENDBRANCH   1  33
TORSDOF 21
