AutoDock-GPU version: v1.6

**********************************************************
**    AutoDock-GPU AUTODOCKTOOLS-COMPATIBLE DLG FILE    **
**********************************************************


    DOCKING PARAMETERS
    ________________________


Ligand file:                               ligands/ligand_32.pdbqt
Grid fld file:                             protein.maps.fld

Random seed:                               1770973319, 30934
Number of runs:                            20
Number of energy evaluations:              11368059
Number of generations:                     42000
Size of population:                        150
Rate of crossover:                         80.000000%
Tournament selection probability limit:    60.000000%
Rate of mutation:                          2.000000%
Maximal allowed delta movement:            +/- 6.000000A
Maximal allowed delta angle:               +/- 90.000000

Rate of local search:                      100.000000%
Maximal number of local search iterations: 300
Rho lower bound:                           0.010000
Spread of local search delta movement:     2.000000A
Spread of local search delta angle:        74.999999
Limit of consecutive successes/failures:   4

Handle symmetry during clustering:         YES
RMSD tolerance:                            2.000000A

Program call in command line was:          ./autodock-gpu --ffile protein.maps.fld --lfile ligands/ligand_32.pdbqt --nrun 20 


    GRID PARAMETERS
    ________________________


Receptor name:                             #MACROMOLECULE
Number of grid points (x, y, z):           61, 61, 61
Grid center (x, y, z):                     10.261000, -3.492000, -0.127000A
Grid size (x, y, z):                       22.500000, 22.500000, 22.500000A
Grid spacing:                              0.375000A


    LIGAND PARAMETERS
    ________________________


Ligand name:                               ligands/ligand_32
Number of atoms:                           64
Number of rotatable bonds:                 27
Number of atom types:                      6


    DUMMY DATA (only for ADT-compatibility)
    ________________________


DPF> outlev 1
DPF> ga_run 20
DPF> fld protein.maps.fld
DPF> move ligands/ligand_32.pdbqt


    COUNTER STATES
    ________________________


Number of energy evaluations performed:    10686667
Number of generations used:                415


    INPUT LIGAND PDBQT FILE:
    ________________________


INPUT-LIGAND-PDBQT: REMARK  Name = ligands/ligand_32.pdb
INPUT-LIGAND-PDBQT: REMARK  32 active torsions:
INPUT-LIGAND-PDBQT: REMARK  status: ('A' for Active; 'I' for Inactive)
INPUT-LIGAND-PDBQT: REMARK    1  A    between atoms: C1_1  and  C2_2
INPUT-LIGAND-PDBQT: REMARK    2  A    between atoms: C2_2  and  C3_3
INPUT-LIGAND-PDBQT: REMARK    3  A    between atoms: C2_2  and  C4_4
INPUT-LIGAND-PDBQT: REMARK    4  A    between atoms: C4_4  and  C5_5
INPUT-LIGAND-PDBQT: REMARK    5  A    between atoms: C5_5  and  N1_6
INPUT-LIGAND-PDBQT: REMARK    6  A    between atoms: C5_5  and  C10_15
INPUT-LIGAND-PDBQT: REMARK    7  A    between atoms: C6_7  and  C7_9
INPUT-LIGAND-PDBQT: REMARK    8  A    between atoms: C7_9  and  N2_10
INPUT-LIGAND-PDBQT: REMARK    9  A    between atoms: C7_9  and  C8_11
INPUT-LIGAND-PDBQT: REMARK   10  A    between atoms: C8_11  and  C9_12
INPUT-LIGAND-PDBQT: REMARK   11  A    between atoms: C10_15  and  O3_16
INPUT-LIGAND-PDBQT: REMARK   12  A    between atoms: C10_15  and  C11_17
INPUT-LIGAND-PDBQT: REMARK   13  A    between atoms: C11_17  and  C12_18
INPUT-LIGAND-PDBQT: REMARK   14  A    between atoms: N4_20  and  C13_21
INPUT-LIGAND-PDBQT: REMARK   15  A    between atoms: C13_21  and  C14_22
INPUT-LIGAND-PDBQT: REMARK   16  A    between atoms: C13_21  and  C32_50
INPUT-LIGAND-PDBQT: REMARK   17  A    between atoms: N5_24  and  C15_25
INPUT-LIGAND-PDBQT: REMARK   18  A    between atoms: C15_25  and  C16_26
INPUT-LIGAND-PDBQT: REMARK   19  A    between atoms: C15_25  and  C17_27
INPUT-LIGAND-PDBQT: REMARK   20  A    between atoms: N6_29  and  C18_30
INPUT-LIGAND-PDBQT: REMARK   21  A    between atoms: C18_30  and  C19_31
INPUT-LIGAND-PDBQT: REMARK   22  A    between atoms: C18_30  and  C22_36
INPUT-LIGAND-PDBQT: REMARK   23  A    between atoms: C19_31  and  C20_32
INPUT-LIGAND-PDBQT: REMARK   24  A    between atoms: C20_32  and  C21_33
INPUT-LIGAND-PDBQT: REMARK   25  A    between atoms: C21_33  and  O8_35
INPUT-LIGAND-PDBQT: REMARK   26  A    between atoms: N7_38  and  C23_39
INPUT-LIGAND-PDBQT: REMARK   27  A    between atoms: C23_39  and  C24_40
INPUT-LIGAND-PDBQT: REMARK   28  A    between atoms: C23_39  and  C31_47
INPUT-LIGAND-PDBQT: REMARK   29  A    between atoms: C24_40  and  C25_41
INPUT-LIGAND-PDBQT: REMARK   30  A    between atoms: C31_47  and  O11_49
INPUT-LIGAND-PDBQT: REMARK   31  A    between atoms: C32_50  and  C33_51
INPUT-LIGAND-PDBQT: REMARK   32  A    between atoms: C32_50  and  C34_52
INPUT-LIGAND-PDBQT: REMARK                            x       y       z     vdW  Elec       q    Type
INPUT-LIGAND-PDBQT: REMARK                         _______ _______ _______ _____ _____    ______ ____
INPUT-LIGAND-PDBQT: ROOT
INPUT-LIGAND-PDBQT: ATOM      1  C14 UNL     1      -0.203  -1.743  -2.916  0.00  0.00    +0.234 C 
INPUT-LIGAND-PDBQT: ATOM      2  O5  UNL     1       0.056  -1.662  -1.717  0.00  0.00    -0.274 OA
INPUT-LIGAND-PDBQT: ATOM      3  N5  UNL     1      -0.891  -2.806  -3.468  0.00  0.00    -0.303 N 
INPUT-LIGAND-PDBQT: ATOM      4  H25 UNL     1      -1.286  -2.633  -4.393  0.00  0.00    +0.149 HD
INPUT-LIGAND-PDBQT: ENDROOT
INPUT-LIGAND-PDBQT: BRANCH   3   5
INPUT-LIGAND-PDBQT: ATOM      5  C15 UNL     1      -1.613  -3.797  -2.673  0.00  0.00    +0.156 C 
INPUT-LIGAND-PDBQT: ATOM      6  C16 UNL     1      -0.787  -4.434  -1.549  0.00  0.00    +0.038 C 
INPUT-LIGAND-PDBQT: BRANCH   5   7
INPUT-LIGAND-PDBQT: ATOM      7  C17 UNL     1      -2.951  -3.185  -2.201  0.00  0.00    +0.234 C 
INPUT-LIGAND-PDBQT: ATOM      8  O6  UNL     1      -3.340  -2.082  -2.592  0.00  0.00    -0.274 OA
INPUT-LIGAND-PDBQT: ATOM      9  N6  UNL     1      -3.732  -3.984  -1.397  0.00  0.00    -0.302 N 
INPUT-LIGAND-PDBQT: ATOM     10  H30 UNL     1      -3.251  -4.729  -0.898  0.00  0.00    +0.150 HD
INPUT-LIGAND-PDBQT: BRANCH   9  11
INPUT-LIGAND-PDBQT: ATOM     11  C18 UNL     1      -4.873  -3.438  -0.672  0.00  0.00    +0.159 C 
INPUT-LIGAND-PDBQT: BRANCH  11  12
INPUT-LIGAND-PDBQT: ATOM     12  C22 UNL     1      -4.487  -3.341   0.807  0.00  0.00    +0.234 C 
INPUT-LIGAND-PDBQT: ATOM     13  O9  UNL     1      -3.614  -4.057   1.299  0.00  0.00    -0.274 OA
INPUT-LIGAND-PDBQT: ATOM     14  N7  UNL     1      -5.232  -2.442   1.541  0.00  0.00    -0.301 N 
INPUT-LIGAND-PDBQT: ATOM     15  H37 UNL     1      -5.812  -1.765   1.051  0.00  0.00    +0.150 HD
INPUT-LIGAND-PDBQT: BRANCH  14  16
INPUT-LIGAND-PDBQT: ATOM     16  C23 UNL     1      -4.963  -2.211   2.967  0.00  0.00    +0.186 C 
INPUT-LIGAND-PDBQT: BRANCH  16  17
INPUT-LIGAND-PDBQT: ATOM     17  C31 UNL     1      -6.199  -1.562   3.570  0.00  0.00    +0.326 C 
INPUT-LIGAND-PDBQT: ATOM     18  O10 UNL     1      -6.643  -0.456   3.301  0.00  0.00    -0.249 OA
INPUT-LIGAND-PDBQT: BRANCH  17  19
INPUT-LIGAND-PDBQT: ATOM     19  O11 UNL     1      -6.884  -2.379   4.386  0.00  0.00    -0.479 OA
INPUT-LIGAND-PDBQT: ATOM     20  H46 UNL     1      -7.663  -1.852   4.642  0.00  0.00    +0.295 HD
INPUT-LIGAND-PDBQT: ENDBRANCH  17  19
INPUT-LIGAND-PDBQT: ENDBRANCH  16  17
INPUT-LIGAND-PDBQT: BRANCH  16  21
INPUT-LIGAND-PDBQT: ATOM     21  C24 UNL     1      -3.759  -1.280   3.168  0.00  0.00    +0.069 C 
INPUT-LIGAND-PDBQT: BRANCH  21  22
INPUT-LIGAND-PDBQT: ATOM     22  C25 UNL     1      -3.230  -1.291   4.581  0.00  0.00    -0.045 A 
INPUT-LIGAND-PDBQT: ATOM     23  C26 UNL     1      -2.505  -2.400   5.038  0.00  0.00    +0.004 A 
INPUT-LIGAND-PDBQT: ATOM     24  C27 UNL     1      -2.002  -2.432   6.337  0.00  0.00    +0.000 A 
INPUT-LIGAND-PDBQT: ATOM     25  C28 UNL     1      -2.206  -1.345   7.188  0.00  0.00    +0.000 A 
INPUT-LIGAND-PDBQT: ATOM     26  C29 UNL     1      -2.940  -0.247   6.751  0.00  0.00    +0.000 A 
INPUT-LIGAND-PDBQT: ATOM     27  C30 UNL     1      -3.461  -0.223   5.452  0.00  0.00    +0.004 A 
INPUT-LIGAND-PDBQT: ENDBRANCH  21  22
INPUT-LIGAND-PDBQT: ENDBRANCH  16  21
INPUT-LIGAND-PDBQT: ENDBRANCH  14  16
INPUT-LIGAND-PDBQT: ENDBRANCH  11  12
INPUT-LIGAND-PDBQT: BRANCH  11  28
INPUT-LIGAND-PDBQT: ATOM     28  C19 UNL     1      -6.105  -4.340  -0.805  0.00  0.00    +0.043 C 
INPUT-LIGAND-PDBQT: BRANCH  28  29
INPUT-LIGAND-PDBQT: ATOM     29  C20 UNL     1      -6.662  -4.375  -2.230  0.00  0.00    +0.123 C 
INPUT-LIGAND-PDBQT: BRANCH  29  30
INPUT-LIGAND-PDBQT: ATOM     30  C21 UNL     1      -7.184  -3.025  -2.653  0.00  0.00    +0.305 C 
INPUT-LIGAND-PDBQT: ATOM     31  O7  UNL     1      -7.581  -2.140  -1.916  0.00  0.00    -0.251 OA
INPUT-LIGAND-PDBQT: BRANCH  30  32
INPUT-LIGAND-PDBQT: ATOM     32  O8  UNL     1      -7.230  -2.896  -3.991  0.00  0.00    -0.481 OA
INPUT-LIGAND-PDBQT: ATOM     33  H36 UNL     1      -7.577  -1.996  -4.155  0.00  0.00    +0.295 HD
INPUT-LIGAND-PDBQT: ENDBRANCH  30  32
INPUT-LIGAND-PDBQT: ENDBRANCH  29  30
INPUT-LIGAND-PDBQT: ENDBRANCH  28  29
INPUT-LIGAND-PDBQT: ENDBRANCH  11  28
INPUT-LIGAND-PDBQT: ENDBRANCH   9  11
INPUT-LIGAND-PDBQT: ENDBRANCH   5   7
INPUT-LIGAND-PDBQT: ENDBRANCH   3   5
INPUT-LIGAND-PDBQT: BRANCH   1  34
INPUT-LIGAND-PDBQT: ATOM     34  C13 UNL     1       0.143  -0.602  -3.908  0.00  0.00    +0.161 C 
INPUT-LIGAND-PDBQT: BRANCH  34  37
INPUT-LIGAND-PDBQT: ATOM     35  C12 UNL     1       1.714   0.909  -2.594  0.00  0.00    +0.216 C 
INPUT-LIGAND-PDBQT: ATOM     36  O4  UNL     1       2.759   0.405  -2.961  0.00  0.00    -0.276 OA
INPUT-LIGAND-PDBQT: ATOM     37  N4  UNL     1       0.455   0.594  -3.096  0.00  0.00    -0.304 N 
INPUT-LIGAND-PDBQT: ATOM     38  H23 UNL     1      -0.328   0.889  -2.518  0.00  0.00    +0.149 HD
INPUT-LIGAND-PDBQT: BRANCH  35  39
INPUT-LIGAND-PDBQT: ATOM     39  C11 UNL     1       1.656   2.057  -1.615  0.00  0.00    +0.129 C 
INPUT-LIGAND-PDBQT: BRANCH  39  40
INPUT-LIGAND-PDBQT: ATOM     40  C10 UNL     1       2.997   2.574  -1.054  0.00  0.00    +0.143 C 
INPUT-LIGAND-PDBQT: BRANCH  40  41
INPUT-LIGAND-PDBQT: ATOM     41  O3  UNL     1       4.055   2.693  -2.006  0.00  0.00    -0.389 OA
INPUT-LIGAND-PDBQT: ATOM     42  H20 UNL     1       3.682   2.445  -2.877  0.00  0.00    +0.210 HD
INPUT-LIGAND-PDBQT: ENDBRANCH  40  41
INPUT-LIGAND-PDBQT: BRANCH  40  43
INPUT-LIGAND-PDBQT: ATOM     43  C5  UNL     1       3.520   1.873   0.231  0.00  0.00    +0.102 C 
INPUT-LIGAND-PDBQT: BRANCH  43  44
INPUT-LIGAND-PDBQT: ATOM     44  N1  UNL     1       4.549   2.748   0.808  0.00  0.00    -0.309 N 
INPUT-LIGAND-PDBQT: ATOM     45  C6  UNL     1       4.264   3.780   1.663  0.00  0.00    +0.231 C 
INPUT-LIGAND-PDBQT: ATOM     46  O1  UNL     1       3.204   3.863   2.286  0.00  0.00    -0.274 OA
INPUT-LIGAND-PDBQT: ATOM     47  H11 UNL     1       5.477   2.701   0.398  0.00  0.00    +0.149 HD
INPUT-LIGAND-PDBQT: BRANCH  45  48
INPUT-LIGAND-PDBQT: ATOM     48  C7  UNL     1       5.408   4.792   1.886  0.00  0.00    +0.146 C 
INPUT-LIGAND-PDBQT: BRANCH  48  49
INPUT-LIGAND-PDBQT: ATOM     49  N2  UNL     1       6.408   4.182   2.805  0.00  0.00    -0.320 NA
INPUT-LIGAND-PDBQT: ATOM     50  H13 UNL     1       7.132   4.869   3.017  0.00  0.00    +0.119 HD
INPUT-LIGAND-PDBQT: ATOM     51  H14 UNL     1       5.933   4.000   3.692  0.00  0.00    +0.119 HD
INPUT-LIGAND-PDBQT: ENDBRANCH  48  49
INPUT-LIGAND-PDBQT: BRANCH  48  52
INPUT-LIGAND-PDBQT: ATOM     52  C8  UNL     1       6.073   5.271   0.592  0.00  0.00    +0.123 C 
INPUT-LIGAND-PDBQT: BRANCH  52  53
INPUT-LIGAND-PDBQT: ATOM     53  C9  UNL     1       5.030   5.878  -0.331  0.00  0.00    +0.212 C 
INPUT-LIGAND-PDBQT: ATOM     54  N3  UNL     1       5.015   5.403  -1.612  0.00  0.00    -0.329 N 
INPUT-LIGAND-PDBQT: ATOM     55  O2  UNL     1       4.240   6.756   0.011  0.00  0.00    -0.276 OA
INPUT-LIGAND-PDBQT: ATOM     56  H17 UNL     1       4.214   5.725  -2.148  0.00  0.00    +0.145 HD
INPUT-LIGAND-PDBQT: ATOM     57  H18 UNL     1       5.179   4.400  -1.746  0.00  0.00    +0.145 HD
INPUT-LIGAND-PDBQT: ENDBRANCH  52  53
INPUT-LIGAND-PDBQT: ENDBRANCH  48  52
INPUT-LIGAND-PDBQT: ENDBRANCH  45  48
INPUT-LIGAND-PDBQT: ENDBRANCH  43  44
INPUT-LIGAND-PDBQT: BRANCH  43  58
INPUT-LIGAND-PDBQT: ATOM     58  C4  UNL     1       4.141   0.475   0.025  0.00  0.00    +0.028 C 
INPUT-LIGAND-PDBQT: BRANCH  58  60
INPUT-LIGAND-PDBQT: ATOM     59  C1  UNL     1       2.256  -0.922   0.991  0.00  0.00    +0.007 C 
INPUT-LIGAND-PDBQT: ATOM     60  C2  UNL     1       3.730  -0.527   1.122  0.00  0.00    -0.015 C 
INPUT-LIGAND-PDBQT: ATOM     61  C3  UNL     1       4.604  -1.780   1.055  0.00  0.00    +0.007 C 
INPUT-LIGAND-PDBQT: ENDBRANCH  58  60
INPUT-LIGAND-PDBQT: ENDBRANCH  43  58
INPUT-LIGAND-PDBQT: ENDBRANCH  40  43
INPUT-LIGAND-PDBQT: ENDBRANCH  39  40
INPUT-LIGAND-PDBQT: ENDBRANCH  35  39
INPUT-LIGAND-PDBQT: ENDBRANCH  34  37
INPUT-LIGAND-PDBQT: BRANCH  34  62
INPUT-LIGAND-PDBQT: ATOM     62  C32 UNL     1       1.173  -0.953  -5.009  0.00  0.00    +0.012 C 
INPUT-LIGAND-PDBQT: ATOM     63  C33 UNL     1       1.467   0.268  -5.898  0.00  0.00    +0.009 C 
INPUT-LIGAND-PDBQT: ATOM     64  C34 UNL     1       0.737  -2.086  -5.947  0.00  0.00    +0.009 C 
INPUT-LIGAND-PDBQT: ENDBRANCH  34  62
INPUT-LIGAND-PDBQT: ENDBRANCH   1  34
INPUT-LIGAND-PDBQT: TORSDOF 27


    FINAL DOCKED STATE:
    ________________________


Run:   1 / 20
Time taken for this run:   4.058s

DOCKED: MODEL        1
DOCKED: USER    Run = 1
DOCKED: USER
DOCKED: USER    Estimated Free Energy of Binding    =  +8.05 kcal/mol  [=(1)+(2)+(3)-(4)]
DOCKED: USER
DOCKED: USER    (1) Final Intermolecular Energy     =  +0.00 kcal/mol
DOCKED: USER        vdW + Hbond + desolv Energy     =  +0.00 kcal/mol
DOCKED: USER        Electrostatic Energy            =  +0.00 kcal/mol
DOCKED: USER        Moving Ligand-Fixed Receptor    =  +0.00 kcal/mol
DOCKED: USER        Moving Ligand-Moving Receptor   =  +0.00 kcal/mol
DOCKED: USER    (2) Final Total Internal Energy     = -25.75 kcal/mol
DOCKED: USER    (3) Torsional Free Energy           =  +8.05 kcal/mol
DOCKED: USER    (4) Unbound System's Energy         = -25.75 kcal/mol
DOCKED: USER
DOCKED: USER
DOCKED: REMARK  Name = ligands/ligand_32.pdb
DOCKED: REMARK  32 active torsions:
DOCKED: REMARK  status: ('A' for Active; 'I' for Inactive)
DOCKED: REMARK    1  A    between atoms: C1_1  and  C2_2
DOCKED: REMARK    2  A    between atoms: C2_2  and  C3_3
DOCKED: REMARK    3  A    between atoms: C2_2  and  C4_4
DOCKED: REMARK    4  A    between atoms: C4_4  and  C5_5
DOCKED: REMARK    5  A    between atoms: C5_5  and  N1_6
DOCKED: REMARK    6  A    between atoms: C5_5  and  C10_15
DOCKED: REMARK    7  A    between atoms: C6_7  and  C7_9
DOCKED: REMARK    8  A    between atoms: C7_9  and  N2_10
DOCKED: REMARK    9  A    between atoms: C7_9  and  C8_11
DOCKED: REMARK   10  A    between atoms: C8_11  and  C9_12
DOCKED: REMARK   11  A    between atoms: C10_15  and  O3_16
DOCKED: REMARK   12  A    between atoms: C10_15  and  C11_17
DOCKED: REMARK   13  A    between atoms: C11_17  and  C12_18
DOCKED: REMARK   14  A    between atoms: N4_20  and  C13_21
DOCKED: REMARK   15  A    between atoms: C13_21  and  C14_22
DOCKED: REMARK   16  A    between atoms: C13_21  and  C32_50
DOCKED: REMARK   17  A    between atoms: N5_24  and  C15_25
DOCKED: REMARK   18  A    between atoms: C15_25  and  C16_26
DOCKED: REMARK   19  A    between atoms: C15_25  and  C17_27
DOCKED: REMARK   20  A    between atoms: N6_29  and  C18_30
DOCKED: REMARK   21  A    between atoms: C18_30  and  C19_31
DOCKED: REMARK   22  A    between atoms: C18_30  and  C22_36
DOCKED: REMARK   23  A    between atoms: C19_31  and  C20_32
DOCKED: REMARK   24  A    between atoms: C20_32  and  C21_33
DOCKED: REMARK   25  A    between atoms: C21_33  and  O8_35
DOCKED: REMARK   26  A    between atoms: N7_38  and  C23_39
DOCKED: REMARK   27  A    between atoms: C23_39  and  C24_40
DOCKED: REMARK   28  A    between atoms: C23_39  and  C31_47
DOCKED: REMARK   29  A    between atoms: C24_40  and  C25_41
DOCKED: REMARK   30  A    between atoms: C31_47  and  O11_49
DOCKED: REMARK   31  A    between atoms: C32_50  and  C33_51
DOCKED: REMARK   32  A    between atoms: C32_50  and  C34_52
DOCKED: REMARK                            x       y       z     vdW  Elec       q    Type
DOCKED: REMARK                         _______ _______ _______ _____ _____    ______ ____
DOCKED: USER                              x       y       z     vdW  Elec       q    Type
DOCKED: USER                           _______ _______ _______ _____ _____    ______ ____
DOCKED: ROOT
DOCKED: ATOM      1  C14 UNL     1       5.447   0.482  -3.649 +0.00 +0.00    +0.234 C  
DOCKED: ATOM      2  O5  UNL     1       6.651   0.240  -3.607 +0.00 -0.00    -0.274 OA 
DOCKED: ATOM      3  N5  UNL     1       4.801   1.253  -2.702 +0.00 -0.00    -0.303 N  
DOCKED: ATOM      4  H25 UNL     1       3.889   1.613  -2.985 +0.00 +0.00    +0.149 HD 
DOCKED: ENDROOT
DOCKED: BRANCH   3   5
DOCKED: ATOM      5  C15 UNL     1       5.502   2.077  -1.720 +0.00 +0.00    +0.156 C  
DOCKED: ATOM      6  C16 UNL     1       6.498   1.309  -0.842 +0.00 +0.00    +0.038 C  
DOCKED: BRANCH   5   7
DOCKED: ATOM      7  C17 UNL     1       6.110   3.304  -2.435 +0.00 +0.00    +0.234 C  
DOCKED: ATOM      8  O6  UNL     1       5.561   4.408  -2.420 +0.00 -0.00    -0.274 OA 
DOCKED: ATOM      9  N6  UNL     1       7.349   3.120  -3.006 +0.00 -0.00    -0.302 N  
DOCKED: ATOM     10  H30 UNL     1       7.606   2.160  -3.226 +0.00 +0.00    +0.150 HD 
DOCKED: BRANCH   9  11
DOCKED: ATOM     11  C18 UNL     1       7.907   4.100  -3.930 +0.00 +0.00    +0.159 C  
DOCKED: BRANCH  11  12
DOCKED: ATOM     12  C22 UNL     1       7.792   3.528  -5.346 +0.00 +0.00    +0.234 C  
DOCKED: ATOM     13  O9  UNL     1       7.664   4.255  -6.332 +0.00 -0.00    -0.274 OA 
DOCKED: ATOM     14  N7  UNL     1       7.782   2.151  -5.415 +0.00 -0.00    -0.301 N  
DOCKED: ATOM     15  H37 UNL     1       8.061   1.614  -4.597 +0.00 +0.00    +0.150 HD 
DOCKED: BRANCH  14  16
DOCKED: ATOM     16  C23 UNL     1       7.709   1.450  -6.704 +0.00 +0.00    +0.186 C  
DOCKED: BRANCH  16  17
DOCKED: ATOM     17  C31 UNL     1       7.772  -0.043  -6.422 +0.00 +0.00    +0.326 C  
DOCKED: ATOM     18  O10 UNL     1       7.479  -0.941  -7.196 +0.00 -0.00    -0.249 OA 
DOCKED: BRANCH  17  19
DOCKED: ATOM     19  O11 UNL     1       8.316  -0.336  -5.230 +0.00 -0.00    -0.479 OA 
DOCKED: ATOM     20  H46 UNL     1       8.925   0.407  -5.063 +0.00 +0.00    +0.295 HD 
DOCKED: ENDBRANCH  17  19
DOCKED: ENDBRANCH  16  17
DOCKED: BRANCH  16  21
DOCKED: ATOM     21  C24 UNL     1       8.878   1.837  -7.621 +0.00 +0.00    +0.069 C  
DOCKED: BRANCH  21  22
DOCKED: ATOM     22  C25 UNL     1       9.741   0.662  -8.009 +0.00 -0.00    -0.045 A  
DOCKED: ATOM     23  C26 UNL     1       9.456  -0.045  -9.185 +0.00 +0.00    +0.004 A  
DOCKED: ATOM     24  C27 UNL     1      10.242  -1.130  -9.568 +0.00 +0.00    +0.000 A  
DOCKED: ATOM     25  C28 UNL     1      11.332  -1.510  -8.784 +0.00 +0.00    +0.000 A  
DOCKED: ATOM     26  C29 UNL     1      11.613  -0.826  -7.605 +0.00 +0.00    +0.000 A  
DOCKED: ATOM     27  C30 UNL     1      10.813   0.252  -7.212 +0.00 +0.00    +0.004 A  
DOCKED: ENDBRANCH  21  22
DOCKED: ENDBRANCH  16  21
DOCKED: ENDBRANCH  14  16
DOCKED: ENDBRANCH  11  12
DOCKED: BRANCH  11  28
DOCKED: ATOM     28  C19 UNL     1       9.382   4.380  -3.626 +0.00 +0.00    +0.043 C  
DOCKED: BRANCH  28  29
DOCKED: ATOM     29  C20 UNL     1      10.059   3.234  -2.870 +0.00 +0.00    +0.123 C  
DOCKED: BRANCH  29  30
DOCKED: ATOM     30  C21 UNL     1       9.940   1.931  -3.620 +0.00 +0.00    +0.305 C  
DOCKED: ATOM     31  O7  UNL     1      10.335   1.709  -4.750 +0.00 -0.00    -0.251 OA 
DOCKED: BRANCH  30  32
DOCKED: ATOM     32  O8  UNL     1       9.273   1.001  -2.914 +0.00 -0.00    -0.481 OA 
DOCKED: ATOM     33  H36 UNL     1       8.845   0.425  -3.580 +0.00 +0.00    +0.295 HD 
DOCKED: ENDBRANCH  30  32
DOCKED: ENDBRANCH  29  30
DOCKED: ENDBRANCH  28  29
DOCKED: ENDBRANCH  11  28
DOCKED: ENDBRANCH   9  11
DOCKED: ENDBRANCH   5   7
DOCKED: ENDBRANCH   3   5
DOCKED: BRANCH   1  34
DOCKED: ATOM     34  C13 UNL     1       4.557   0.016  -4.830 +0.00 +0.00    +0.161 C  
DOCKED: BRANCH  34  37
DOCKED: ATOM     35  C12 UNL     1       4.760  -2.260  -5.950 +0.00 +0.00    +0.216 C  
DOCKED: ATOM     36  O4  UNL     1       3.570  -2.504  -6.027 +0.00 -0.00    -0.276 OA 
DOCKED: ATOM     37  N4  UNL     1       5.303  -1.048  -5.537 +0.00 -0.00    -0.304 N  
DOCKED: ATOM     38  H23 UNL     1       6.283  -1.081  -5.269 +0.00 +0.00    +0.149 HD 
DOCKED: BRANCH  35  39
DOCKED: ATOM     39  C11 UNL     1       5.825  -3.219  -6.425 +0.00 +0.00    +0.129 C  
DOCKED: BRANCH  39  40
DOCKED: ATOM     40  C10 UNL     1       7.013  -3.479  -5.475 +0.00 +0.00    +0.143 C  
DOCKED: BRANCH  40  41
DOCKED: ATOM     41  O3  UNL     1       7.167  -2.537  -4.413 +0.00 -0.00    -0.389 OA 
DOCKED: ATOM     42  H20 UNL     1       7.385  -1.677  -4.826 +0.00 +0.00    +0.210 HD 
DOCKED: ENDBRANCH  40  41
DOCKED: BRANCH  40  43
DOCKED: ATOM     43  C5  UNL     1       8.389  -3.740  -6.152 +0.00 +0.00    +0.102 C  
DOCKED: BRANCH  43  44
DOCKED: ATOM     44  N1  UNL     1       9.362  -2.854  -5.499 +0.00 -0.00    -0.309 N  
DOCKED: ATOM     45  C6  UNL     1      10.172  -3.257  -4.470 +0.00 +0.00    +0.231 C  
DOCKED: ATOM     46  O1  UNL     1      10.410  -4.441  -4.226 +0.00 -0.00    -0.274 OA 
DOCKED: ATOM     47  H11 UNL     1       9.283  -1.861  -5.694 +0.00 +0.00    +0.149 HD 
DOCKED: BRANCH  45  48
DOCKED: ATOM     48  C7  UNL     1      10.866  -2.121  -3.689 +0.00 +0.00    +0.146 C  
DOCKED: BRANCH  48  49
DOCKED: ATOM     49  N2  UNL     1      10.505  -0.822  -4.321 +0.00 -0.00    -0.320 NA 
DOCKED: ATOM     50  H13 UNL     1       9.509  -0.648  -4.186 +0.00 +0.00    +0.119 HD 
DOCKED: ATOM     51  H14 UNL     1      10.986  -0.087  -3.798 +0.00 +0.00    +0.119 HD 
DOCKED: ENDBRANCH  48  49
DOCKED: BRANCH  48  52
DOCKED: ATOM     52  C8  UNL     1      10.543  -2.111  -2.192 +0.00 +0.00    +0.123 C  
DOCKED: BRANCH  52  53
DOCKED: ATOM     53  C9  UNL     1       9.051  -2.313  -1.984 +0.00 +0.00    +0.212 C  
DOCKED: ATOM     54  N3  UNL     1       8.238  -1.352  -2.513 +0.00 -0.00    -0.329 N  
DOCKED: ATOM     55  O2  UNL     1       8.567  -3.261  -1.369 +0.00 -0.00    -0.276 OA 
DOCKED: ATOM     56  H17 UNL     1       7.253  -1.600  -2.481 +0.00 +0.00    +0.145 HD 
DOCKED: ATOM     57  H18 UNL     1       8.498  -0.962  -3.425 +0.00 +0.00    +0.145 HD 
DOCKED: ENDBRANCH  52  53
DOCKED: ENDBRANCH  48  52
DOCKED: ENDBRANCH  45  48
DOCKED: ENDBRANCH  43  44
DOCKED: BRANCH  43  58
DOCKED: ATOM     58  C4  UNL     1       8.447  -3.479  -7.672 +0.00 +0.00    +0.028 C  
DOCKED: BRANCH  58  60
DOCKED: ATOM     59  C1  UNL     1      10.637  -4.754  -7.806 +0.00 +0.00    +0.007 C  
DOCKED: ATOM     60  C2  UNL     1       9.253  -4.553  -8.430 +0.00 -0.00    -0.015 C  
DOCKED: ATOM     61  C3  UNL     1       8.496  -5.881  -8.438 +0.00 +0.00    +0.007 C  
DOCKED: ENDBRANCH  58  60
DOCKED: ENDBRANCH  43  58
DOCKED: ENDBRANCH  40  43
DOCKED: ENDBRANCH  39  40
DOCKED: ENDBRANCH  35  39
DOCKED: ENDBRANCH  34  37
DOCKED: BRANCH  34  62
DOCKED: ATOM     62  C32 UNL     1       3.086  -0.316  -4.479 +0.00 +0.00    +0.012 C  
DOCKED: ATOM     63  C33 UNL     1       2.223   0.958  -4.459 +0.00 +0.00    +0.009 C  
DOCKED: ATOM     64  C34 UNL     1       2.898  -0.996  -3.116 +0.00 +0.00    +0.009 C  
DOCKED: ENDBRANCH  34  62
DOCKED: ENDBRANCH   1  34
DOCKED: TORSDOF 27
DOCKED: TER
DOCKED: ENDMDL
________________________________________________________________________________


    FINAL DOCKED STATE:
    ________________________


Run:   2 / 20
Time taken for this run:   4.058s

DOCKED: MODEL        2
DOCKED: USER    Run = 2
DOCKED: USER
DOCKED: USER    Estimated Free Energy of Binding    =  +8.05 kcal/mol  [=(1)+(2)+(3)-(4)]
DOCKED: USER
DOCKED: USER    (1) Final Intermolecular Energy     =  +0.00 kcal/mol
DOCKED: USER        vdW + Hbond + desolv Energy     =  +0.00 kcal/mol
DOCKED: USER        Electrostatic Energy            =  +0.00 kcal/mol
DOCKED: USER        Moving Ligand-Fixed Receptor    =  +0.00 kcal/mol
DOCKED: USER        Moving Ligand-Moving Receptor   =  +0.00 kcal/mol
DOCKED: USER    (2) Final Total Internal Energy     = -25.79 kcal/mol
DOCKED: USER    (3) Torsional Free Energy           =  +8.05 kcal/mol
DOCKED: USER    (4) Unbound System's Energy         = -25.79 kcal/mol
DOCKED: USER
DOCKED: USER
DOCKED: REMARK  Name = ligands/ligand_32.pdb
DOCKED: REMARK  32 active torsions:
DOCKED: REMARK  status: ('A' for Active; 'I' for Inactive)
DOCKED: REMARK    1  A    between atoms: C1_1  and  C2_2
DOCKED: REMARK    2  A    between atoms: C2_2  and  C3_3
DOCKED: REMARK    3  A    between atoms: C2_2  and  C4_4
DOCKED: REMARK    4  A    between atoms: C4_4  and  C5_5
DOCKED: REMARK    5  A    between atoms: C5_5  and  N1_6
DOCKED: REMARK    6  A    between atoms: C5_5  and  C10_15
DOCKED: REMARK    7  A    between atoms: C6_7  and  C7_9
DOCKED: REMARK    8  A    between atoms: C7_9  and  N2_10
DOCKED: REMARK    9  A    between atoms: C7_9  and  C8_11
DOCKED: REMARK   10  A    between atoms: C8_11  and  C9_12
DOCKED: REMARK   11  A    between atoms: C10_15  and  O3_16
DOCKED: REMARK   12  A    between atoms: C10_15  and  C11_17
DOCKED: REMARK   13  A    between atoms: C11_17  and  C12_18
DOCKED: REMARK   14  A    between atoms: N4_20  and  C13_21
DOCKED: REMARK   15  A    between atoms: C13_21  and  C14_22
DOCKED: REMARK   16  A    between atoms: C13_21  and  C32_50
DOCKED: REMARK   17  A    between atoms: N5_24  and  C15_25
DOCKED: REMARK   18  A    between atoms: C15_25  and  C16_26
DOCKED: REMARK   19  A    between atoms: C15_25  and  C17_27
DOCKED: REMARK   20  A    between atoms: N6_29  and  C18_30
DOCKED: REMARK   21  A    between atoms: C18_30  and  C19_31
DOCKED: REMARK   22  A    between atoms: C18_30  and  C22_36
DOCKED: REMARK   23  A    between atoms: C19_31  and  C20_32
DOCKED: REMARK   24  A    between atoms: C20_32  and  C21_33
DOCKED: REMARK   25  A    between atoms: C21_33  and  O8_35
DOCKED: REMARK   26  A    between atoms: N7_38  and  C23_39
DOCKED: REMARK   27  A    between atoms: C23_39  and  C24_40
DOCKED: REMARK   28  A    between atoms: C23_39  and  C31_47
DOCKED: REMARK   29  A    between atoms: C24_40  and  C25_41
DOCKED: REMARK   30  A    between atoms: C31_47  and  O11_49
DOCKED: REMARK   31  A    between atoms: C32_50  and  C33_51
DOCKED: REMARK   32  A    between atoms: C32_50  and  C34_52
DOCKED: REMARK                            x       y       z     vdW  Elec       q    Type
DOCKED: REMARK                         _______ _______ _______ _____ _____    ______ ____
DOCKED: USER                              x       y       z     vdW  Elec       q    Type
DOCKED: USER                           _______ _______ _______ _____ _____    ______ ____
DOCKED: ROOT
DOCKED: ATOM      1  C14 UNL     1       2.782  -6.083  -0.447 +0.00 +0.00    +0.234 C  
DOCKED: ATOM      2  O5  UNL     1       2.345  -6.266   0.688 +0.00 -0.00    -0.274 OA 
DOCKED: ATOM      3  N5  UNL     1       1.989  -5.686  -1.505 +0.00 -0.00    -0.303 N  
DOCKED: ATOM      4  H25 UNL     1       2.493  -5.301  -2.304 +0.00 +0.00    +0.149 HD 
DOCKED: ENDROOT
DOCKED: BRANCH   3   5
DOCKED: ATOM      5  C15 UNL     1       0.626  -5.184  -1.345 +0.00 +0.00    +0.156 C  
DOCKED: ATOM      6  C16 UNL     1      -0.329  -6.153  -0.637 +0.00 +0.00    +0.038 C  
DOCKED: BRANCH   5   7
DOCKED: ATOM      7  C17 UNL     1       0.680  -3.777  -0.708 +0.00 +0.00    +0.234 C  
DOCKED: ATOM      8  O6  UNL     1       0.600  -2.749  -1.385 +0.00 -0.00    -0.274 OA 
DOCKED: ATOM      9  N6  UNL     1       0.723  -3.736   0.667 +0.00 -0.00    -0.302 N  
DOCKED: ATOM     10  H30 UNL     1       1.063  -4.574   1.133 +0.00 +0.00    +0.150 HD 
DOCKED: BRANCH   9  11
DOCKED: ATOM     11  C18 UNL     1       1.045  -2.502   1.374 +0.00 +0.00    +0.159 C  
DOCKED: BRANCH  11  12
DOCKED: ATOM     12  C22 UNL     1       2.497  -2.600   1.851 +0.00 +0.00    +0.234 C  
DOCKED: ATOM     13  O9  UNL     1       3.213  -1.604   1.965 +0.00 -0.00    -0.274 OA 
DOCKED: ATOM     14  N7  UNL     1       2.946  -3.885   2.078 +0.00 -0.00    -0.301 N  
DOCKED: ATOM     15  H37 UNL     1       2.268  -4.642   2.134 +0.00 +0.00    +0.150 HD 
DOCKED: BRANCH  14  16
DOCKED: ATOM     16  C23 UNL     1       4.307  -4.144   2.569 +0.00 +0.00    +0.186 C  
DOCKED: BRANCH  16  17
DOCKED: ATOM     17  C31 UNL     1       4.473  -5.650   2.693 +0.00 +0.00    +0.326 C  
DOCKED: ATOM     18  O10 UNL     1       5.529  -6.261   2.758 +0.00 -0.00    -0.249 OA 
DOCKED: BRANCH  17  19
DOCKED: ATOM     19  O11 UNL     1       3.310  -6.302   2.855 +0.00 -0.00    -0.479 OA 
DOCKED: ATOM     20  H46 UNL     1       2.701  -5.614   3.181 +0.00 +0.00    +0.295 HD 
DOCKED: ENDBRANCH  17  19
DOCKED: ENDBRANCH  16  17
DOCKED: BRANCH  16  21
DOCKED: ATOM     21  C24 UNL     1       4.541  -3.498   3.942 +0.00 +0.00    +0.069 C  
DOCKED: BRANCH  21  22
DOCKED: ATOM     22  C25 UNL     1       4.916  -4.495   5.010 +0.00 -0.00    -0.045 A  
DOCKED: ATOM     23  C26 UNL     1       3.909  -5.089   5.783 +0.00 +0.00    +0.004 A  
DOCKED: ATOM     24  C27 UNL     1       4.229  -6.016   6.773 +0.00 +0.00    +0.000 A  
DOCKED: ATOM     25  C28 UNL     1       5.561  -6.372   6.988 +0.00 +0.00    +0.000 A  
DOCKED: ATOM     26  C29 UNL     1       6.570  -5.775   6.239 +0.00 +0.00    +0.000 A  
DOCKED: ATOM     27  C30 UNL     1       6.250  -4.829   5.257 +0.00 +0.00    +0.004 A  
DOCKED: ENDBRANCH  21  22
DOCKED: ENDBRANCH  16  21
DOCKED: ENDBRANCH  14  16
DOCKED: ENDBRANCH  11  12
DOCKED: BRANCH  11  28
DOCKED: ATOM     28  C19 UNL     1       0.136  -2.301   2.592 +0.00 +0.00    +0.043 C  
DOCKED: BRANCH  28  29
DOCKED: ATOM     29  C20 UNL     1      -0.468  -3.611   3.102 +0.00 +0.00    +0.123 C  
DOCKED: BRANCH  29  30
DOCKED: ATOM     30  C21 UNL     1       0.602  -4.612   3.458 +0.00 +0.00    +0.305 C  
DOCKED: ATOM     31  O7  UNL     1       1.507  -4.450   4.257 +0.00 -0.00    -0.251 OA 
DOCKED: BRANCH  30  32
DOCKED: ATOM     32  O8  UNL     1       0.499  -5.741   2.734 +0.00 -0.00    -0.481 OA 
DOCKED: ATOM     33  H36 UNL     1       1.412  -6.086   2.657 +0.00 +0.00    +0.295 HD 
DOCKED: ENDBRANCH  30  32
DOCKED: ENDBRANCH  29  30
DOCKED: ENDBRANCH  28  29
DOCKED: ENDBRANCH  11  28
DOCKED: ENDBRANCH   9  11
DOCKED: ENDBRANCH   5   7
DOCKED: ENDBRANCH   3   5
DOCKED: BRANCH   1  34
DOCKED: ATOM     34  C13 UNL     1       4.295  -6.193  -0.769 +0.00 +0.00    +0.161 C  
DOCKED: BRANCH  34  37
DOCKED: ATOM     35  C12 UNL     1       5.813  -8.045   0.094 +0.00 +0.00    +0.216 C  
DOCKED: ATOM     36  O4  UNL     1       6.420  -8.245  -0.941 +0.00 -0.00    -0.276 OA 
DOCKED: ATOM     37  N4  UNL     1       4.905  -7.011   0.301 +0.00 -0.00    -0.304 N  
DOCKED: ATOM     38  H23 UNL     1       4.289  -7.130   1.101 +0.00 +0.00    +0.149 HD 
DOCKED: BRANCH  35  39
DOCKED: ATOM     39  C11 UNL     1       6.063  -8.833   1.357 +0.00 +0.00    +0.129 C  
DOCKED: BRANCH  39  40
DOCKED: ATOM     40  C10 UNL     1       4.827  -9.286   2.163 +0.00 +0.00    +0.143 C  
DOCKED: BRANCH  40  41
DOCKED: ATOM     41  O3  UNL     1       3.595  -8.665   1.796 +0.00 -0.00    -0.389 OA 
DOCKED: ATOM     42  H20 UNL     1       3.647  -7.733   2.095 +0.00 +0.00    +0.210 HD 
DOCKED: ENDBRANCH  40  41
DOCKED: BRANCH  40  43
DOCKED: ATOM     43  C5  UNL     1       4.978  -9.286   3.710 +0.00 +0.00    +0.102 C  
DOCKED: BRANCH  43  44
DOCKED: ATOM     44  N1  UNL     1       3.799  -8.601   4.256 +0.00 -0.00    -0.309 N  
DOCKED: ATOM     45  C6  UNL     1       2.696  -9.264   4.725 +0.00 +0.00    +0.231 C  
DOCKED: ATOM     46  O1  UNL     1       2.714 -10.452   5.049 +0.00 -0.00    -0.274 OA 
DOCKED: ATOM     47  H11 UNL     1       3.731  -7.601   4.092 +0.00 +0.00    +0.149 HD 
DOCKED: BRANCH  45  48
DOCKED: ATOM     48  C7  UNL     1       1.437  -8.394   4.929 +0.00 +0.00    +0.146 C  
DOCKED: BRANCH  48  49
DOCKED: ATOM     49  N2  UNL     1       1.788  -6.977   4.640 +0.00 -0.00    -0.320 NA 
DOCKED: ATOM     50  H13 UNL     1       2.038  -6.887   3.654 +0.00 +0.00    +0.119 HD 
DOCKED: ATOM     51  H14 UNL     1       0.936  -6.423   4.759 +0.00 +0.00    +0.119 HD 
DOCKED: ENDBRANCH  48  49
DOCKED: BRANCH  48  52
DOCKED: ATOM     52  C8  UNL     1       0.233  -8.842   4.095 +0.00 +0.00    +0.123 C  
DOCKED: BRANCH  52  53
DOCKED: ATOM     53  C9  UNL     1       0.672  -9.139   2.671 +0.00 +0.00    +0.212 C  
DOCKED: ATOM     54  N3  UNL     1       1.203  -8.089   1.977 +0.00 -0.00    -0.329 N  
DOCKED: ATOM     55  O2  UNL     1       0.559 -10.240   2.135 +0.00 -0.00    -0.276 OA 
DOCKED: ATOM     56  H17 UNL     1       1.616  -8.365   1.090 +0.00 +0.00    +0.145 HD 
DOCKED: ATOM     57  H18 UNL     1       1.811  -7.442   2.490 +0.00 +0.00    +0.145 HD 
DOCKED: ENDBRANCH  52  53
DOCKED: ENDBRANCH  48  52
DOCKED: ENDBRANCH  45  48
DOCKED: ENDBRANCH  43  44
DOCKED: BRANCH  43  58
DOCKED: ATOM     58  C4  UNL     1       6.238  -8.584   4.259 +0.00 +0.00    +0.028 C  
DOCKED: BRANCH  58  60
DOCKED: ATOM     59  C1  UNL     1       5.841  -9.718   6.494 +0.00 +0.00    +0.007 C  
DOCKED: ATOM     60  C2  UNL     1       6.882  -9.347   5.433 +0.00 -0.00    -0.015 C  
DOCKED: ATOM     61  C3  UNL     1       7.574 -10.614   4.930 +0.00 +0.00    +0.007 C  
DOCKED: ENDBRANCH  58  60
DOCKED: ENDBRANCH  43  58
DOCKED: ENDBRANCH  40  43
DOCKED: ENDBRANCH  39  40
DOCKED: ENDBRANCH  35  39
DOCKED: ENDBRANCH  34  37
DOCKED: BRANCH  34  62
DOCKED: ATOM     62  C32 UNL     1       4.649  -6.611  -2.217 +0.00 +0.00    +0.012 C  
DOCKED: ATOM     63  C33 UNL     1       4.604  -5.402  -3.167 +0.00 +0.00    +0.009 C  
DOCKED: ATOM     64  C34 UNL     1       3.719  -7.675  -2.815 +0.00 +0.00    +0.009 C  
DOCKED: ENDBRANCH  34  62
DOCKED: ENDBRANCH   1  34
DOCKED: TORSDOF 27
DOCKED: TER
DOCKED: ENDMDL
________________________________________________________________________________


    FINAL DOCKED STATE:
    ________________________


Run:   3 / 20
Time taken for this run:   4.058s

DOCKED: MODEL        3
DOCKED: USER    Run = 3
DOCKED: USER
DOCKED: USER    Estimated Free Energy of Binding    =  +8.05 kcal/mol  [=(1)+(2)+(3)-(4)]
DOCKED: USER
DOCKED: USER    (1) Final Intermolecular Energy     =  +0.00 kcal/mol
DOCKED: USER        vdW + Hbond + desolv Energy     =  +0.00 kcal/mol
DOCKED: USER        Electrostatic Energy            =  +0.00 kcal/mol
DOCKED: USER        Moving Ligand-Fixed Receptor    =  +0.00 kcal/mol
DOCKED: USER        Moving Ligand-Moving Receptor   =  +0.00 kcal/mol
DOCKED: USER    (2) Final Total Internal Energy     = -25.72 kcal/mol
DOCKED: USER    (3) Torsional Free Energy           =  +8.05 kcal/mol
DOCKED: USER    (4) Unbound System's Energy         = -25.72 kcal/mol
DOCKED: USER
DOCKED: USER
DOCKED: REMARK  Name = ligands/ligand_32.pdb
DOCKED: REMARK  32 active torsions:
DOCKED: REMARK  status: ('A' for Active; 'I' for Inactive)
DOCKED: REMARK    1  A    between atoms: C1_1  and  C2_2
DOCKED: REMARK    2  A    between atoms: C2_2  and  C3_3
DOCKED: REMARK    3  A    between atoms: C2_2  and  C4_4
DOCKED: REMARK    4  A    between atoms: C4_4  and  C5_5
DOCKED: REMARK    5  A    between atoms: C5_5  and  N1_6
DOCKED: REMARK    6  A    between atoms: C5_5  and  C10_15
DOCKED: REMARK    7  A    between atoms: C6_7  and  C7_9
DOCKED: REMARK    8  A    between atoms: C7_9  and  N2_10
DOCKED: REMARK    9  A    between atoms: C7_9  and  C8_11
DOCKED: REMARK   10  A    between atoms: C8_11  and  C9_12
DOCKED: REMARK   11  A    between atoms: C10_15  and  O3_16
DOCKED: REMARK   12  A    between atoms: C10_15  and  C11_17
DOCKED: REMARK   13  A    between atoms: C11_17  and  C12_18
DOCKED: REMARK   14  A    between atoms: N4_20  and  C13_21
DOCKED: REMARK   15  A    between atoms: C13_21  and  C14_22
DOCKED: REMARK   16  A    between atoms: C13_21  and  C32_50
DOCKED: REMARK   17  A    between atoms: N5_24  and  C15_25
DOCKED: REMARK   18  A    between atoms: C15_25  and  C16_26
DOCKED: REMARK   19  A    between atoms: C15_25  and  C17_27
DOCKED: REMARK   20  A    between atoms: N6_29  and  C18_30
DOCKED: REMARK   21  A    between atoms: C18_30  and  C19_31
DOCKED: REMARK   22  A    between atoms: C18_30  and  C22_36
DOCKED: REMARK   23  A    between atoms: C19_31  and  C20_32
DOCKED: REMARK   24  A    between atoms: C20_32  and  C21_33
DOCKED: REMARK   25  A    between atoms: C21_33  and  O8_35
DOCKED: REMARK   26  A    between atoms: N7_38  and  C23_39
DOCKED: REMARK   27  A    between atoms: C23_39  and  C24_40
DOCKED: REMARK   28  A    between atoms: C23_39  and  C31_47
DOCKED: REMARK   29  A    between atoms: C24_40  and  C25_41
DOCKED: REMARK   30  A    between atoms: C31_47  and  O11_49
DOCKED: REMARK   31  A    between atoms: C32_50  and  C33_51
DOCKED: REMARK   32  A    between atoms: C32_50  and  C34_52
DOCKED: REMARK                            x       y       z     vdW  Elec       q    Type
DOCKED: REMARK                         _______ _______ _______ _____ _____    ______ ____
DOCKED: USER                              x       y       z     vdW  Elec       q    Type
DOCKED: USER                           _______ _______ _______ _____ _____    ______ ____
DOCKED: ROOT
DOCKED: ATOM      1  C14 UNL     1       3.675  -7.733  -3.179 +0.00 +0.00    +0.234 C  
DOCKED: ATOM      2  O5  UNL     1       3.915  -7.113  -2.145 +0.00 -0.00    -0.274 OA 
DOCKED: ATOM      3  N5  UNL     1       2.405  -7.852  -3.709 +0.00 -0.00    -0.303 N  
DOCKED: ATOM      4  H25 UNL     1       2.369  -8.136  -4.689 +0.00 +0.00    +0.149 HD 
DOCKED: ENDROOT
DOCKED: BRANCH   3   5
DOCKED: ATOM      5  C15 UNL     1       1.270  -7.046  -3.266 +0.00 +0.00    +0.156 C  
DOCKED: ATOM      6  C16 UNL     1       0.962  -7.150  -1.767 +0.00 +0.00    +0.038 C  
DOCKED: BRANCH   5   7
DOCKED: ATOM      7  C17 UNL     1       1.454  -5.598  -3.771 +0.00 +0.00    +0.234 C  
DOCKED: ATOM      8  O6  UNL     1       0.841  -5.162  -4.748 +0.00 -0.00    -0.274 OA 
DOCKED: ATOM      9  N6  UNL     1       2.268  -4.790  -3.009 +0.00 -0.00    -0.302 N  
DOCKED: ATOM     10  H30 UNL     1       2.941  -5.263  -2.411 +0.00 +0.00    +0.150 HD 
DOCKED: BRANCH   9  11
DOCKED: ATOM     11  C18 UNL     1       2.737  -3.504  -3.511 +0.00 +0.00    +0.159 C  
DOCKED: BRANCH  11  12
DOCKED: ATOM     12  C22 UNL     1       4.232  -3.634  -3.813 +0.00 +0.00    +0.234 C  
DOCKED: ATOM     13  O9  UNL     1       4.777  -2.974  -4.699 +0.00 -0.00    -0.274 OA 
DOCKED: ATOM     14  N7  UNL     1       4.893  -4.584  -3.062 +0.00 -0.00    -0.301 N  
DOCKED: ATOM     15  H37 UNL     1       4.435  -4.968  -2.239 +0.00 +0.00    +0.150 HD 
DOCKED: BRANCH  14  16
DOCKED: ATOM     16  C23 UNL     1       6.337  -4.808  -3.211 +0.00 +0.00    +0.186 C  
DOCKED: BRANCH  16  17
DOCKED: ATOM     17  C31 UNL     1       6.728  -5.940  -2.275 +0.00 +0.00    +0.326 C  
DOCKED: ATOM     18  O10 UNL     1       7.741  -6.620  -2.340 +0.00 -0.00    -0.249 OA 
DOCKED: BRANCH  17  19
DOCKED: ATOM     19  O11 UNL     1       5.892  -6.081  -1.234 +0.00 -0.00    -0.479 OA 
DOCKED: ATOM     20  H46 UNL     1       5.419  -5.230  -1.198 +0.00 +0.00    +0.295 HD 
DOCKED: ENDBRANCH  17  19
DOCKED: ENDBRANCH  16  17
DOCKED: BRANCH  16  21
DOCKED: ATOM     21  C24 UNL     1       7.141  -3.553  -2.843 +0.00 +0.00    +0.069 C  
DOCKED: BRANCH  21  22
DOCKED: ATOM     22  C25 UNL     1       8.094  -3.774  -1.694 +0.00 -0.00    -0.045 A  
DOCKED: ATOM     23  C26 UNL     1       9.409  -4.182  -1.956 +0.00 +0.00    +0.004 A  
DOCKED: ATOM     24  C27 UNL     1      10.309  -4.389  -0.913 +0.00 +0.00    +0.000 A  
DOCKED: ATOM     25  C28 UNL     1       9.906  -4.173   0.405 +0.00 +0.00    +0.000 A  
DOCKED: ATOM     26  C29 UNL     1       8.598  -3.786   0.679 +0.00 +0.00    +0.000 A  
DOCKED: ATOM     27  C30 UNL     1       7.688  -3.596  -0.368 +0.00 +0.00    +0.004 A  
DOCKED: ENDBRANCH  21  22
DOCKED: ENDBRANCH  16  21
DOCKED: ENDBRANCH  14  16
DOCKED: ENDBRANCH  11  12
DOCKED: BRANCH  11  28
DOCKED: ATOM     28  C19 UNL     1       2.535  -2.391  -2.476 +0.00 +0.00    +0.043 C  
DOCKED: BRANCH  28  29
DOCKED: ATOM     29  C20 UNL     1       2.427  -2.925  -1.046 +0.00 +0.00    +0.123 C  
DOCKED: BRANCH  29  30
DOCKED: ATOM     30  C21 UNL     1       3.628  -3.757  -0.675 +0.00 +0.00    +0.305 C  
DOCKED: ATOM     31  O7  UNL     1       4.788  -3.386  -0.659 +0.00 -0.00    -0.251 OA 
DOCKED: BRANCH  30  32
DOCKED: ATOM     32  O8  UNL     1       3.297  -5.032  -0.402 +0.00 -0.00    -0.481 OA 
DOCKED: ATOM     33  H36 UNL     1       4.092  -5.560  -0.618 +0.00 +0.00    +0.295 HD 
DOCKED: ENDBRANCH  30  32
DOCKED: ENDBRANCH  29  30
DOCKED: ENDBRANCH  28  29
DOCKED: ENDBRANCH  11  28
DOCKED: ENDBRANCH   9  11
DOCKED: ENDBRANCH   5   7
DOCKED: ENDBRANCH   3   5
DOCKED: BRANCH   1  34
DOCKED: ATOM     34  C13 UNL     1       4.803  -8.364  -4.036 +0.00 +0.00    +0.161 C  
DOCKED: BRANCH  34  37
DOCKED: ATOM     35  C12 UNL     1       6.734  -9.679  -3.027 +0.00 +0.00    +0.216 C  
DOCKED: ATOM     36  O4  UNL     1       6.700 -10.622  -3.795 +0.00 -0.00    -0.276 OA 
DOCKED: ATOM     37  N4  UNL     1       5.980  -8.517  -3.153 +0.00 -0.00    -0.304 N  
DOCKED: ATOM     38  H23 UNL     1       5.913  -7.950  -2.312 +0.00 +0.00    +0.149 HD 
DOCKED: BRANCH  35  39
DOCKED: ATOM     39  C11 UNL     1       7.713  -9.590  -1.880 +0.00 +0.00    +0.129 C  
DOCKED: BRANCH  39  40
DOCKED: ATOM     40  C10 UNL     1       7.152  -9.177  -0.504 +0.00 +0.00    +0.143 C  
DOCKED: BRANCH  40  41
DOCKED: ATOM     41  O3  UNL     1       5.824  -8.651  -0.516 +0.00 -0.00    -0.389 OA 
DOCKED: ATOM     42  H20 UNL     1       5.864  -7.789  -0.979 +0.00 +0.00    +0.210 HD 
DOCKED: ENDBRANCH  40  41
DOCKED: BRANCH  40  43
DOCKED: ATOM     43  C5  UNL     1       8.068  -8.275   0.369 +0.00 +0.00    +0.102 C  
DOCKED: BRANCH  43  44
DOCKED: ATOM     44  N1  UNL     1       7.252  -7.138   0.814 +0.00 -0.00    -0.309 N  
DOCKED: ATOM     45  C6  UNL     1       6.693  -7.057   2.062 +0.00 +0.00    +0.231 C  
DOCKED: ATOM     46  O1  UNL     1       7.084  -7.730   3.018 +0.00 -0.00    -0.274 OA 
DOCKED: ATOM     47  H11 UNL     1       6.936  -6.489   0.098 +0.00 +0.00    +0.149 HD 
DOCKED: BRANCH  45  48
DOCKED: ATOM     48  C7  UNL     1       5.599  -5.981   2.230 +0.00 +0.00    +0.146 C  
DOCKED: BRANCH  48  49
DOCKED: ATOM     49  N2  UNL     1       5.547  -5.160   0.990 +0.00 -0.00    -0.320 NA 
DOCKED: ATOM     50  H13 UNL     1       5.258  -5.750   0.209 +0.00 +0.00    +0.119 HD 
DOCKED: ATOM     51  H14 UNL     1       4.796  -4.477   1.110 +0.00 +0.00    +0.119 HD 
DOCKED: ENDBRANCH  48  49
DOCKED: BRANCH  48  52
DOCKED: ATOM     52  C8  UNL     1       4.218  -6.549   2.571 +0.00 +0.00    +0.123 C  
DOCKED: BRANCH  52  53
DOCKED: ATOM     53  C9  UNL     1       3.906  -7.727   1.663 +0.00 +0.00    +0.212 C  
DOCKED: ATOM     54  N3  UNL     1       3.836  -7.452   0.327 +0.00 -0.00    -0.329 N  
DOCKED: ATOM     55  O2  UNL     1       3.707  -8.871   2.069 +0.00 -0.00    -0.276 OA 
DOCKED: ATOM     56  H17 UNL     1       3.774  -8.286  -0.250 +0.00 +0.00    +0.145 HD 
DOCKED: ATOM     57  H18 UNL     1       4.512  -6.781  -0.053 +0.00 +0.00    +0.145 HD 
DOCKED: ENDBRANCH  52  53
DOCKED: ENDBRANCH  48  52
DOCKED: ENDBRANCH  45  48
DOCKED: ENDBRANCH  43  44
DOCKED: BRANCH  43  58
DOCKED: ATOM     58  C4  UNL     1       9.324  -7.717  -0.334 +0.00 +0.00    +0.028 C  
DOCKED: BRANCH  58  60
DOCKED: ATOM     59  C1  UNL     1      10.384  -8.407   1.865 +0.00 +0.00    +0.007 C  
DOCKED: ATOM     60  C2  UNL     1      10.504  -7.504   0.634 +0.00 -0.00    -0.015 C  
DOCKED: ATOM     61  C3  UNL     1      11.832  -7.778  -0.074 +0.00 +0.00    +0.007 C  
DOCKED: ENDBRANCH  58  60
DOCKED: ENDBRANCH  43  58
DOCKED: ENDBRANCH  40  43
DOCKED: ENDBRANCH  39  40
DOCKED: ENDBRANCH  35  39
DOCKED: ENDBRANCH  34  37
DOCKED: BRANCH  34  62
DOCKED: ATOM     62  C32 UNL     1       4.410  -9.619  -4.853 +0.00 +0.00    +0.012 C  
DOCKED: ATOM     63  C33 UNL     1       3.729  -9.224  -6.175 +0.00 +0.00    +0.009 C  
DOCKED: ATOM     64  C34 UNL     1       3.448 -10.571  -4.130 +0.00 +0.00    +0.009 C  
DOCKED: ENDBRANCH  34  62
DOCKED: ENDBRANCH   1  34
DOCKED: TORSDOF 27
DOCKED: TER
DOCKED: ENDMDL
________________________________________________________________________________


    FINAL DOCKED STATE:
    ________________________


Run:   4 / 20
Time taken for this run:   4.058s

DOCKED: MODEL        4
DOCKED: USER    Run = 4
DOCKED: USER
DOCKED: USER    Estimated Free Energy of Binding    =  +8.05 kcal/mol  [=(1)+(2)+(3)-(4)]
DOCKED: USER
DOCKED: USER    (1) Final Intermolecular Energy     =  +0.00 kcal/mol
DOCKED: USER        vdW + Hbond + desolv Energy     =  +0.00 kcal/mol
DOCKED: USER        Electrostatic Energy            =  +0.00 kcal/mol
DOCKED: USER        Moving Ligand-Fixed Receptor    =  +0.00 kcal/mol
DOCKED: USER        Moving Ligand-Moving Receptor   =  +0.00 kcal/mol
DOCKED: USER    (2) Final Total Internal Energy     = -25.64 kcal/mol
DOCKED: USER    (3) Torsional Free Energy           =  +8.05 kcal/mol
DOCKED: USER    (4) Unbound System's Energy         = -25.64 kcal/mol
DOCKED: USER
DOCKED: USER
DOCKED: REMARK  Name = ligands/ligand_32.pdb
DOCKED: REMARK  32 active torsions:
DOCKED: REMARK  status: ('A' for Active; 'I' for Inactive)
DOCKED: REMARK    1  A    between atoms: C1_1  and  C2_2
DOCKED: REMARK    2  A    between atoms: C2_2  and  C3_3
DOCKED: REMARK    3  A    between atoms: C2_2  and  C4_4
DOCKED: REMARK    4  A    between atoms: C4_4  and  C5_5
DOCKED: REMARK    5  A    between atoms: C5_5  and  N1_6
DOCKED: REMARK    6  A    between atoms: C5_5  and  C10_15
DOCKED: REMARK    7  A    between atoms: C6_7  and  C7_9
DOCKED: REMARK    8  A    between atoms: C7_9  and  N2_10
DOCKED: REMARK    9  A    between atoms: C7_9  and  C8_11
DOCKED: REMARK   10  A    between atoms: C8_11  and  C9_12
DOCKED: REMARK   11  A    between atoms: C10_15  and  O3_16
DOCKED: REMARK   12  A    between atoms: C10_15  and  C11_17
DOCKED: REMARK   13  A    between atoms: C11_17  and  C12_18
DOCKED: REMARK   14  A    between atoms: N4_20  and  C13_21
DOCKED: REMARK   15  A    between atoms: C13_21  and  C14_22
DOCKED: REMARK   16  A    between atoms: C13_21  and  C32_50
DOCKED: REMARK   17  A    between atoms: N5_24  and  C15_25
DOCKED: REMARK   18  A    between atoms: C15_25  and  C16_26
DOCKED: REMARK   19  A    between atoms: C15_25  and  C17_27
DOCKED: REMARK   20  A    between atoms: N6_29  and  C18_30
DOCKED: REMARK   21  A    between atoms: C18_30  and  C19_31
DOCKED: REMARK   22  A    between atoms: C18_30  and  C22_36
DOCKED: REMARK   23  A    between atoms: C19_31  and  C20_32
DOCKED: REMARK   24  A    between atoms: C20_32  and  C21_33
DOCKED: REMARK   25  A    between atoms: C21_33  and  O8_35
DOCKED: REMARK   26  A    between atoms: N7_38  and  C23_39
DOCKED: REMARK   27  A    between atoms: C23_39  and  C24_40
DOCKED: REMARK   28  A    between atoms: C23_39  and  C31_47
DOCKED: REMARK   29  A    between atoms: C24_40  and  C25_41
DOCKED: REMARK   30  A    between atoms: C31_47  and  O11_49
DOCKED: REMARK   31  A    between atoms: C32_50  and  C33_51
DOCKED: REMARK   32  A    between atoms: C32_50  and  C34_52
DOCKED: REMARK                            x       y       z     vdW  Elec       q    Type
DOCKED: REMARK                         _______ _______ _______ _____ _____    ______ ____
DOCKED: USER                              x       y       z     vdW  Elec       q    Type
DOCKED: USER                           _______ _______ _______ _____ _____    ______ ____
DOCKED: ROOT
DOCKED: ATOM      1  C14 UNL     1       9.884  -8.399  -0.478 +0.00 +0.00    +0.234 C  
DOCKED: ATOM      2  O5  UNL     1       8.922  -7.853  -1.014 +0.00 -0.00    -0.274 OA 
DOCKED: ATOM      3  N5  UNL     1      10.801  -9.163  -1.173 +0.00 -0.00    -0.303 N  
DOCKED: ATOM      4  H25 UNL     1      11.686  -9.323  -0.691 +0.00 +0.00    +0.149 HD 
DOCKED: ENDROOT
DOCKED: BRANCH   3   5
DOCKED: ATOM      5  C15 UNL     1      10.890  -9.184  -2.632 +0.00 +0.00    +0.156 C  
DOCKED: ATOM      6  C16 UNL     1       9.616  -9.663  -3.338 +0.00 +0.00    +0.038 C  
DOCKED: BRANCH   5   7
DOCKED: ATOM      7  C17 UNL     1      11.404  -7.813  -3.124 +0.00 +0.00    +0.234 C  
DOCKED: ATOM      8  O6  UNL     1      12.591  -7.619  -3.399 +0.00 -0.00    -0.274 OA 
DOCKED: ATOM      9  N6  UNL     1      10.446  -6.847  -3.335 +0.00 -0.00    -0.302 N  
DOCKED: ATOM     10  H30 UNL     1       9.566  -6.968  -2.838 +0.00 +0.00    +0.150 HD 
DOCKED: BRANCH   9  11
DOCKED: ATOM     11  C18 UNL     1      10.815  -5.450  -3.535 +0.00 +0.00    +0.159 C  
DOCKED: BRANCH  11  12
DOCKED: ATOM     12  C22 UNL     1      10.679  -4.731  -2.190 +0.00 +0.00    +0.234 C  
DOCKED: ATOM     13  O9  UNL     1      11.460  -3.843  -1.845 +0.00 -0.00    -0.274 OA 
DOCKED: ATOM     14  N7  UNL     1       9.661  -5.198  -1.385 +0.00 -0.00    -0.301 N  
DOCKED: ATOM     15  H37 UNL     1       8.951  -5.805  -1.789 +0.00 +0.00    +0.150 HD 
DOCKED: BRANCH  14  16
DOCKED: ATOM     16  C23 UNL     1       9.381  -4.591  -0.077 +0.00 +0.00    +0.186 C  
DOCKED: BRANCH  16  17
DOCKED: ATOM     17  C31 UNL     1       8.016  -5.084   0.378 +0.00 +0.00    +0.326 C  
DOCKED: ATOM     18  O10 UNL     1       7.328  -4.601   1.265 +0.00 -0.00    -0.249 OA 
DOCKED: BRANCH  17  19
DOCKED: ATOM     19  O11 UNL     1       7.530  -6.078  -0.382 +0.00 -0.00    -0.479 OA 
DOCKED: ATOM     20  H46 UNL     1       7.591  -5.728  -1.289 +0.00 +0.00    +0.295 HD 
DOCKED: ENDBRANCH  17  19
DOCKED: ENDBRANCH  16  17
DOCKED: BRANCH  16  21
DOCKED: ATOM     21  C24 UNL     1       9.358  -3.058  -0.162 +0.00 +0.00    +0.069 C  
DOCKED: BRANCH  21  22
DOCKED: ATOM     22  C25 UNL     1       8.345  -2.534  -1.150 +0.00 -0.00    -0.045 A  
DOCKED: ATOM     23  C26 UNL     1       6.993  -2.474  -0.787 +0.00 +0.00    +0.004 A  
DOCKED: ATOM     24  C27 UNL     1       6.040  -1.990  -1.680 +0.00 +0.00    +0.000 A  
DOCKED: ATOM     25  C28 UNL     1       6.433  -1.545  -2.943 +0.00 +0.00    +0.000 A  
DOCKED: ATOM     26  C29 UNL     1       7.770  -1.618  -3.321 +0.00 +0.00    +0.000 A  
DOCKED: ATOM     27  C30 UNL     1       8.725  -2.121  -2.430 +0.00 +0.00    +0.004 A  
DOCKED: ENDBRANCH  21  22
DOCKED: ENDBRANCH  16  21
DOCKED: ENDBRANCH  14  16
DOCKED: ENDBRANCH  11  12
DOCKED: BRANCH  11  28
DOCKED: ATOM     28  C19 UNL     1       9.898  -4.770  -4.557 +0.00 +0.00    +0.043 C  
DOCKED: BRANCH  28  29
DOCKED: ATOM     29  C20 UNL     1       8.589  -5.532  -4.777 +0.00 +0.00    +0.123 C  
DOCKED: BRANCH  29  30
DOCKED: ATOM     30  C21 UNL     1       7.770  -5.601  -3.512 +0.00 +0.00    +0.305 C  
DOCKED: ATOM     31  O7  UNL     1       7.386  -4.656  -2.847 +0.00 -0.00    -0.251 OA 
DOCKED: BRANCH  30  32
DOCKED: ATOM     32  O8  UNL     1       7.537  -6.869  -3.129 +0.00 -0.00    -0.481 OA 
DOCKED: ATOM     33  H36 UNL     1       7.409  -6.829  -2.160 +0.00 +0.00    +0.295 HD 
DOCKED: ENDBRANCH  30  32
DOCKED: ENDBRANCH  29  30
DOCKED: ENDBRANCH  28  29
DOCKED: ENDBRANCH  11  28
DOCKED: ENDBRANCH   9  11
DOCKED: ENDBRANCH   5   7
DOCKED: ENDBRANCH   3   5
DOCKED: BRANCH   1  34
DOCKED: ATOM     34  C13 UNL     1      10.206  -8.199   1.026 +0.00 +0.00    +0.161 C  
DOCKED: BRANCH  34  37
DOCKED: ATOM     35  C12 UNL     1       8.720  -7.559   2.991 +0.00 +0.00    +0.216 C  
DOCKED: ATOM     36  O4  UNL     1       9.488  -7.880   3.879 +0.00 -0.00    -0.276 OA 
DOCKED: ATOM     37  N4  UNL     1       9.029  -7.541   1.634 +0.00 -0.00    -0.304 N  
DOCKED: ATOM     38  H23 UNL     1       8.229  -7.516   1.008 +0.00 +0.00    +0.149 HD 
DOCKED: BRANCH  35  39
DOCKED: ATOM     39  C11 UNL     1       7.341  -7.005   3.259 +0.00 +0.00    +0.129 C  
DOCKED: BRANCH  39  40
DOCKED: ATOM     40  C10 UNL     1       6.194  -7.501   2.354 +0.00 +0.00    +0.143 C  
DOCKED: BRANCH  40  41
DOCKED: ATOM     41  O3  UNL     1       6.595  -8.034   1.091 +0.00 -0.00    -0.389 OA 
DOCKED: ATOM     42  H20 UNL     1       6.914  -7.280   0.553 +0.00 +0.00    +0.210 HD 
DOCKED: ENDBRANCH  40  41
DOCKED: BRANCH  40  43
DOCKED: ATOM     43  C5  UNL     1       5.002  -6.523   2.159 +0.00 +0.00    +0.102 C  
DOCKED: BRANCH  43  44
DOCKED: ATOM     44  N1  UNL     1       4.910  -6.240   0.721 +0.00 -0.00    -0.309 N  
DOCKED: ATOM     45  C6  UNL     1       3.993  -6.836  -0.105 +0.00 +0.00    +0.231 C  
DOCKED: ATOM     46  O1  UNL     1       2.970  -7.382   0.311 +0.00 -0.00    -0.274 OA 
DOCKED: ATOM     47  H11 UNL     1       5.684  -5.734   0.300 +0.00 +0.00    +0.149 HD 
DOCKED: BRANCH  45  48
DOCKED: ATOM     48  C7  UNL     1       4.268  -6.689  -1.617 +0.00 +0.00    +0.146 C  
DOCKED: BRANCH  48  49
DOCKED: ATOM     49  N2  UNL     1       5.478  -5.841  -1.799 +0.00 -0.00    -0.320 NA 
DOCKED: ATOM     50  H13 UNL     1       6.287  -6.323  -1.406 +0.00 +0.00    +0.119 HD 
DOCKED: ATOM     51  H14 UNL     1       5.656  -5.778  -2.804 +0.00 +0.00    +0.119 HD 
DOCKED: ENDBRANCH  48  49
DOCKED: BRANCH  48  52
DOCKED: ATOM     52  C8  UNL     1       4.417  -8.023  -2.353 +0.00 +0.00    +0.123 C  
DOCKED: BRANCH  52  53
DOCKED: ATOM     53  C9  UNL     1       5.312  -8.956  -1.555 +0.00 +0.00    +0.212 C  
DOCKED: ATOM     54  N3  UNL     1       6.600  -8.538  -1.371 +0.00 -0.00    -0.329 N  
DOCKED: ATOM     55  O2  UNL     1       4.943 -10.036  -1.099 +0.00 -0.00    -0.276 OA 
DOCKED: ATOM     56  H17 UNL     1       7.117  -9.115  -0.713 +0.00 +0.00    +0.145 HD 
DOCKED: ATOM     57  H18 UNL     1       6.753  -7.540  -1.198 +0.00 +0.00    +0.145 HD 
DOCKED: ENDBRANCH  52  53
DOCKED: ENDBRANCH  48  52
DOCKED: ENDBRANCH  45  48
DOCKED: ENDBRANCH  43  44
DOCKED: BRANCH  43  58
DOCKED: ATOM     58  C4  UNL     1       5.112  -5.176   2.905 +0.00 +0.00    +0.028 C  
DOCKED: BRANCH  58  60
DOCKED: ATOM     59  C1  UNL     1       3.027  -3.812   2.425 +0.00 +0.00    +0.007 C  
DOCKED: ATOM     60  C2  UNL     1       4.513  -4.001   2.106 +0.00 -0.00    -0.015 C  
DOCKED: ATOM     61  C3  UNL     1       5.271  -2.708   2.410 +0.00 +0.00    +0.007 C  
DOCKED: ENDBRANCH  58  60
DOCKED: ENDBRANCH  43  58
DOCKED: ENDBRANCH  40  43
DOCKED: ENDBRANCH  39  40
DOCKED: ENDBRANCH  35  39
DOCKED: ENDBRANCH  34  37
DOCKED: BRANCH  34  62
DOCKED: ATOM     62  C32 UNL     1      10.740  -9.444   1.774 +0.00 +0.00    +0.012 C  
DOCKED: ATOM     63  C33 UNL     1      12.260  -9.593   1.581 +0.00 +0.00    +0.009 C  
DOCKED: ATOM     64  C34 UNL     1      10.108 -10.770   1.332 +0.00 +0.00    +0.009 C  
DOCKED: ENDBRANCH  34  62
DOCKED: ENDBRANCH   1  34
DOCKED: TORSDOF 27
DOCKED: TER
DOCKED: ENDMDL
________________________________________________________________________________


    FINAL DOCKED STATE:
    ________________________


Run:   5 / 20
Time taken for this run:   4.058s

DOCKED: MODEL        5
DOCKED: USER    Run = 5
DOCKED: USER
DOCKED: USER    Estimated Free Energy of Binding    =  +8.05 kcal/mol  [=(1)+(2)+(3)-(4)]
DOCKED: USER
DOCKED: USER    (1) Final Intermolecular Energy     =  +0.00 kcal/mol
DOCKED: USER        vdW + Hbond + desolv Energy     =  +0.00 kcal/mol
DOCKED: USER        Electrostatic Energy            =  +0.00 kcal/mol
DOCKED: USER        Moving Ligand-Fixed Receptor    =  +0.00 kcal/mol
DOCKED: USER        Moving Ligand-Moving Receptor   =  +0.00 kcal/mol
DOCKED: USER    (2) Final Total Internal Energy     = -25.80 kcal/mol
DOCKED: USER    (3) Torsional Free Energy           =  +8.05 kcal/mol
DOCKED: USER    (4) Unbound System's Energy         = -25.80 kcal/mol
DOCKED: USER
DOCKED: USER
DOCKED: REMARK  Name = ligands/ligand_32.pdb
DOCKED: REMARK  32 active torsions:
DOCKED: REMARK  status: ('A' for Active; 'I' for Inactive)
DOCKED: REMARK    1  A    between atoms: C1_1  and  C2_2
DOCKED: REMARK    2  A    between atoms: C2_2  and  C3_3
DOCKED: REMARK    3  A    between atoms: C2_2  and  C4_4
DOCKED: REMARK    4  A    between atoms: C4_4  and  C5_5
DOCKED: REMARK    5  A    between atoms: C5_5  and  N1_6
DOCKED: REMARK    6  A    between atoms: C5_5  and  C10_15
DOCKED: REMARK    7  A    between atoms: C6_7  and  C7_9
DOCKED: REMARK    8  A    between atoms: C7_9  and  N2_10
DOCKED: REMARK    9  A    between atoms: C7_9  and  C8_11
DOCKED: REMARK   10  A    between atoms: C8_11  and  C9_12
DOCKED: REMARK   11  A    between atoms: C10_15  and  O3_16
DOCKED: REMARK   12  A    between atoms: C10_15  and  C11_17
DOCKED: REMARK   13  A    between atoms: C11_17  and  C12_18
DOCKED: REMARK   14  A    between atoms: N4_20  and  C13_21
DOCKED: REMARK   15  A    between atoms: C13_21  and  C14_22
DOCKED: REMARK   16  A    between atoms: C13_21  and  C32_50
DOCKED: REMARK   17  A    between atoms: N5_24  and  C15_25
DOCKED: REMARK   18  A    between atoms: C15_25  and  C16_26
DOCKED: REMARK   19  A    between atoms: C15_25  and  C17_27
DOCKED: REMARK   20  A    between atoms: N6_29  and  C18_30
DOCKED: REMARK   21  A    between atoms: C18_30  and  C19_31
DOCKED: REMARK   22  A    between atoms: C18_30  and  C22_36
DOCKED: REMARK   23  A    between atoms: C19_31  and  C20_32
DOCKED: REMARK   24  A    between atoms: C20_32  and  C21_33
DOCKED: REMARK   25  A    between atoms: C21_33  and  O8_35
DOCKED: REMARK   26  A    between atoms: N7_38  and  C23_39
DOCKED: REMARK   27  A    between atoms: C23_39  and  C24_40
DOCKED: REMARK   28  A    between atoms: C23_39  and  C31_47
DOCKED: REMARK   29  A    between atoms: C24_40  and  C25_41
DOCKED: REMARK   30  A    between atoms: C31_47  and  O11_49
DOCKED: REMARK   31  A    between atoms: C32_50  and  C33_51
DOCKED: REMARK   32  A    between atoms: C32_50  and  C34_52
DOCKED: REMARK                            x       y       z     vdW  Elec       q    Type
DOCKED: REMARK                         _______ _______ _______ _____ _____    ______ ____
DOCKED: USER                              x       y       z     vdW  Elec       q    Type
DOCKED: USER                           _______ _______ _______ _____ _____    ______ ____
DOCKED: ROOT
DOCKED: ATOM      1  C14 UNL     1       4.987  -1.285   2.116 +0.00 +0.00    +0.234 C  
DOCKED: ATOM      2  O5  UNL     1       6.198  -1.078   2.150 +0.00 -0.00    -0.274 OA 
DOCKED: ATOM      3  N5  UNL     1       4.260  -1.310   0.941 +0.00 -0.00    -0.303 N  
DOCKED: ATOM      4  H25 UNL     1       3.347  -1.761   1.007 +0.00 +0.00    +0.149 HD 
DOCKED: ENDROOT
DOCKED: BRANCH   3   5
DOCKED: ATOM      5  C15 UNL     1       4.873  -1.364  -0.384 +0.00 +0.00    +0.156 C  
DOCKED: ATOM      6  C16 UNL     1       5.858  -0.226  -0.676 +0.00 +0.00    +0.038 C  
DOCKED: BRANCH   5   7
DOCKED: ATOM      7  C17 UNL     1       5.459  -2.776  -0.609 +0.00 +0.00    +0.234 C  
DOCKED: ATOM      8  O6  UNL     1       4.857  -3.640  -1.251 +0.00 -0.00    -0.274 OA 
DOCKED: ATOM      9  N6  UNL     1       6.735  -2.985  -0.137 +0.00 -0.00    -0.302 N  
DOCKED: ATOM     10  H30 UNL     1       7.051  -2.359   0.601 +0.00 +0.00    +0.150 HD 
DOCKED: BRANCH   9  11
DOCKED: ATOM     11  C18 UNL     1       7.295  -4.328  -0.043 +0.00 +0.00    +0.159 C  
DOCKED: BRANCH  11  12
DOCKED: ATOM     12  C22 UNL     1       7.277  -4.742   1.431 +0.00 +0.00    +0.234 C  
DOCKED: ATOM     13  O9  UNL     1       7.158  -5.919   1.774 +0.00 -0.00    -0.274 OA 
DOCKED: ATOM     14  N7  UNL     1       7.342  -3.695   2.327 +0.00 -0.00    -0.301 N  
DOCKED: ATOM     15  H37 UNL     1       7.611  -2.773   1.990 +0.00 +0.00    +0.150 HD 
DOCKED: BRANCH  14  16
DOCKED: ATOM     16  C23 UNL     1       7.367  -3.930   3.777 +0.00 +0.00    +0.186 C  
DOCKED: BRANCH  16  17
DOCKED: ATOM     17  C31 UNL     1       7.425  -2.574   4.463 +0.00 +0.00    +0.326 C  
DOCKED: ATOM     18  O10 UNL     1       7.149  -2.337   5.629 +0.00 -0.00    -0.249 OA 
DOCKED: BRANCH  17  19
DOCKED: ATOM     19  O11 UNL     1       7.942  -1.607   3.687 +0.00 -0.00    -0.479 OA 
DOCKED: ATOM     20  H46 UNL     1       8.457  -2.096   3.019 +0.00 +0.00    +0.295 HD 
DOCKED: ENDBRANCH  17  19
DOCKED: ENDBRANCH  16  17
DOCKED: BRANCH  16  21
DOCKED: ATOM     21  C24 UNL     1       8.593  -4.754   4.192 +0.00 +0.00    +0.069 C  
DOCKED: BRANCH  21  22
DOCKED: ATOM     22  C25 UNL     1       9.479  -4.042   5.185 +0.00 -0.00    -0.045 A  
DOCKED: ATOM     23  C26 UNL     1      10.534  -3.245   4.722 +0.00 +0.00    +0.004 A  
DOCKED: ATOM     24  C27 UNL     1      11.362  -2.573   5.619 +0.00 +0.00    +0.000 A  
DOCKED: ATOM     25  C28 UNL     1      11.132  -2.681   6.991 +0.00 +0.00    +0.000 A  
DOCKED: ATOM     26  C29 UNL     1      10.099  -3.485   7.462 +0.00 +0.00    +0.000 A  
DOCKED: ATOM     27  C30 UNL     1       9.278  -4.174   6.562 +0.00 +0.00    +0.004 A  
DOCKED: ENDBRANCH  21  22
DOCKED: ENDBRANCH  16  21
DOCKED: ENDBRANCH  14  16
DOCKED: ENDBRANCH  11  12
DOCKED: BRANCH  11  28
DOCKED: ATOM     28  C19 UNL     1       8.739  -4.370  -0.553 +0.00 +0.00    +0.043 C  
DOCKED: BRANCH  28  29
DOCKED: ATOM     29  C20 UNL     1       9.426  -3.003  -0.500 +0.00 +0.00    +0.123 C  
DOCKED: BRANCH  29  30
DOCKED: ATOM     30  C21 UNL     1       9.403  -2.426   0.893 +0.00 +0.00    +0.305 C  
DOCKED: ATOM     31  O7  UNL     1       9.863  -2.941   1.896 +0.00 -0.00    -0.251 OA 
DOCKED: BRANCH  30  32
DOCKED: ATOM     32  O8  UNL     1       8.745  -1.254   0.945 +0.00 -0.00    -0.481 OA 
DOCKED: ATOM     33  H36 UNL     1       8.368  -1.206   1.847 +0.00 +0.00    +0.295 HD 
DOCKED: ENDBRANCH  30  32
DOCKED: ENDBRANCH  29  30
DOCKED: ENDBRANCH  28  29
DOCKED: ENDBRANCH  11  28
DOCKED: ENDBRANCH   9  11
DOCKED: ENDBRANCH   5   7
DOCKED: ENDBRANCH   3   5
DOCKED: BRANCH   1  34
DOCKED: ATOM     34  C13 UNL     1       4.179  -1.634   3.393 +0.00 +0.00    +0.161 C  
DOCKED: BRANCH  34  37
DOCKED: ATOM     35  C12 UNL     1       4.499  -0.443   5.619 +0.00 +0.00    +0.216 C  
DOCKED: ATOM     36  O4  UNL     1       3.322  -0.288   5.884 +0.00 -0.00    -0.276 OA 
DOCKED: ATOM     37  N4  UNL     1       4.986  -1.185   4.548 +0.00 -0.00    -0.304 N  
DOCKED: ATOM     38  H23 UNL     1       5.956  -1.003   4.300 +0.00 +0.00    +0.149 HD 
DOCKED: BRANCH  35  39
DOCKED: ATOM     39  C11 UNL     1       5.613   0.056   6.509 +0.00 +0.00    +0.129 C  
DOCKED: BRANCH  39  40
DOCKED: ATOM     40  C10 UNL     1       6.785   0.791   5.826 +0.00 +0.00    +0.143 C  
DOCKED: BRANCH  40  41
DOCKED: ATOM     41  O3  UNL     1       6.841   0.669   4.404 +0.00 -0.00    -0.389 OA 
DOCKED: ATOM     42  H20 UNL     1       7.063  -0.265   4.209 +0.00 +0.00    +0.210 HD 
DOCKED: ENDBRANCH  40  41
DOCKED: BRANCH  40  43
DOCKED: ATOM     43  C5  UNL     1       8.195   0.547   6.433 +0.00 +0.00    +0.102 C  
DOCKED: BRANCH  43  44
DOCKED: ATOM     44  N1  UNL     1       9.091   0.216   5.317 +0.00 -0.00    -0.309 N  
DOCKED: ATOM     45  C6  UNL     1       9.934   1.126   4.736 +0.00 +0.00    +0.231 C  
DOCKED: ATOM     46  O1  UNL     1      10.272   2.176   5.286 +0.00 -0.00    -0.274 OA 
DOCKED: ATOM     47  H11 UNL     1       8.927  -0.666   4.840 +0.00 +0.00    +0.149 HD 
DOCKED: BRANCH  45  48
DOCKED: ATOM     48  C7  UNL     1      10.530   0.705   3.376 +0.00 +0.00    +0.146 C  
DOCKED: BRANCH  48  49
DOCKED: ATOM     49  N2  UNL     1      10.133  -0.704   3.100 +0.00 -0.00    -0.320 NA 
DOCKED: ATOM     50  H13 UNL     1       9.119  -0.753   2.999 +0.00 +0.00    +0.119 HD 
DOCKED: ATOM     51  H14 UNL     1      10.514  -0.953   2.185 +0.00 +0.00    +0.119 HD 
DOCKED: ENDBRANCH  48  49
DOCKED: BRANCH  48  52
DOCKED: ATOM     52  C8  UNL     1      10.136   1.622   2.215 +0.00 +0.00    +0.123 C  
DOCKED: BRANCH  52  53
DOCKED: ATOM     53  C9  UNL     1       8.647   1.917   2.271 +0.00 +0.00    +0.212 C  
DOCKED: ATOM     54  N3  UNL     1       7.818   0.838   2.143 +0.00 -0.00    -0.329 N  
DOCKED: ATOM     55  O2  UNL     1       8.176   3.045   2.407 +0.00 -0.00    -0.276 OA 
DOCKED: ATOM     56  H17 UNL     1       6.844   1.058   2.333 +0.00 +0.00    +0.145 HD 
DOCKED: ATOM     57  H18 UNL     1       8.103  -0.034   2.599 +0.00 +0.00    +0.145 HD 
DOCKED: ENDBRANCH  52  53
DOCKED: ENDBRANCH  48  52
DOCKED: ENDBRANCH  45  48
DOCKED: ENDBRANCH  43  44
DOCKED: BRANCH  43  58
DOCKED: ATOM     58  C4  UNL     1       8.289  -0.589   7.474 +0.00 +0.00    +0.028 C  
DOCKED: BRANCH  58  60
DOCKED: ATOM     59  C1  UNL     1      10.452   0.469   8.274 +0.00 +0.00    +0.007 C  
DOCKED: ATOM     60  C2  UNL     1       9.144  -0.206   8.698 +0.00 -0.00    -0.015 C  
DOCKED: ATOM     61  C3  UNL     1       8.363   0.726   9.625 +0.00 +0.00    +0.007 C  
DOCKED: ENDBRANCH  58  60
DOCKED: ENDBRANCH  43  58
DOCKED: ENDBRANCH  40  43
DOCKED: ENDBRANCH  39  40
DOCKED: ENDBRANCH  35  39
DOCKED: ENDBRANCH  34  37
DOCKED: BRANCH  34  62
DOCKED: ATOM     62  C32 UNL     1       2.697  -1.188   3.397 +0.00 +0.00    +0.012 C  
DOCKED: ATOM     63  C33 UNL     1       1.813  -2.209   2.659 +0.00 +0.00    +0.009 C  
DOCKED: ATOM     64  C34 UNL     1       2.442   0.173   2.737 +0.00 +0.00    +0.009 C  
DOCKED: ENDBRANCH  34  62
DOCKED: ENDBRANCH   1  34
DOCKED: TORSDOF 27
DOCKED: TER
DOCKED: ENDMDL
________________________________________________________________________________


    FINAL DOCKED STATE:
    ________________________


Run:   6 / 20
Time taken for this run:   4.058s

DOCKED: MODEL        6
DOCKED: USER    Run = 6
DOCKED: USER
DOCKED: USER    Estimated Free Energy of Binding    =  +8.05 kcal/mol  [=(1)+(2)+(3)-(4)]
DOCKED: USER
DOCKED: USER    (1) Final Intermolecular Energy     =  +0.00 kcal/mol
DOCKED: USER        vdW + Hbond + desolv Energy     =  +0.00 kcal/mol
DOCKED: USER        Electrostatic Energy            =  +0.00 kcal/mol
DOCKED: USER        Moving Ligand-Fixed Receptor    =  +0.00 kcal/mol
DOCKED: USER        Moving Ligand-Moving Receptor   =  +0.00 kcal/mol
DOCKED: USER    (2) Final Total Internal Energy     = -25.75 kcal/mol
DOCKED: USER    (3) Torsional Free Energy           =  +8.05 kcal/mol
DOCKED: USER    (4) Unbound System's Energy         = -25.75 kcal/mol
DOCKED: USER
DOCKED: USER
DOCKED: REMARK  Name = ligands/ligand_32.pdb
DOCKED: REMARK  32 active torsions:
DOCKED: REMARK  status: ('A' for Active; 'I' for Inactive)
DOCKED: REMARK    1  A    between atoms: C1_1  and  C2_2
DOCKED: REMARK    2  A    between atoms: C2_2  and  C3_3
DOCKED: REMARK    3  A    between atoms: C2_2  and  C4_4
DOCKED: REMARK    4  A    between atoms: C4_4  and  C5_5
DOCKED: REMARK    5  A    between atoms: C5_5  and  N1_6
DOCKED: REMARK    6  A    between atoms: C5_5  and  C10_15
DOCKED: REMARK    7  A    between atoms: C6_7  and  C7_9
DOCKED: REMARK    8  A    between atoms: C7_9  and  N2_10
DOCKED: REMARK    9  A    between atoms: C7_9  and  C8_11
DOCKED: REMARK   10  A    between atoms: C8_11  and  C9_12
DOCKED: REMARK   11  A    between atoms: C10_15  and  O3_16
DOCKED: REMARK   12  A    between atoms: C10_15  and  C11_17
DOCKED: REMARK   13  A    between atoms: C11_17  and  C12_18
DOCKED: REMARK   14  A    between atoms: N4_20  and  C13_21
DOCKED: REMARK   15  A    between atoms: C13_21  and  C14_22
DOCKED: REMARK   16  A    between atoms: C13_21  and  C32_50
DOCKED: REMARK   17  A    between atoms: N5_24  and  C15_25
DOCKED: REMARK   18  A    between atoms: C15_25  and  C16_26
DOCKED: REMARK   19  A    between atoms: C15_25  and  C17_27
DOCKED: REMARK   20  A    between atoms: N6_29  and  C18_30
DOCKED: REMARK   21  A    between atoms: C18_30  and  C19_31
DOCKED: REMARK   22  A    between atoms: C18_30  and  C22_36
DOCKED: REMARK   23  A    between atoms: C19_31  and  C20_32
DOCKED: REMARK   24  A    between atoms: C20_32  and  C21_33
DOCKED: REMARK   25  A    between atoms: C21_33  and  O8_35
DOCKED: REMARK   26  A    between atoms: N7_38  and  C23_39
DOCKED: REMARK   27  A    between atoms: C23_39  and  C24_40
DOCKED: REMARK   28  A    between atoms: C23_39  and  C31_47
DOCKED: REMARK   29  A    between atoms: C24_40  and  C25_41
DOCKED: REMARK   30  A    between atoms: C31_47  and  O11_49
DOCKED: REMARK   31  A    between atoms: C32_50  and  C33_51
DOCKED: REMARK   32  A    between atoms: C32_50  and  C34_52
DOCKED: REMARK                            x       y       z     vdW  Elec       q    Type
DOCKED: REMARK                         _______ _______ _______ _____ _____    ______ ____
DOCKED: USER                              x       y       z     vdW  Elec       q    Type
DOCKED: USER                           _______ _______ _______ _____ _____    ______ ____
DOCKED: ROOT
DOCKED: ATOM      1  C14 UNL     1       5.578  -7.018   5.744 +0.00 +0.00    +0.234 C  
DOCKED: ATOM      2  O5  UNL     1       5.520  -6.236   4.798 +0.00 -0.00    -0.274 OA 
DOCKED: ATOM      3  N5  UNL     1       4.816  -8.167   5.820 +0.00 -0.00    -0.303 N  
DOCKED: ATOM      4  H25 UNL     1       5.146  -8.862   6.490 +0.00 +0.00    +0.149 HD 
DOCKED: ENDROOT
DOCKED: BRANCH   3   5
DOCKED: ATOM      5  C15 UNL     1       4.074  -8.716   4.688 +0.00 +0.00    +0.156 C  
DOCKED: ATOM      6  C16 UNL     1       3.070  -7.745   4.054 +0.00 +0.00    +0.038 C  
DOCKED: BRANCH   5   7
DOCKED: ATOM      7  C17 UNL     1       5.073  -9.332   3.683 +0.00 +0.00    +0.234 C  
DOCKED: ATOM      8  O6  UNL     1       5.302 -10.543   3.646 +0.00 -0.00    -0.274 OA 
DOCKED: ATOM      9  N6  UNL     1       5.620  -8.464   2.764 +0.00 -0.00    -0.302 N  
DOCKED: ATOM     10  H30 UNL     1       5.617  -7.479   3.018 +0.00 +0.00    +0.150 HD 
DOCKED: BRANCH   9  11
DOCKED: ATOM     11  C18 UNL     1       6.764  -8.854   1.948 +0.00 +0.00    +0.159 C  
DOCKED: BRANCH  11  12
DOCKED: ATOM     12  C22 UNL     1       8.006  -8.167   2.521 +0.00 +0.00    +0.234 C  
DOCKED: ATOM     13  O9  UNL     1       9.125  -8.676   2.442 +0.00 -0.00    -0.274 OA 
DOCKED: ATOM     14  N7  UNL     1       7.759  -6.980   3.178 +0.00 -0.00    -0.301 N  
DOCKED: ATOM     15  H37 UNL     1       6.854  -6.530   3.062 +0.00 +0.00    +0.150 HD 
DOCKED: BRANCH  14  16
DOCKED: ATOM     16  C23 UNL     1       8.852  -6.185   3.757 +0.00 +0.00    +0.186 C  
DOCKED: BRANCH  16  17
DOCKED: ATOM     17  C31 UNL     1       8.239  -4.931   4.362 +0.00 +0.00    +0.326 C  
DOCKED: ATOM     18  O10 UNL     1       8.783  -4.158   5.136 +0.00 -0.00    -0.249 OA 
DOCKED: BRANCH  17  19
DOCKED: ATOM     19  O11 UNL     1       7.023  -4.644   3.871 +0.00 -0.00    -0.479 OA 
DOCKED: ATOM     20  H46 UNL     1       7.046  -5.007   2.966 +0.00 +0.00    +0.295 HD 
DOCKED: ENDBRANCH  17  19
DOCKED: ENDBRANCH  16  17
DOCKED: BRANCH  16  21
DOCKED: ATOM     21  C24 UNL     1       9.877  -5.778   2.690 +0.00 +0.00    +0.069 C  
DOCKED: BRANCH  21  22
DOCKED: ATOM     22  C25 UNL     1      10.009  -4.283   2.534 +0.00 -0.00    -0.045 A  
DOCKED: ATOM     23  C26 UNL     1      11.012  -3.602   3.236 +0.00 +0.00    +0.004 A  
DOCKED: ATOM     24  C27 UNL     1      11.158  -2.222   3.106 +0.00 +0.00    +0.000 A  
DOCKED: ATOM     25  C28 UNL     1      10.309  -1.511   2.256 +0.00 +0.00    +0.000 A  
DOCKED: ATOM     26  C29 UNL     1       9.298  -2.175   1.568 +0.00 +0.00    +0.000 A  
DOCKED: ATOM     27  C30 UNL     1       9.140  -3.558   1.714 +0.00 +0.00    +0.004 A  
DOCKED: ENDBRANCH  21  22
DOCKED: ENDBRANCH  16  21
DOCKED: ENDBRANCH  14  16
DOCKED: ENDBRANCH  11  12
DOCKED: BRANCH  11  28
DOCKED: ATOM     28  C19 UNL     1       6.585  -8.417   0.489 +0.00 +0.00    +0.043 C  
DOCKED: BRANCH  28  29
DOCKED: ATOM     29  C20 UNL     1       5.599  -7.257   0.335 +0.00 +0.00    +0.123 C  
DOCKED: BRANCH  29  30
DOCKED: ATOM     30  C21 UNL     1       6.020  -6.062   1.153 +0.00 +0.00    +0.305 C  
DOCKED: ATOM     31  O7  UNL     1       7.079  -5.465   1.069 +0.00 -0.00    -0.251 OA 
DOCKED: BRANCH  30  32
DOCKED: ATOM     32  O8  UNL     1       5.098  -5.728   2.074 +0.00 -0.00    -0.481 OA 
DOCKED: ATOM     33  H36 UNL     1       5.599  -5.322   2.810 +0.00 +0.00    +0.295 HD 
DOCKED: ENDBRANCH  30  32
DOCKED: ENDBRANCH  29  30
DOCKED: ENDBRANCH  28  29
DOCKED: ENDBRANCH  11  28
DOCKED: ENDBRANCH   9  11
DOCKED: ENDBRANCH   5   7
DOCKED: ENDBRANCH   3   5
DOCKED: BRANCH   1  34
DOCKED: ATOM     34  C13 UNL     1       6.591  -6.827   6.904 +0.00 +0.00    +0.161 C  
DOCKED: BRANCH  34  37
DOCKED: ATOM     35  C12 UNL     1       7.073  -4.563   7.962 +0.00 +0.00    +0.216 C  
DOCKED: ATOM     36  O4  UNL     1       7.012  -4.917   9.124 +0.00 -0.00    -0.276 OA 
DOCKED: ATOM     37  N4  UNL     1       7.031  -5.415   6.863 +0.00 -0.00    -0.304 N  
DOCKED: ATOM     38  H23 UNL     1       6.822  -4.967   5.974 +0.00 +0.00    +0.149 HD 
DOCKED: BRANCH  35  39
DOCKED: ATOM     39  C11 UNL     1       7.337  -3.134   7.553 +0.00 +0.00    +0.129 C  
DOCKED: BRANCH  39  40
DOCKED: ATOM     40  C10 UNL     1       6.401  -2.520   6.491 +0.00 +0.00    +0.143 C  
DOCKED: BRANCH  40  41
DOCKED: ATOM     41  O3  UNL     1       5.611  -3.455   5.755 +0.00 -0.00    -0.389 OA 
DOCKED: ATOM     42  H20 UNL     1       6.233  -4.008   5.239 +0.00 +0.00    +0.210 HD 
DOCKED: ENDBRANCH  40  41
DOCKED: BRANCH  40  43
DOCKED: ATOM     43  C5  UNL     1       7.046  -1.494   5.517 +0.00 +0.00    +0.102 C  
DOCKED: BRANCH  43  44
DOCKED: ATOM     44  N1  UNL     1       6.671  -1.900   4.156 +0.00 -0.00    -0.309 N  
DOCKED: ATOM     45  C6  UNL     1       5.591  -1.384   3.489 +0.00 +0.00    +0.231 C  
DOCKED: ATOM     46  O1  UNL     1       5.051  -0.322   3.805 +0.00 -0.00    -0.274 OA 
DOCKED: ATOM     47  H11 UNL     1       7.117  -2.733   3.785 +0.00 +0.00    +0.149 HD 
DOCKED: BRANCH  45  48
DOCKED: ATOM     48  C7  UNL     1       5.151  -2.167   2.234 +0.00 +0.00    +0.146 C  
DOCKED: BRANCH  48  49
DOCKED: ATOM     49  N2  UNL     1       6.081  -3.313   2.039 +0.00 -0.00    -0.320 NA 
DOCKED: ATOM     50  H13 UNL     1       5.977  -3.965   2.817 +0.00 +0.00    +0.119 HD 
DOCKED: ATOM     51  H14 UNL     1       5.767  -3.821   1.210 +0.00 +0.00    +0.119 HD 
DOCKED: ENDBRANCH  48  49
DOCKED: BRANCH  48  52
DOCKED: ATOM     52  C8  UNL     1       3.696  -2.643   2.279 +0.00 +0.00    +0.123 C  
DOCKED: BRANCH  52  53
DOCKED: ATOM     53  C9  UNL     1       3.389  -3.238   3.643 +0.00 +0.00    +0.212 C  
DOCKED: ATOM     54  N3  UNL     1       4.123  -4.335   3.996 +0.00 -0.00    -0.329 N  
DOCKED: ATOM     55  O2  UNL     1       2.530  -2.799   4.405 +0.00 -0.00    -0.276 OA 
DOCKED: ATOM     56  H17 UNL     1       3.992  -4.608   4.966 +0.00 +0.00    +0.145 HD 
DOCKED: ATOM     57  H18 UNL     1       5.114  -4.345   3.734 +0.00 +0.00    +0.145 HD 
DOCKED: ENDBRANCH  52  53
DOCKED: ENDBRANCH  48  52
DOCKED: ENDBRANCH  45  48
DOCKED: ENDBRANCH  43  44
DOCKED: BRANCH  43  58
DOCKED: ATOM     58  C4  UNL     1       8.584  -1.389   5.579 +0.00 +0.00    +0.028 C  
DOCKED: BRANCH  58  60
DOCKED: ATOM     59  C1  UNL     1      10.613   0.135   5.606 +0.00 +0.00    +0.007 C  
DOCKED: ATOM     60  C2  UNL     1       9.084   0.069   5.540 +0.00 -0.00    -0.015 C  
DOCKED: ATOM     61  C3  UNL     1       8.596   0.767   4.269 +0.00 +0.00    +0.007 C  
DOCKED: ENDBRANCH  58  60
DOCKED: ENDBRANCH  43  58
DOCKED: ENDBRANCH  40  43
DOCKED: ENDBRANCH  39  40
DOCKED: ENDBRANCH  35  39
DOCKED: ENDBRANCH  34  37
DOCKED: BRANCH  34  62
DOCKED: ATOM     62  C32 UNL     1       6.138  -7.349   8.289 +0.00 +0.00    +0.012 C  
DOCKED: ATOM     63  C33 UNL     1       6.404  -8.859   8.423 +0.00 +0.00    +0.009 C  
DOCKED: ATOM     64  C34 UNL     1       4.650  -7.135   8.592 +0.00 +0.00    +0.009 C  
DOCKED: ENDBRANCH  34  62
DOCKED: ENDBRANCH   1  34
DOCKED: TORSDOF 27
DOCKED: TER
DOCKED: ENDMDL
________________________________________________________________________________


    FINAL DOCKED STATE:
    ________________________


Run:   7 / 20
Time taken for this run:   4.058s

DOCKED: MODEL        7
DOCKED: USER    Run = 7
DOCKED: USER
DOCKED: USER    Estimated Free Energy of Binding    =  +8.05 kcal/mol  [=(1)+(2)+(3)-(4)]
DOCKED: USER
DOCKED: USER    (1) Final Intermolecular Energy     =  +0.00 kcal/mol
DOCKED: USER        vdW + Hbond + desolv Energy     =  +0.00 kcal/mol
DOCKED: USER        Electrostatic Energy            =  +0.00 kcal/mol
DOCKED: USER        Moving Ligand-Fixed Receptor    =  +0.00 kcal/mol
DOCKED: USER        Moving Ligand-Moving Receptor   =  +0.00 kcal/mol
DOCKED: USER    (2) Final Total Internal Energy     = -25.71 kcal/mol
DOCKED: USER    (3) Torsional Free Energy           =  +8.05 kcal/mol
DOCKED: USER    (4) Unbound System's Energy         = -25.71 kcal/mol
DOCKED: USER
DOCKED: USER
DOCKED: REMARK  Name = ligands/ligand_32.pdb
DOCKED: REMARK  32 active torsions:
DOCKED: REMARK  status: ('A' for Active; 'I' for Inactive)
DOCKED: REMARK    1  A    between atoms: C1_1  and  C2_2
DOCKED: REMARK    2  A    between atoms: C2_2  and  C3_3
DOCKED: REMARK    3  A    between atoms: C2_2  and  C4_4
DOCKED: REMARK    4  A    between atoms: C4_4  and  C5_5
DOCKED: REMARK    5  A    between atoms: C5_5  and  N1_6
DOCKED: REMARK    6  A    between atoms: C5_5  and  C10_15
DOCKED: REMARK    7  A    between atoms: C6_7  and  C7_9
DOCKED: REMARK    8  A    between atoms: C7_9  and  N2_10
DOCKED: REMARK    9  A    between atoms: C7_9  and  C8_11
DOCKED: REMARK   10  A    between atoms: C8_11  and  C9_12
DOCKED: REMARK   11  A    between atoms: C10_15  and  O3_16
DOCKED: REMARK   12  A    between atoms: C10_15  and  C11_17
DOCKED: REMARK   13  A    between atoms: C11_17  and  C12_18
DOCKED: REMARK   14  A    between atoms: N4_20  and  C13_21
DOCKED: REMARK   15  A    between atoms: C13_21  and  C14_22
DOCKED: REMARK   16  A    between atoms: C13_21  and  C32_50
DOCKED: REMARK   17  A    between atoms: N5_24  and  C15_25
DOCKED: REMARK   18  A    between atoms: C15_25  and  C16_26
DOCKED: REMARK   19  A    between atoms: C15_25  and  C17_27
DOCKED: REMARK   20  A    between atoms: N6_29  and  C18_30
DOCKED: REMARK   21  A    between atoms: C18_30  and  C19_31
DOCKED: REMARK   22  A    between atoms: C18_30  and  C22_36
DOCKED: REMARK   23  A    between atoms: C19_31  and  C20_32
DOCKED: REMARK   24  A    between atoms: C20_32  and  C21_33
DOCKED: REMARK   25  A    between atoms: C21_33  and  O8_35
DOCKED: REMARK   26  A    between atoms: N7_38  and  C23_39
DOCKED: REMARK   27  A    between atoms: C23_39  and  C24_40
DOCKED: REMARK   28  A    between atoms: C23_39  and  C31_47
DOCKED: REMARK   29  A    between atoms: C24_40  and  C25_41
DOCKED: REMARK   30  A    between atoms: C31_47  and  O11_49
DOCKED: REMARK   31  A    between atoms: C32_50  and  C33_51
DOCKED: REMARK   32  A    between atoms: C32_50  and  C34_52
DOCKED: REMARK                            x       y       z     vdW  Elec       q    Type
DOCKED: REMARK                         _______ _______ _______ _____ _____    ______ ____
DOCKED: USER                              x       y       z     vdW  Elec       q    Type
DOCKED: USER                           _______ _______ _______ _____ _____    ______ ____
DOCKED: ROOT
DOCKED: ATOM      1  C14 UNL     1      10.123  -5.592  -3.018 +0.00 +0.00    +0.234 C  
DOCKED: ATOM      2  O5  UNL     1      10.514  -5.815  -1.874 +0.00 -0.00    -0.274 OA 
DOCKED: ATOM      3  N5  UNL     1       9.296  -6.453  -3.713 +0.00 -0.00    -0.303 N  
DOCKED: ATOM      4  H25 UNL     1       8.820  -6.042  -4.516 +0.00 +0.00    +0.149 HD 
DOCKED: ENDROOT
DOCKED: BRANCH   3   5
DOCKED: ATOM      5  C15 UNL     1       8.585  -7.566  -3.087 +0.00 +0.00    +0.156 C  
DOCKED: ATOM      6  C16 UNL     1       9.490  -8.575  -2.370 +0.00 +0.00    +0.038 C  
DOCKED: BRANCH   5   7
DOCKED: ATOM      7  C17 UNL     1       7.448  -7.003  -2.204 +0.00 +0.00    +0.234 C  
DOCKED: ATOM      8  O6  UNL     1       6.283  -6.935  -2.603 +0.00 -0.00    -0.274 OA 
DOCKED: ATOM      9  N6  UNL     1       7.791  -6.675  -0.912 +0.00 -0.00    -0.302 N  
DOCKED: ATOM     10  H30 UNL     1       8.776  -6.489  -0.740 +0.00 +0.00    +0.150 HD 
DOCKED: BRANCH   9  11
DOCKED: ATOM     11  C18 UNL     1       6.893  -5.894  -0.070 +0.00 +0.00    +0.159 C  
DOCKED: BRANCH  11  12
DOCKED: ATOM     12  C22 UNL     1       7.423  -4.457  -0.025 +0.00 +0.00    +0.234 C  
DOCKED: ATOM     13  O9  UNL     1       6.670  -3.490   0.094 +0.00 -0.00    -0.274 OA 
DOCKED: ATOM     14  N7  UNL     1       8.787  -4.339  -0.191 +0.00 -0.00    -0.301 N  
DOCKED: ATOM     15  H37 UNL     1       9.368  -5.170  -0.113 +0.00 +0.00    +0.150 HD 
DOCKED: BRANCH  14  16
DOCKED: ATOM     16  C23 UNL     1       9.452  -3.029  -0.142 +0.00 +0.00    +0.186 C  
DOCKED: BRANCH  16  17
DOCKED: ATOM     17  C31 UNL     1      10.936  -3.256  -0.385 +0.00 +0.00    +0.326 C  
DOCKED: ATOM     18  O10 UNL     1      11.754  -2.414  -0.720 +0.00 -0.00    -0.249 OA 
DOCKED: BRANCH  17  19
DOCKED: ATOM     19  O11 UNL     1      11.341  -4.499  -0.075 +0.00 -0.00    -0.479 OA 
DOCKED: ATOM     20  H46 UNL     1      10.630  -4.839   0.498 +0.00 +0.00    +0.295 HD 
DOCKED: ENDBRANCH  17  19
DOCKED: ENDBRANCH  16  17
DOCKED: BRANCH  16  21
DOCKED: ATOM     21  C24 UNL     1       9.265  -2.355   1.224 +0.00 +0.00    +0.069 C  
DOCKED: BRANCH  21  22
DOCKED: ATOM     22  C25 UNL     1      10.568  -2.072   1.930 +0.00 -0.00    -0.045 A  
DOCKED: ATOM     23  C26 UNL     1      11.121  -3.044   2.775 +0.00 +0.00    +0.004 A  
DOCKED: ATOM     24  C27 UNL     1      12.325  -2.809   3.434 +0.00 +0.00    +0.000 A  
DOCKED: ATOM     25  C28 UNL     1      12.999  -1.602   3.241 +0.00 +0.00    +0.000 A  
DOCKED: ATOM     26  C29 UNL     1      12.450  -0.622   2.419 +0.00 +0.00    +0.000 A  
DOCKED: ATOM     27  C30 UNL     1      11.230  -0.852   1.772 +0.00 +0.00    +0.004 A  
DOCKED: ENDBRANCH  21  22
DOCKED: ENDBRANCH  16  21
DOCKED: ENDBRANCH  14  16
DOCKED: ENDBRANCH  11  12
DOCKED: BRANCH  11  28
DOCKED: ATOM     28  C19 UNL     1       6.842  -6.447   1.358 +0.00 +0.00    +0.043 C  
DOCKED: BRANCH  28  29
DOCKED: ATOM     29  C20 UNL     1       8.077  -7.277   1.717 +0.00 +0.00    +0.123 C  
DOCKED: BRANCH  29  30
DOCKED: ATOM     30  C21 UNL     1       9.345  -6.479   1.553 +0.00 +0.00    +0.305 C  
DOCKED: ATOM     31  O7  UNL     1       9.614  -5.427   2.107 +0.00 -0.00    -0.251 OA 
DOCKED: BRANCH  30  32
DOCKED: ATOM     32  O8  UNL     1      10.177  -7.029   0.651 +0.00 -0.00    -0.481 OA 
DOCKED: ATOM     33  H36 UNL     1      10.686  -6.282   0.275 +0.00 +0.00    +0.295 HD 
DOCKED: ENDBRANCH  30  32
DOCKED: ENDBRANCH  29  30
DOCKED: ENDBRANCH  28  29
DOCKED: ENDBRANCH  11  28
DOCKED: ENDBRANCH   9  11
DOCKED: ENDBRANCH   5   7
DOCKED: ENDBRANCH   3   5
DOCKED: BRANCH   1  34
DOCKED: ATOM     34  C13 UNL     1      10.453  -4.266  -3.753 +0.00 +0.00    +0.161 C  
DOCKED: BRANCH  34  37
DOCKED: ATOM     35  C12 UNL     1      12.726  -3.124  -3.699 +0.00 +0.00    +0.216 C  
DOCKED: ATOM     36  O4  UNL     1      12.780  -2.827  -4.878 +0.00 -0.00    -0.276 OA 
DOCKED: ATOM     37  N4  UNL     1      11.616  -3.669  -3.062 +0.00 -0.00    -0.304 N  
DOCKED: ATOM     38  H23 UNL     1      11.803  -4.106  -2.163 +0.00 +0.00    +0.149 HD 
DOCKED: BRANCH  35  39
DOCKED: ATOM     39  C11 UNL     1      13.837  -2.815  -2.724 +0.00 +0.00    +0.129 C  
DOCKED: BRANCH  39  40
DOCKED: ATOM     40  C10 UNL     1      14.256  -3.940  -1.754 +0.00 +0.00    +0.143 C  
DOCKED: BRANCH  40  41
DOCKED: ATOM     41  O3  UNL     1      13.352  -5.042  -1.665 +0.00 -0.00    -0.389 OA 
DOCKED: ATOM     42  H20 UNL     1      12.542  -4.710  -1.226 +0.00 +0.00    +0.210 HD 
DOCKED: ENDBRANCH  40  41
DOCKED: BRANCH  40  43
DOCKED: ATOM     43  C5  UNL     1      14.685  -3.493  -0.328 +0.00 +0.00    +0.102 C  
DOCKED: BRANCH  43  44
DOCKED: ATOM     44  N1  UNL     1      13.939  -4.326   0.625 +0.00 -0.00    -0.309 N  
DOCKED: ATOM     45  C6  UNL     1      14.469  -5.439   1.223 +0.00 +0.00    +0.231 C  
DOCKED: ATOM     46  O1  UNL     1      15.680  -5.652   1.293 +0.00 -0.00    -0.274 OA 
DOCKED: ATOM     47  H11 UNL     1      12.937  -4.175   0.683 +0.00 +0.00    +0.149 HD 
DOCKED: BRANCH  45  48
DOCKED: ATOM     48  C7  UNL     1      13.448  -6.373   1.908 +0.00 +0.00    +0.146 C  
DOCKED: BRANCH  48  49
DOCKED: ATOM     49  N2  UNL     1      12.104  -5.737   1.839 +0.00 -0.00    -0.320 NA 
DOCKED: ATOM     50  H13 UNL     1      11.806  -5.686   0.865 +0.00 +0.00    +0.119 HD 
DOCKED: ATOM     51  H14 UNL     1      11.444  -6.372   2.296 +0.00 +0.00    +0.119 HD 
DOCKED: ENDBRANCH  48  49
DOCKED: BRANCH  48  52
DOCKED: ATOM     52  C8  UNL     1      13.415  -7.789   1.325 +0.00 +0.00    +0.123 C  
DOCKED: BRANCH  52  53
DOCKED: ATOM     53  C9  UNL     1      13.403  -7.724  -0.192 +0.00 +0.00    +0.212 C  
DOCKED: ATOM     54  N3  UNL     1      12.322  -7.108  -0.757 +0.00 -0.00    -0.329 N  
DOCKED: ATOM     55  O2  UNL     1      14.286  -8.198  -0.906 +0.00 -0.00    -0.276 OA 
DOCKED: ATOM     56  H17 UNL     1      12.426  -6.956  -1.756 +0.00 +0.00    +0.145 HD 
DOCKED: ATOM     57  H18 UNL     1      11.954  -6.275  -0.286 +0.00 +0.00    +0.145 HD 
DOCKED: ENDBRANCH  52  53
DOCKED: ENDBRANCH  48  52
DOCKED: ENDBRANCH  45  48
DOCKED: ENDBRANCH  43  44
DOCKED: BRANCH  43  58
DOCKED: ATOM     58  C4  UNL     1      14.416  -2.013   0.018 +0.00 +0.00    +0.028 C  
DOCKED: BRANCH  58  60
DOCKED: ATOM     59  C1  UNL     1      15.385   0.194   0.811 +0.00 +0.00    +0.007 C  
DOCKED: ATOM     60  C2  UNL     1      15.668  -1.289   0.552 +0.00 -0.00    -0.015 C  
DOCKED: ATOM     61  C3  UNL     1      16.157  -1.949   1.841 +0.00 +0.00    +0.007 C  
DOCKED: ENDBRANCH  58  60
DOCKED: ENDBRANCH  43  58
DOCKED: ENDBRANCH  40  43
DOCKED: ENDBRANCH  39  40
DOCKED: ENDBRANCH  35  39
DOCKED: ENDBRANCH  34  37
DOCKED: BRANCH  34  62
DOCKED: ATOM     62  C32 UNL     1      10.562  -4.357  -5.294 +0.00 +0.00    +0.012 C  
DOCKED: ATOM     63  C33 UNL     1       9.171  -4.288  -5.950 +0.00 +0.00    +0.009 C  
DOCKED: ATOM     64  C34 UNL     1      11.228  -5.640  -5.808 +0.00 +0.00    +0.009 C  
DOCKED: ENDBRANCH  34  62
DOCKED: ENDBRANCH   1  34
DOCKED: TORSDOF 27
DOCKED: TER
DOCKED: ENDMDL
________________________________________________________________________________


    FINAL DOCKED STATE:
    ________________________


Run:   8 / 20
Time taken for this run:   4.058s

DOCKED: MODEL        8
DOCKED: USER    Run = 8
DOCKED: USER
DOCKED: USER    Estimated Free Energy of Binding    =  +8.05 kcal/mol  [=(1)+(2)+(3)-(4)]
DOCKED: USER
DOCKED: USER    (1) Final Intermolecular Energy     =  +0.00 kcal/mol
DOCKED: USER        vdW + Hbond + desolv Energy     =  +0.00 kcal/mol
DOCKED: USER        Electrostatic Energy            =  +0.00 kcal/mol
DOCKED: USER        Moving Ligand-Fixed Receptor    =  +0.00 kcal/mol
DOCKED: USER        Moving Ligand-Moving Receptor   =  +0.00 kcal/mol
DOCKED: USER    (2) Final Total Internal Energy     = -25.77 kcal/mol
DOCKED: USER    (3) Torsional Free Energy           =  +8.05 kcal/mol
DOCKED: USER    (4) Unbound System's Energy         = -25.77 kcal/mol
DOCKED: USER
DOCKED: USER
DOCKED: REMARK  Name = ligands/ligand_32.pdb
DOCKED: REMARK  32 active torsions:
DOCKED: REMARK  status: ('A' for Active; 'I' for Inactive)
DOCKED: REMARK    1  A    between atoms: C1_1  and  C2_2
DOCKED: REMARK    2  A    between atoms: C2_2  and  C3_3
DOCKED: REMARK    3  A    between atoms: C2_2  and  C4_4
DOCKED: REMARK    4  A    between atoms: C4_4  and  C5_5
DOCKED: REMARK    5  A    between atoms: C5_5  and  N1_6
DOCKED: REMARK    6  A    between atoms: C5_5  and  C10_15
DOCKED: REMARK    7  A    between atoms: C6_7  and  C7_9
DOCKED: REMARK    8  A    between atoms: C7_9  and  N2_10
DOCKED: REMARK    9  A    between atoms: C7_9  and  C8_11
DOCKED: REMARK   10  A    between atoms: C8_11  and  C9_12
DOCKED: REMARK   11  A    between atoms: C10_15  and  O3_16
DOCKED: REMARK   12  A    between atoms: C10_15  and  C11_17
DOCKED: REMARK   13  A    between atoms: C11_17  and  C12_18
DOCKED: REMARK   14  A    between atoms: N4_20  and  C13_21
DOCKED: REMARK   15  A    between atoms: C13_21  and  C14_22
DOCKED: REMARK   16  A    between atoms: C13_21  and  C32_50
DOCKED: REMARK   17  A    between atoms: N5_24  and  C15_25
DOCKED: REMARK   18  A    between atoms: C15_25  and  C16_26
DOCKED: REMARK   19  A    between atoms: C15_25  and  C17_27
DOCKED: REMARK   20  A    between atoms: N6_29  and  C18_30
DOCKED: REMARK   21  A    between atoms: C18_30  and  C19_31
DOCKED: REMARK   22  A    between atoms: C18_30  and  C22_36
DOCKED: REMARK   23  A    between atoms: C19_31  and  C20_32
DOCKED: REMARK   24  A    between atoms: C20_32  and  C21_33
DOCKED: REMARK   25  A    between atoms: C21_33  and  O8_35
DOCKED: REMARK   26  A    between atoms: N7_38  and  C23_39
DOCKED: REMARK   27  A    between atoms: C23_39  and  C24_40
DOCKED: REMARK   28  A    between atoms: C23_39  and  C31_47
DOCKED: REMARK   29  A    between atoms: C24_40  and  C25_41
DOCKED: REMARK   30  A    between atoms: C31_47  and  O11_49
DOCKED: REMARK   31  A    between atoms: C32_50  and  C33_51
DOCKED: REMARK   32  A    between atoms: C32_50  and  C34_52
DOCKED: REMARK                            x       y       z     vdW  Elec       q    Type
DOCKED: REMARK                         _______ _______ _______ _____ _____    ______ ____
DOCKED: USER                              x       y       z     vdW  Elec       q    Type
DOCKED: USER                           _______ _______ _______ _____ _____    ______ ____
DOCKED: ROOT
DOCKED: ATOM      1  C14 UNL     1       9.050  -2.802  -2.788 +0.00 +0.00    +0.234 C  
DOCKED: ATOM      2  O5  UNL     1       7.846  -2.701  -3.013 +0.00 -0.00    -0.274 OA 
DOCKED: ATOM      3  N5  UNL     1       9.663  -4.003  -2.488 +0.00 -0.00    -0.303 N  
DOCKED: ATOM      4  H25 UNL     1      10.677  -4.012  -2.600 +0.00 +0.00    +0.149 HD 
DOCKED: ENDROOT
DOCKED: BRANCH   3   5
DOCKED: ATOM      5  C15 UNL     1       9.019  -5.302  -2.669 +0.00 +0.00    +0.156 C  
DOCKED: ATOM      6  C16 UNL     1       7.683  -5.457  -1.933 +0.00 +0.00    +0.038 C  
DOCKED: BRANCH   5   7
DOCKED: ATOM      7  C17 UNL     1       8.946  -5.620  -4.179 +0.00 +0.00    +0.234 C  
DOCKED: ATOM      8  O6  UNL     1       9.766  -6.355  -4.734 +0.00 -0.00    -0.274 OA 
DOCKED: ATOM      9  N6  UNL     1       7.855  -5.118  -4.852 +0.00 -0.00    -0.302 N  
DOCKED: ATOM     10  H30 UNL     1       7.391  -4.318  -4.426 +0.00 +0.00    +0.150 HD 
DOCKED: BRANCH   9  11
DOCKED: ATOM     11  C18 UNL     1       7.803  -5.114  -6.309 +0.00 +0.00    +0.159 C  
DOCKED: BRANCH  11  12
DOCKED: ATOM     12  C22 UNL     1       8.050  -3.679  -6.784 +0.00 +0.00    +0.234 C  
DOCKED: ATOM     13  O9  UNL     1       8.579  -3.435  -7.869 +0.00 -0.00    -0.274 OA 
DOCKED: ATOM     14  N7  UNL     1       7.692  -2.701  -5.879 +0.00 -0.00    -0.301 N  
DOCKED: ATOM     15  H37 UNL     1       7.110  -2.953  -5.084 +0.00 +0.00    +0.150 HD 
DOCKED: BRANCH  14  16
DOCKED: ATOM     16  C23 UNL     1       7.838  -1.274  -6.199 +0.00 +0.00    +0.186 C  
DOCKED: BRANCH  16  17
DOCKED: ATOM     17  C31 UNL     1       7.352  -0.481  -4.996 +0.00 +0.00    +0.326 C  
DOCKED: ATOM     18  O10 UNL     1       7.610   0.687  -4.744 +0.00 -0.00    -0.249 OA 
DOCKED: BRANCH  17  19
DOCKED: ATOM     19  O11 UNL     1       6.470  -1.151  -4.238 +0.00 -0.00    -0.479 OA 
DOCKED: ATOM     20  H46 UNL     1       6.121  -1.836  -4.838 +0.00 +0.00    +0.295 HD 
DOCKED: ENDBRANCH  17  19
DOCKED: ENDBRANCH  16  17
DOCKED: BRANCH  16  21
DOCKED: ATOM     21  C24 UNL     1       7.003  -0.885  -7.427 +0.00 +0.00    +0.069 C  
DOCKED: BRANCH  21  22
DOCKED: ATOM     22  C25 UNL     1       5.982   0.186  -7.135 +0.00 -0.00    -0.045 A  
DOCKED: ATOM     23  C26 UNL     1       4.700  -0.181  -6.703 +0.00 +0.00    +0.004 A  
DOCKED: ATOM     24  C27 UNL     1       3.741   0.790  -6.422 +0.00 +0.00    +0.000 A  
DOCKED: ATOM     25  C28 UNL     1       4.062   2.142  -6.556 +0.00 +0.00    +0.000 A  
DOCKED: ATOM     26  C29 UNL     1       5.325   2.517  -7.002 +0.00 +0.00    +0.000 A  
DOCKED: ATOM     27  C30 UNL     1       6.282   1.541  -7.301 +0.00 +0.00    +0.004 A  
DOCKED: ENDBRANCH  21  22
DOCKED: ENDBRANCH  16  21
DOCKED: ENDBRANCH  14  16
DOCKED: ENDBRANCH  11  12
DOCKED: BRANCH  11  28
DOCKED: ATOM     28  C19 UNL     1       6.436  -5.578  -6.822 +0.00 +0.00    +0.043 C  
DOCKED: BRANCH  28  29
DOCKED: ATOM     29  C20 UNL     1       5.320  -5.386  -5.792 +0.00 +0.00    +0.123 C  
DOCKED: BRANCH  29  30
DOCKED: ATOM     30  C21 UNL     1       5.241  -3.955  -5.323 +0.00 +0.00    +0.305 C  
DOCKED: ATOM     31  O7  UNL     1       5.054  -2.974  -6.022 +0.00 -0.00    -0.251 OA 
DOCKED: BRANCH  30  32
DOCKED: ATOM     32  O8  UNL     1       5.464  -3.842  -4.002 +0.00 -0.00    -0.481 OA 
DOCKED: ATOM     33  H36 UNL     1       5.833  -2.944  -3.875 +0.00 +0.00    +0.295 HD 
DOCKED: ENDBRANCH  30  32
DOCKED: ENDBRANCH  29  30
DOCKED: ENDBRANCH  28  29
DOCKED: ENDBRANCH  11  28
DOCKED: ENDBRANCH   9  11
DOCKED: ENDBRANCH   5   7
DOCKED: ENDBRANCH   3   5
DOCKED: BRANCH   1  34
DOCKED: ATOM     34  C13 UNL     1      10.011  -1.591  -2.914 +0.00 +0.00    +0.161 C  
DOCKED: BRANCH  34  37
DOCKED: ATOM     35  C12 UNL     1       9.420   0.717  -2.019 +0.00 +0.00    +0.216 C  
DOCKED: ATOM     36  O4  UNL     1      10.466   0.932  -1.436 +0.00 -0.00    -0.276 OA 
DOCKED: ATOM     37  N4  UNL     1       9.177  -0.371  -2.851 +0.00 -0.00    -0.304 N  
DOCKED: ATOM     38  H23 UNL     1       8.196  -0.558  -3.045 +0.00 +0.00    +0.149 HD 
DOCKED: BRANCH  35  39
DOCKED: ATOM     39  C11 UNL     1       8.265   1.690  -2.018 +0.00 +0.00    +0.129 C  
DOCKED: BRANCH  39  40
DOCKED: ATOM     40  C10 UNL     1       6.861   1.119  -1.731 +0.00 +0.00    +0.143 C  
DOCKED: BRANCH  40  41
DOCKED: ATOM     41  O3  UNL     1       6.756  -0.305  -1.785 +0.00 -0.00    -0.389 OA 
DOCKED: ATOM     42  H20 UNL     1       6.892  -0.564  -2.720 +0.00 +0.00    +0.210 HD 
DOCKED: ENDBRANCH  40  41
DOCKED: BRANCH  40  43
DOCKED: ATOM     43  C5  UNL     1       5.683   1.765  -2.513 +0.00 +0.00    +0.102 C  
DOCKED: BRANCH  43  44
DOCKED: ATOM     44  N1  UNL     1       4.869   0.666  -3.048 +0.00 -0.00    -0.309 N  
DOCKED: ATOM     45  C6  UNL     1       3.765   0.168  -2.407 +0.00 +0.00    +0.231 C  
DOCKED: ATOM     46  O1  UNL     1       3.161   0.788  -1.530 +0.00 -0.00    -0.274 OA 
DOCKED: ATOM     47  H11 UNL     1       5.262   0.135  -3.820 +0.00 +0.00    +0.149 HD 
DOCKED: BRANCH  45  48
DOCKED: ATOM     48  C7  UNL     1       3.252  -1.191  -2.929 +0.00 +0.00    +0.146 C  
DOCKED: BRANCH  48  49
DOCKED: ATOM     49  N2  UNL     1       4.078  -1.591  -4.101 +0.00 -0.00    -0.320 NA 
DOCKED: ATOM     50  H13 UNL     1       5.047  -1.709  -3.804 +0.00 +0.00    +0.119 HD 
DOCKED: ATOM     51  H14 UNL     1       3.764  -2.521  -4.390 +0.00 +0.00    +0.119 HD 
DOCKED: ENDBRANCH  48  49
DOCKED: BRANCH  48  52
DOCKED: ATOM     52  C8  UNL     1       3.232  -2.296  -1.869 +0.00 +0.00    +0.123 C  
DOCKED: BRANCH  52  53
DOCKED: ATOM     53  C9  UNL     1       4.534  -2.283  -1.085 +0.00 +0.00    +0.212 C  
DOCKED: ATOM     54  N3  UNL     1       5.670  -2.516  -1.808 +0.00 -0.00    -0.329 N  
DOCKED: ATOM     55  O2  UNL     1       4.602  -2.094   0.128 +0.00 -0.00    -0.276 OA 
DOCKED: ATOM     56  H17 UNL     1       6.521  -2.353  -1.277 +0.00 +0.00    +0.145 HD 
DOCKED: ATOM     57  H18 UNL     1       5.726  -2.106  -2.745 +0.00 +0.00    +0.145 HD 
DOCKED: ENDBRANCH  52  53
DOCKED: ENDBRANCH  48  52
DOCKED: ENDBRANCH  45  48
DOCKED: ENDBRANCH  43  44
DOCKED: BRANCH  43  58
DOCKED: ATOM     58  C4  UNL     1       6.083   2.681  -3.689 +0.00 +0.00    +0.028 C  
DOCKED: BRANCH  58  60
DOCKED: ATOM     59  C1  UNL     1       5.932   4.989  -4.732 +0.00 +0.00    +0.007 C  
DOCKED: ATOM     60  C2  UNL     1       5.455   4.085  -3.591 +0.00 -0.00    -0.015 C  
DOCKED: ATOM     61  C3  UNL     1       3.929   3.990  -3.616 +0.00 +0.00    +0.007 C  
DOCKED: ENDBRANCH  58  60
DOCKED: ENDBRANCH  43  58
DOCKED: ENDBRANCH  40  43
DOCKED: ENDBRANCH  39  40
DOCKED: ENDBRANCH  35  39
DOCKED: ENDBRANCH  34  37
DOCKED: BRANCH  34  62
DOCKED: ATOM     62  C32 UNL     1      11.246  -1.608  -1.980 +0.00 +0.00    +0.012 C  
DOCKED: ATOM     63  C33 UNL     1      12.381  -2.454  -2.583 +0.00 +0.00    +0.009 C  
DOCKED: ATOM     64  C34 UNL     1      10.974  -2.171  -0.579 +0.00 +0.00    +0.009 C  
DOCKED: ENDBRANCH  34  62
DOCKED: ENDBRANCH   1  34
DOCKED: TORSDOF 27
DOCKED: TER
DOCKED: ENDMDL
________________________________________________________________________________


    FINAL DOCKED STATE:
    ________________________


Run:   9 / 20
Time taken for this run:   4.058s

DOCKED: MODEL        9
DOCKED: USER    Run = 9
DOCKED: USER
DOCKED: USER    Estimated Free Energy of Binding    =  +8.05 kcal/mol  [=(1)+(2)+(3)-(4)]
DOCKED: USER
DOCKED: USER    (1) Final Intermolecular Energy     =  +0.00 kcal/mol
DOCKED: USER        vdW + Hbond + desolv Energy     =  +0.00 kcal/mol
DOCKED: USER        Electrostatic Energy            =  +0.00 kcal/mol
DOCKED: USER        Moving Ligand-Fixed Receptor    =  +0.00 kcal/mol
DOCKED: USER        Moving Ligand-Moving Receptor   =  +0.00 kcal/mol
DOCKED: USER    (2) Final Total Internal Energy     = -25.72 kcal/mol
DOCKED: USER    (3) Torsional Free Energy           =  +8.05 kcal/mol
DOCKED: USER    (4) Unbound System's Energy         = -25.72 kcal/mol
DOCKED: USER
DOCKED: USER
DOCKED: REMARK  Name = ligands/ligand_32.pdb
DOCKED: REMARK  32 active torsions:
DOCKED: REMARK  status: ('A' for Active; 'I' for Inactive)
DOCKED: REMARK    1  A    between atoms: C1_1  and  C2_2
DOCKED: REMARK    2  A    between atoms: C2_2  and  C3_3
DOCKED: REMARK    3  A    between atoms: C2_2  and  C4_4
DOCKED: REMARK    4  A    between atoms: C4_4  and  C5_5
DOCKED: REMARK    5  A    between atoms: C5_5  and  N1_6
DOCKED: REMARK    6  A    between atoms: C5_5  and  C10_15
DOCKED: REMARK    7  A    between atoms: C6_7  and  C7_9
DOCKED: REMARK    8  A    between atoms: C7_9  and  N2_10
DOCKED: REMARK    9  A    between atoms: C7_9  and  C8_11
DOCKED: REMARK   10  A    between atoms: C8_11  and  C9_12
DOCKED: REMARK   11  A    between atoms: C10_15  and  O3_16
DOCKED: REMARK   12  A    between atoms: C10_15  and  C11_17
DOCKED: REMARK   13  A    between atoms: C11_17  and  C12_18
DOCKED: REMARK   14  A    between atoms: N4_20  and  C13_21
DOCKED: REMARK   15  A    between atoms: C13_21  and  C14_22
DOCKED: REMARK   16  A    between atoms: C13_21  and  C32_50
DOCKED: REMARK   17  A    between atoms: N5_24  and  C15_25
DOCKED: REMARK   18  A    between atoms: C15_25  and  C16_26
DOCKED: REMARK   19  A    between atoms: C15_25  and  C17_27
DOCKED: REMARK   20  A    between atoms: N6_29  and  C18_30
DOCKED: REMARK   21  A    between atoms: C18_30  and  C19_31
DOCKED: REMARK   22  A    between atoms: C18_30  and  C22_36
DOCKED: REMARK   23  A    between atoms: C19_31  and  C20_32
DOCKED: REMARK   24  A    between atoms: C20_32  and  C21_33
DOCKED: REMARK   25  A    between atoms: C21_33  and  O8_35
DOCKED: REMARK   26  A    between atoms: N7_38  and  C23_39
DOCKED: REMARK   27  A    between atoms: C23_39  and  C24_40
DOCKED: REMARK   28  A    between atoms: C23_39  and  C31_47
DOCKED: REMARK   29  A    between atoms: C24_40  and  C25_41
DOCKED: REMARK   30  A    between atoms: C31_47  and  O11_49
DOCKED: REMARK   31  A    between atoms: C32_50  and  C33_51
DOCKED: REMARK   32  A    between atoms: C32_50  and  C34_52
DOCKED: REMARK                            x       y       z     vdW  Elec       q    Type
DOCKED: REMARK                         _______ _______ _______ _____ _____    ______ ____
DOCKED: USER                              x       y       z     vdW  Elec       q    Type
DOCKED: USER                           _______ _______ _______ _____ _____    ______ ____
DOCKED: ROOT
DOCKED: ATOM      1  C14 UNL     1      13.785  -6.385   2.188 +0.00 +0.00    +0.234 C  
DOCKED: ATOM      2  O5  UNL     1      12.591  -6.363   2.480 +0.00 -0.00    -0.274 OA 
DOCKED: ATOM      3  N5  UNL     1      14.241  -6.394   0.884 +0.00 -0.00    -0.303 N  
DOCKED: ATOM      4  H25 UNL     1      15.220  -6.130   0.766 +0.00 +0.00    +0.149 HD 
DOCKED: ENDROOT
DOCKED: BRANCH   3   5
DOCKED: ATOM      5  C15 UNL     1      13.390  -6.106  -0.268 +0.00 +0.00    +0.156 C  
DOCKED: ATOM      6  C16 UNL     1      12.168  -7.023  -0.401 +0.00 +0.00    +0.038 C  
DOCKED: BRANCH   5   7
DOCKED: ATOM      7  C17 UNL     1      13.048  -4.599  -0.277 +0.00 +0.00    +0.234 C  
DOCKED: ATOM      8  O6  UNL     1      13.675  -3.790  -0.965 +0.00 -0.00    -0.274 OA 
DOCKED: ATOM      9  N6  UNL     1      11.941  -4.225   0.451 +0.00 -0.00    -0.302 N  
DOCKED: ATOM     10  H30 UNL     1      11.653  -4.859   1.192 +0.00 +0.00    +0.150 HD 
DOCKED: BRANCH   9  11
DOCKED: ATOM     11  C18 UNL     1      11.670  -2.823   0.744 +0.00 +0.00    +0.159 C  
DOCKED: BRANCH  11  12
DOCKED: ATOM     12  C22 UNL     1      12.069  -2.562   2.200 +0.00 +0.00    +0.234 C  
DOCKED: ATOM     13  O9  UNL     1      12.452  -1.454   2.580 +0.00 -0.00    -0.274 OA 
DOCKED: ATOM     14  N7  UNL     1      12.024  -3.670   3.019 +0.00 -0.00    -0.301 N  
DOCKED: ATOM     15  H37 UNL     1      11.541  -4.505   2.694 +0.00 +0.00    +0.150 HD 
DOCKED: BRANCH  14  16
DOCKED: ATOM     16  C23 UNL     1      12.348  -3.577   4.449 +0.00 +0.00    +0.186 C  
DOCKED: BRANCH  16  17
DOCKED: ATOM     17  C31 UNL     1      12.169  -4.961   5.053 +0.00 +0.00    +0.326 C  
DOCKED: ATOM     18  O10 UNL     1      12.619  -5.351   6.120 +0.00 -0.00    -0.249 OA 
DOCKED: BRANCH  17  19
DOCKED: ATOM     19  O11 UNL     1      11.335  -5.744   4.351 +0.00 -0.00    -0.479 OA 
DOCKED: ATOM     20  H46 UNL     1      10.798  -5.112   3.840 +0.00 +0.00    +0.295 HD 
DOCKED: ENDBRANCH  17  19
DOCKED: ENDBRANCH  16  17
DOCKED: BRANCH  16  21
DOCKED: ATOM     21  C24 UNL     1      11.420  -2.591   5.172 +0.00 +0.00    +0.069 C  
DOCKED: BRANCH  21  22
DOCKED: ATOM     22  C25 UNL     1      10.656  -3.221   6.311 +0.00 -0.00    -0.045 A  
DOCKED: ATOM     23  C26 UNL     1      11.206  -3.211   7.600 +0.00 +0.00    +0.004 A  
DOCKED: ATOM     24  C27 UNL     1      10.518  -3.782   8.669 +0.00 +0.00    +0.000 A  
DOCKED: ATOM     25  C28 UNL     1       9.263  -4.355   8.461 +0.00 +0.00    +0.000 A  
DOCKED: ATOM     26  C29 UNL     1       8.716  -4.387   7.182 +0.00 +0.00    +0.000 A  
DOCKED: ATOM     27  C30 UNL     1       9.415  -3.829   6.105 +0.00 +0.00    +0.004 A  
DOCKED: ENDBRANCH  21  22
DOCKED: ENDBRANCH  16  21
DOCKED: ENDBRANCH  14  16
DOCKED: ENDBRANCH  11  12
DOCKED: BRANCH  11  28
DOCKED: ATOM     28  C19 UNL     1      10.184  -2.491   0.570 +0.00 +0.00    +0.043 C  
DOCKED: BRANCH  28  29
DOCKED: ATOM     29  C20 UNL     1       9.282  -3.718   0.719 +0.00 +0.00    +0.123 C  
DOCKED: BRANCH  29  30
DOCKED: ATOM     30  C21 UNL     1       9.512  -4.417   2.035 +0.00 +0.00    +0.305 C  
DOCKED: ATOM     31  O7  UNL     1       9.404  -3.925   3.144 +0.00 -0.00    -0.251 OA 
DOCKED: BRANCH  30  32
DOCKED: ATOM     32  O8  UNL     1       9.925  -5.686   1.869 +0.00 -0.00    -0.481 OA 
DOCKED: ATOM     33  H36 UNL     1      10.457  -5.894   2.664 +0.00 +0.00    +0.295 HD 
DOCKED: ENDBRANCH  30  32
DOCKED: ENDBRANCH  29  30
DOCKED: ENDBRANCH  28  29
DOCKED: ENDBRANCH  11  28
DOCKED: ENDBRANCH   9  11
DOCKED: ENDBRANCH   5   7
DOCKED: ENDBRANCH   3   5
DOCKED: BRANCH   1  34
DOCKED: ATOM     34  C13 UNL     1      14.895  -6.312   3.269 +0.00 +0.00    +0.161 C  
DOCKED: BRANCH  34  37
DOCKED: ATOM     35  C12 UNL     1      14.853  -7.488   5.526 +0.00 +0.00    +0.216 C  
DOCKED: ATOM     36  O4  UNL     1      16.034  -7.779   5.572 +0.00 -0.00    -0.276 OA 
DOCKED: ATOM     37  N4  UNL     1      14.267  -6.680   4.556 +0.00 -0.00    -0.304 N  
DOCKED: ATOM     38  H23 UNL     1      13.254  -6.747   4.492 +0.00 +0.00    +0.149 HD 
DOCKED: BRANCH  35  39
DOCKED: ATOM     39  C11 UNL     1      13.871  -7.867   6.608 +0.00 +0.00    +0.129 C  
DOCKED: BRANCH  39  40
DOCKED: ATOM     40  C10 UNL     1      12.492  -8.390   6.158 +0.00 +0.00    +0.143 C  
DOCKED: BRANCH  40  41
DOCKED: ATOM     41  O3  UNL     1      12.181  -8.191   4.778 +0.00 -0.00    -0.389 OA 
DOCKED: ATOM     42  H20 UNL     1      12.038  -7.230   4.655 +0.00 +0.00    +0.210 HD 
DOCKED: ENDBRANCH  40  41
DOCKED: BRANCH  40  43
DOCKED: ATOM     43  C5  UNL     1      11.279  -7.975   7.037 +0.00 +0.00    +0.102 C  
DOCKED: BRANCH  43  44
DOCKED: ATOM     44  N1  UNL     1      10.263  -7.421   6.132 +0.00 -0.00    -0.309 N  
DOCKED: ATOM     45  C6  UNL     1       9.118  -8.090   5.789 +0.00 +0.00    +0.231 C  
DOCKED: ATOM     46  O1  UNL     1       8.669  -9.032   6.443 +0.00 -0.00    -0.274 OA 
DOCKED: ATOM     47  H11 UNL     1      10.524  -6.599   5.594 +0.00 +0.00    +0.149 HD 
DOCKED: BRANCH  45  48
DOCKED: ATOM     48  C7  UNL     1       8.353  -7.517   4.577 +0.00 +0.00    +0.146 C  
DOCKED: BRANCH  48  49
DOCKED: ATOM     49  N2  UNL     1       8.917  -6.179   4.250 +0.00 -0.00    -0.320 NA 
DOCKED: ATOM     50  H13 UNL     1       9.882  -6.288   3.938 +0.00 +0.00    +0.119 HD 
DOCKED: ATOM     51  H14 UNL     1       8.405  -5.824   3.439 +0.00 +0.00    +0.119 HD 
DOCKED: ENDBRANCH  48  49
DOCKED: BRANCH  48  52
DOCKED: ATOM     52  C8  UNL     1       8.363  -8.432   3.348 +0.00 +0.00    +0.123 C  
DOCKED: BRANCH  52  53
DOCKED: ATOM     53  C9  UNL     1       9.770  -8.949   3.101 +0.00 +0.00    +0.212 C  
DOCKED: ATOM     54  N3  UNL     1      10.712  -8.005   2.802 +0.00 -0.00    -0.329 N  
DOCKED: ATOM     55  O2  UNL     1      10.080 -10.138   3.143 +0.00 -0.00    -0.276 OA 
DOCKED: ATOM     56  H17 UNL     1      11.658  -8.374   2.791 +0.00 +0.00    +0.145 HD 
DOCKED: ATOM     57  H18 UNL     1      10.662  -7.112   3.303 +0.00 +0.00    +0.145 HD 
DOCKED: ENDBRANCH  52  53
DOCKED: ENDBRANCH  48  52
DOCKED: ENDBRANCH  45  48
DOCKED: ENDBRANCH  43  44
DOCKED: BRANCH  43  58
DOCKED: ATOM     58  C4  UNL     1      11.572  -6.924   8.128 +0.00 +0.00    +0.028 C  
DOCKED: BRANCH  58  60
DOCKED: ATOM     59  C1  UNL     1       9.826  -8.330   9.316 +0.00 +0.00    +0.007 C  
DOCKED: ATOM     60  C2  UNL     1      10.921  -7.273   9.481 +0.00 -0.00    -0.015 C  
DOCKED: ATOM     61  C3  UNL     1      11.976  -7.779  10.466 +0.00 +0.00    +0.007 C  
DOCKED: ENDBRANCH  58  60
DOCKED: ENDBRANCH  43  58
DOCKED: ENDBRANCH  40  43
DOCKED: ENDBRANCH  39  40
DOCKED: ENDBRANCH  35  39
DOCKED: ENDBRANCH  34  37
DOCKED: BRANCH  34  62
DOCKED: ATOM     62  C32 UNL     1      16.215  -7.046   2.932 +0.00 +0.00    +0.012 C  
DOCKED: ATOM     63  C33 UNL     1      17.131  -6.163   2.066 +0.00 +0.00    +0.009 C  
DOCKED: ATOM     64  C34 UNL     1      16.031  -8.367   2.173 +0.00 +0.00    +0.009 C  
DOCKED: ENDBRANCH  34  62
DOCKED: ENDBRANCH   1  34
DOCKED: TORSDOF 27
DOCKED: TER
DOCKED: ENDMDL
________________________________________________________________________________


    FINAL DOCKED STATE:
    ________________________


Run:   10 / 20
Time taken for this run:   4.058s

DOCKED: MODEL        10
DOCKED: USER    Run = 10
DOCKED: USER
DOCKED: USER    Estimated Free Energy of Binding    =  +8.05 kcal/mol  [=(1)+(2)+(3)-(4)]
DOCKED: USER
DOCKED: USER    (1) Final Intermolecular Energy     =  +0.00 kcal/mol
DOCKED: USER        vdW + Hbond + desolv Energy     =  +0.00 kcal/mol
DOCKED: USER        Electrostatic Energy            =  +0.00 kcal/mol
DOCKED: USER        Moving Ligand-Fixed Receptor    =  +0.00 kcal/mol
DOCKED: USER        Moving Ligand-Moving Receptor   =  +0.00 kcal/mol
DOCKED: USER    (2) Final Total Internal Energy     = -25.73 kcal/mol
DOCKED: USER    (3) Torsional Free Energy           =  +8.05 kcal/mol
DOCKED: USER    (4) Unbound System's Energy         = -25.73 kcal/mol
DOCKED: USER
DOCKED: USER
DOCKED: REMARK  Name = ligands/ligand_32.pdb
DOCKED: REMARK  32 active torsions:
DOCKED: REMARK  status: ('A' for Active; 'I' for Inactive)
DOCKED: REMARK    1  A    between atoms: C1_1  and  C2_2
DOCKED: REMARK    2  A    between atoms: C2_2  and  C3_3
DOCKED: REMARK    3  A    between atoms: C2_2  and  C4_4
DOCKED: REMARK    4  A    between atoms: C4_4  and  C5_5
DOCKED: REMARK    5  A    between atoms: C5_5  and  N1_6
DOCKED: REMARK    6  A    between atoms: C5_5  and  C10_15
DOCKED: REMARK    7  A    between atoms: C6_7  and  C7_9
DOCKED: REMARK    8  A    between atoms: C7_9  and  N2_10
DOCKED: REMARK    9  A    between atoms: C7_9  and  C8_11
DOCKED: REMARK   10  A    between atoms: C8_11  and  C9_12
DOCKED: REMARK   11  A    between atoms: C10_15  and  O3_16
DOCKED: REMARK   12  A    between atoms: C10_15  and  C11_17
DOCKED: REMARK   13  A    between atoms: C11_17  and  C12_18
DOCKED: REMARK   14  A    between atoms: N4_20  and  C13_21
DOCKED: REMARK   15  A    between atoms: C13_21  and  C14_22
DOCKED: REMARK   16  A    between atoms: C13_21  and  C32_50
DOCKED: REMARK   17  A    between atoms: N5_24  and  C15_25
DOCKED: REMARK   18  A    between atoms: C15_25  and  C16_26
DOCKED: REMARK   19  A    between atoms: C15_25  and  C17_27
DOCKED: REMARK   20  A    between atoms: N6_29  and  C18_30
DOCKED: REMARK   21  A    between atoms: C18_30  and  C19_31
DOCKED: REMARK   22  A    between atoms: C18_30  and  C22_36
DOCKED: REMARK   23  A    between atoms: C19_31  and  C20_32
DOCKED: REMARK   24  A    between atoms: C20_32  and  C21_33
DOCKED: REMARK   25  A    between atoms: C21_33  and  O8_35
DOCKED: REMARK   26  A    between atoms: N7_38  and  C23_39
DOCKED: REMARK   27  A    between atoms: C23_39  and  C24_40
DOCKED: REMARK   28  A    between atoms: C23_39  and  C31_47
DOCKED: REMARK   29  A    between atoms: C24_40  and  C25_41
DOCKED: REMARK   30  A    between atoms: C31_47  and  O11_49
DOCKED: REMARK   31  A    between atoms: C32_50  and  C33_51
DOCKED: REMARK   32  A    between atoms: C32_50  and  C34_52
DOCKED: REMARK                            x       y       z     vdW  Elec       q    Type
DOCKED: REMARK                         _______ _______ _______ _____ _____    ______ ____
DOCKED: USER                              x       y       z     vdW  Elec       q    Type
DOCKED: USER                           _______ _______ _______ _____ _____    ______ ____
DOCKED: ROOT
DOCKED: ATOM      1  C14 UNL     1      14.278  -6.984   4.339 +0.00 +0.00    +0.234 C  
DOCKED: ATOM      2  O5  UNL     1      13.412  -7.762   3.944 +0.00 -0.00    -0.274 OA 
DOCKED: ATOM      3  N5  UNL     1      14.015  -5.942   5.207 +0.00 -0.00    -0.303 N  
DOCKED: ATOM      4  H25 UNL     1      14.833  -5.551   5.675 +0.00 +0.00    +0.149 HD 
DOCKED: ENDROOT
DOCKED: BRANCH   3   5
DOCKED: ATOM      5  C15 UNL     1      12.766  -5.813   5.954 +0.00 +0.00    +0.156 C  
DOCKED: ATOM      6  C16 UNL     1      11.504  -5.793   5.083 +0.00 +0.00    +0.038 C  
DOCKED: BRANCH   5   7
DOCKED: ATOM      7  C17 UNL     1      12.739  -6.875   7.076 +0.00 +0.00    +0.234 C  
DOCKED: ATOM      8  O6  UNL     1      12.969  -6.590   8.253 +0.00 -0.00    -0.274 OA 
DOCKED: ATOM      9  N6  UNL     1      12.347  -8.141   6.702 +0.00 -0.00    -0.302 N  
DOCKED: ATOM     10  H30 UNL     1      12.447  -8.371   5.716 +0.00 +0.00    +0.150 HD 
DOCKED: BRANCH   9  11
DOCKED: ATOM     11  C18 UNL     1      12.535  -9.282   7.590 +0.00 +0.00    +0.159 C  
DOCKED: BRANCH  11  12
DOCKED: ATOM     12  C22 UNL     1      13.637 -10.164   6.994 +0.00 +0.00    +0.234 C  
DOCKED: ATOM     13  O9  UNL     1      14.364 -10.862   7.701 +0.00 -0.00    -0.274 OA 
DOCKED: ATOM     14  N7  UNL     1      13.782 -10.062   5.626 +0.00 -0.00    -0.301 N  
DOCKED: ATOM     15  H37 UNL     1      13.050  -9.608   5.085 +0.00 +0.00    +0.150 HD 
DOCKED: BRANCH  14  16
DOCKED: ATOM     16  C23 UNL     1      14.774 -10.867   4.901 +0.00 +0.00    +0.186 C  
DOCKED: BRANCH  16  17
DOCKED: ATOM     17  C31 UNL     1      14.674 -10.505   3.428 +0.00 +0.00    +0.326 C  
DOCKED: ATOM     18  O10 UNL     1      15.511 -10.727   2.567 +0.00 -0.00    -0.249 OA 
DOCKED: BRANCH  17  19
DOCKED: ATOM     19  O11 UNL     1      13.480  -9.995   3.086 +0.00 -0.00    -0.479 OA 
DOCKED: ATOM     20  H46 UNL     1      12.874 -10.347   3.763 +0.00 +0.00    +0.295 HD 
DOCKED: ENDBRANCH  17  19
DOCKED: ENDBRANCH  16  17
DOCKED: BRANCH  16  21
DOCKED: ATOM     21  C24 UNL     1      14.508 -12.370   5.067 +0.00 +0.00    +0.069 C  
DOCKED: BRANCH  21  22
DOCKED: ATOM     22  C25 UNL     1      14.276 -13.080   3.756 +0.00 -0.00    -0.045 A  
DOCKED: ATOM     23  C26 UNL     1      15.367 -13.620   3.062 +0.00 +0.00    +0.004 A  
DOCKED: ATOM     24  C27 UNL     1      15.178 -14.284   1.851 +0.00 +0.00    +0.000 A  
DOCKED: ATOM     25  C28 UNL     1      13.891 -14.429   1.332 +0.00 +0.00    +0.000 A  
DOCKED: ATOM     26  C29 UNL     1      12.803 -13.881   2.004 +0.00 +0.00    +0.000 A  
DOCKED: ATOM     27  C30 UNL     1      12.995 -13.198   3.210 +0.00 +0.00    +0.004 A  
DOCKED: ENDBRANCH  21  22
DOCKED: ENDBRANCH  16  21
DOCKED: ENDBRANCH  14  16
DOCKED: ENDBRANCH  11  12
DOCKED: BRANCH  11  28
DOCKED: ATOM     28  C19 UNL     1      11.252 -10.110   7.719 +0.00 +0.00    +0.043 C  
DOCKED: BRANCH  28  29
DOCKED: ATOM     29  C20 UNL     1      10.312  -9.935   6.524 +0.00 +0.00    +0.123 C  
DOCKED: BRANCH  29  30
DOCKED: ATOM     30  C21 UNL     1      11.006 -10.257   5.224 +0.00 +0.00    +0.305 C  
DOCKED: ATOM     31  O7  UNL     1      11.539 -11.313   4.931 +0.00 -0.00    -0.251 OA 
DOCKED: BRANCH  30  32
DOCKED: ATOM     32  O8  UNL     1      11.036  -9.202   4.391 +0.00 -0.00    -0.481 OA 
DOCKED: ATOM     33  H36 UNL     1      11.859  -9.304   3.870 +0.00 +0.00    +0.295 HD 
DOCKED: ENDBRANCH  30  32
DOCKED: ENDBRANCH  29  30
DOCKED: ENDBRANCH  28  29
DOCKED: ENDBRANCH  11  28
DOCKED: ENDBRANCH   9  11
DOCKED: ENDBRANCH   5   7
DOCKED: ENDBRANCH   3   5
DOCKED: BRANCH   1  34
DOCKED: ATOM     34  C13 UNL     1      15.773  -7.162   3.966 +0.00 +0.00    +0.161 C  
DOCKED: BRANCH  34  37
DOCKED: ATOM     35  C12 UNL     1      16.559  -7.760   1.620 +0.00 +0.00    +0.216 C  
DOCKED: ATOM     36  O4  UNL     1      17.457  -6.943   1.543 +0.00 -0.00    -0.276 OA 
DOCKED: ATOM     37  N4  UNL     1      15.816  -8.026   2.766 +0.00 -0.00    -0.304 N  
DOCKED: ATOM     38  H23 UNL     1      14.943  -8.523   2.611 +0.00 +0.00    +0.149 HD 
DOCKED: BRANCH  35  39
DOCKED: ATOM     39  C11 UNL     1      16.207  -8.702   0.493 +0.00 +0.00    +0.129 C  
DOCKED: BRANCH  39  40
DOCKED: ATOM     40  C10 UNL     1      14.714  -8.847   0.135 +0.00 +0.00    +0.143 C  
DOCKED: BRANCH  40  41
DOCKED: ATOM     41  O3  UNL     1      13.799  -8.316   1.094 +0.00 -0.00    -0.389 OA 
DOCKED: ATOM     42  H20 UNL     1      13.865  -8.881   1.892 +0.00 +0.00    +0.210 HD 
DOCKED: ENDBRANCH  40  41
DOCKED: BRANCH  40  43
DOCKED: ATOM     43  C5  UNL     1      14.249 -10.261  -0.312 +0.00 +0.00    +0.102 C  
DOCKED: BRANCH  43  44
DOCKED: ATOM     44  N1  UNL     1      13.056 -10.590   0.480 +0.00 -0.00    -0.309 N  
DOCKED: ATOM     45  C6  UNL     1      11.779 -10.458   0.003 +0.00 +0.00    +0.231 C  
DOCKED: ATOM     46  O1  UNL     1      11.514 -10.387  -1.198 +0.00 -0.00    -0.274 OA 
DOCKED: ATOM     47  H11 UNL     1      13.189 -10.731   1.477 +0.00 +0.00    +0.149 HD 
DOCKED: BRANCH  45  48
DOCKED: ATOM     48  C7  UNL     1      10.664 -10.512   1.070 +0.00 +0.00    +0.146 C  
DOCKED: BRANCH  48  49
DOCKED: ATOM     49  N2  UNL     1      11.280 -10.844   2.384 +0.00 -0.00    -0.320 NA 
DOCKED: ATOM     50  H13 UNL     1      11.888 -10.077   2.673 +0.00 +0.00    +0.119 HD 
DOCKED: ATOM     51  H14 UNL     1      10.526 -10.874   3.073 +0.00 +0.00    +0.119 HD 
DOCKED: ENDBRANCH  48  49
DOCKED: BRANCH  48  52
DOCKED: ATOM     52  C8  UNL     1       9.833  -9.229   1.163 +0.00 +0.00    +0.123 C  
DOCKED: BRANCH  52  53
DOCKED: ATOM     53  C9  UNL     1      10.750  -8.017   1.157 +0.00 +0.00    +0.212 C  
DOCKED: ATOM     54  N3  UNL     1      11.628  -7.926   2.199 +0.00 -0.00    -0.329 N  
DOCKED: ATOM     55  O2  UNL     1      10.724  -7.143   0.293 +0.00 -0.00    -0.276 OA 
DOCKED: ATOM     56  H17 UNL     1      12.316  -7.188   2.078 +0.00 +0.00    +0.145 HD 
DOCKED: ATOM     57  H18 UNL     1      12.062  -8.794   2.530 +0.00 +0.00    +0.145 HD 
DOCKED: ENDBRANCH  52  53
DOCKED: ENDBRANCH  48  52
DOCKED: ENDBRANCH  45  48
DOCKED: ENDBRANCH  43  44
DOCKED: BRANCH  43  58
DOCKED: ATOM     58  C4  UNL     1      15.278 -11.395  -0.120 +0.00 +0.00    +0.028 C  
DOCKED: BRANCH  58  60
DOCKED: ATOM     59  C1  UNL     1      13.945 -12.840  -1.724 +0.00 +0.00    +0.007 C  
DOCKED: ATOM     60  C2  UNL     1      15.341 -12.353  -1.327 +0.00 -0.00    -0.015 C  
DOCKED: ATOM     61  C3  UNL     1      16.002 -11.664  -2.521 +0.00 +0.00    +0.007 C  
DOCKED: ENDBRANCH  58  60
DOCKED: ENDBRANCH  43  58
DOCKED: ENDBRANCH  40  43
DOCKED: ENDBRANCH  39  40
DOCKED: ENDBRANCH  35  39
DOCKED: ENDBRANCH  34  37
DOCKED: BRANCH  34  62
DOCKED: ATOM     62  C32 UNL     1      16.610  -5.862   3.887 +0.00 +0.00    +0.012 C  
DOCKED: ATOM     63  C33 UNL     1      17.094  -5.434   5.283 +0.00 +0.00    +0.009 C  
DOCKED: ATOM     64  C34 UNL     1      15.862  -4.662   3.292 +0.00 +0.00    +0.009 C  
DOCKED: ENDBRANCH  34  62
DOCKED: ENDBRANCH   1  34
DOCKED: TORSDOF 27
DOCKED: TER
DOCKED: ENDMDL
________________________________________________________________________________


    FINAL DOCKED STATE:
    ________________________


Run:   11 / 20
Time taken for this run:   4.058s

DOCKED: MODEL        11
DOCKED: USER    Run = 11
DOCKED: USER
DOCKED: USER    Estimated Free Energy of Binding    =  +8.05 kcal/mol  [=(1)+(2)+(3)-(4)]
DOCKED: USER
DOCKED: USER    (1) Final Intermolecular Energy     =  +0.00 kcal/mol
DOCKED: USER        vdW + Hbond + desolv Energy     =  +0.00 kcal/mol
DOCKED: USER        Electrostatic Energy            =  +0.00 kcal/mol
DOCKED: USER        Moving Ligand-Fixed Receptor    =  +0.00 kcal/mol
DOCKED: USER        Moving Ligand-Moving Receptor   =  +0.00 kcal/mol
DOCKED: USER    (2) Final Total Internal Energy     = -25.79 kcal/mol
DOCKED: USER    (3) Torsional Free Energy           =  +8.05 kcal/mol
DOCKED: USER    (4) Unbound System's Energy         = -25.79 kcal/mol
DOCKED: USER
DOCKED: USER
DOCKED: REMARK  Name = ligands/ligand_32.pdb
DOCKED: REMARK  32 active torsions:
DOCKED: REMARK  status: ('A' for Active; 'I' for Inactive)
DOCKED: REMARK    1  A    between atoms: C1_1  and  C2_2
DOCKED: REMARK    2  A    between atoms: C2_2  and  C3_3
DOCKED: REMARK    3  A    between atoms: C2_2  and  C4_4
DOCKED: REMARK    4  A    between atoms: C4_4  and  C5_5
DOCKED: REMARK    5  A    between atoms: C5_5  and  N1_6
DOCKED: REMARK    6  A    between atoms: C5_5  and  C10_15
DOCKED: REMARK    7  A    between atoms: C6_7  and  C7_9
DOCKED: REMARK    8  A    between atoms: C7_9  and  N2_10
DOCKED: REMARK    9  A    between atoms: C7_9  and  C8_11
DOCKED: REMARK   10  A    between atoms: C8_11  and  C9_12
DOCKED: REMARK   11  A    between atoms: C10_15  and  O3_16
DOCKED: REMARK   12  A    between atoms: C10_15  and  C11_17
DOCKED: REMARK   13  A    between atoms: C11_17  and  C12_18
DOCKED: REMARK   14  A    between atoms: N4_20  and  C13_21
DOCKED: REMARK   15  A    between atoms: C13_21  and  C14_22
DOCKED: REMARK   16  A    between atoms: C13_21  and  C32_50
DOCKED: REMARK   17  A    between atoms: N5_24  and  C15_25
DOCKED: REMARK   18  A    between atoms: C15_25  and  C16_26
DOCKED: REMARK   19  A    between atoms: C15_25  and  C17_27
DOCKED: REMARK   20  A    between atoms: N6_29  and  C18_30
DOCKED: REMARK   21  A    between atoms: C18_30  and  C19_31
DOCKED: REMARK   22  A    between atoms: C18_30  and  C22_36
DOCKED: REMARK   23  A    between atoms: C19_31  and  C20_32
DOCKED: REMARK   24  A    between atoms: C20_32  and  C21_33
DOCKED: REMARK   25  A    between atoms: C21_33  and  O8_35
DOCKED: REMARK   26  A    between atoms: N7_38  and  C23_39
DOCKED: REMARK   27  A    between atoms: C23_39  and  C24_40
DOCKED: REMARK   28  A    between atoms: C23_39  and  C31_47
DOCKED: REMARK   29  A    between atoms: C24_40  and  C25_41
DOCKED: REMARK   30  A    between atoms: C31_47  and  O11_49
DOCKED: REMARK   31  A    between atoms: C32_50  and  C33_51
DOCKED: REMARK   32  A    between atoms: C32_50  and  C34_52
DOCKED: REMARK                            x       y       z     vdW  Elec       q    Type
DOCKED: REMARK                         _______ _______ _______ _____ _____    ______ ____
DOCKED: USER                              x       y       z     vdW  Elec       q    Type
DOCKED: USER                           _______ _______ _______ _____ _____    ______ ____
DOCKED: ROOT
DOCKED: ATOM      1  C14 UNL     1      13.570  -0.974  -3.323 +0.00 +0.00    +0.234 C  
DOCKED: ATOM      2  O5  UNL     1      13.107  -0.129  -2.560 +0.00 -0.00    -0.274 OA 
DOCKED: ATOM      3  N5  UNL     1      12.835  -2.040  -3.802 +0.00 -0.00    -0.303 N  
DOCKED: ATOM      4  H25 UNL     1      13.223  -2.499  -4.627 +0.00 +0.00    +0.149 HD 
DOCKED: ENDROOT
DOCKED: BRANCH   3   5
DOCKED: ATOM      5  C15 UNL     1      11.381  -2.133  -3.682 +0.00 +0.00    +0.156 C  
DOCKED: ATOM      6  C16 UNL     1      10.857  -2.054  -2.243 +0.00 +0.00    +0.038 C  
DOCKED: BRANCH   5   7
DOCKED: ATOM      7  C17 UNL     1      10.730  -1.116  -4.646 +0.00 +0.00    +0.234 C  
DOCKED: ATOM      8  O6  UNL     1      10.308  -1.445  -5.757 +0.00 -0.00    -0.274 OA 
DOCKED: ATOM      9  N6  UNL     1      10.557   0.158  -4.155 +0.00 -0.00    -0.302 N  
DOCKED: ATOM     10  H30 UNL     1      11.159   0.428  -3.379 +0.00 +0.00    +0.150 HD 
DOCKED: BRANCH   9  11
DOCKED: ATOM     11  C18 UNL     1      10.210   1.266  -5.037 +0.00 +0.00    +0.159 C  
DOCKED: BRANCH  11  12
DOCKED: ATOM     12  C22 UNL     1      11.477   2.096  -5.269 +0.00 +0.00    +0.234 C  
DOCKED: ATOM     13  O9  UNL     1      11.665   2.714  -6.318 +0.00 -0.00    -0.274 OA 
DOCKED: ATOM     14  N7  UNL     1      12.399   2.041  -4.245 +0.00 -0.00    -0.301 N  
DOCKED: ATOM     15  H37 UNL     1      12.116   1.661  -3.345 +0.00 +0.00    +0.150 HD 
DOCKED: BRANCH  14  16
DOCKED: ATOM     16  C23 UNL     1      13.651   2.808  -4.304 +0.00 +0.00    +0.186 C  
DOCKED: BRANCH  16  17
DOCKED: ATOM     17  C31 UNL     1      14.424   2.527  -3.024 +0.00 +0.00    +0.326 C  
DOCKED: ATOM     18  O10 UNL     1      15.610   2.744  -2.830 +0.00 -0.00    -0.249 OA 
DOCKED: BRANCH  17  19
DOCKED: ATOM     19  O11 UNL     1      13.645   2.104  -2.015 +0.00 -0.00    -0.479 OA 
DOCKED: ATOM     20  H46 UNL     1      12.766   2.462  -2.235 +0.00 +0.00    +0.295 HD 
DOCKED: ENDBRANCH  17  19
DOCKED: ENDBRANCH  16  17
DOCKED: BRANCH  16  21
DOCKED: ATOM     21  C24 UNL     1      13.383   4.316  -4.406 +0.00 +0.00    +0.069 C  
DOCKED: BRANCH  21  22
DOCKED: ATOM     22  C25 UNL     1      13.989   5.105  -3.272 +0.00 -0.00    -0.045 A  
DOCKED: ATOM     23  C26 UNL     1      13.236   5.339  -2.113 +0.00 +0.00    +0.004 A  
DOCKED: ATOM     24  C27 UNL     1      13.776   6.060  -1.050 +0.00 +0.00    +0.000 A  
DOCKED: ATOM     25  C28 UNL     1      15.083   6.542  -1.130 +0.00 +0.00    +0.000 A  
DOCKED: ATOM     26  C29 UNL     1      15.833   6.332  -2.283 +0.00 +0.00    +0.000 A  
DOCKED: ATOM     27  C30 UNL     1      15.284   5.623  -3.358 +0.00 +0.00    +0.004 A  
DOCKED: ENDBRANCH  21  22
DOCKED: ENDBRANCH  16  21
DOCKED: ENDBRANCH  14  16
DOCKED: ENDBRANCH  11  12
DOCKED: BRANCH  11  28
DOCKED: ATOM     28  C19 UNL     1       9.136   2.163  -4.414 +0.00 +0.00    +0.043 C  
DOCKED: BRANCH  28  29
DOCKED: ATOM     29  C20 UNL     1       9.092   2.062  -2.888 +0.00 +0.00    +0.123 C  
DOCKED: BRANCH  29  30
DOCKED: ATOM     30  C21 UNL     1      10.430   2.387  -2.273 +0.00 +0.00    +0.305 C  
DOCKED: ATOM     31  O7  UNL     1      11.056   3.423  -2.411 +0.00 -0.00    -0.251 OA 
DOCKED: BRANCH  30  32
DOCKED: ATOM     32  O8  UNL     1      10.927   1.357  -1.566 +0.00 -0.00    -0.481 OA 
DOCKED: ATOM     33  H36 UNL     1      11.900   1.450  -1.617 +0.00 +0.00    +0.295 HD 
DOCKED: ENDBRANCH  30  32
DOCKED: ENDBRANCH  29  30
DOCKED: ENDBRANCH  28  29
DOCKED: ENDBRANCH  11  28
DOCKED: ENDBRANCH   9  11
DOCKED: ENDBRANCH   5   7
DOCKED: ENDBRANCH   3   5
DOCKED: BRANCH   1  34
DOCKED: ATOM     34  C13 UNL     1      15.009  -0.863  -3.893 +0.00 +0.00    +0.161 C  
DOCKED: BRANCH  34  37
DOCKED: ATOM     35  C12 UNL     1      17.042  -0.142  -2.543 +0.00 +0.00    +0.216 C  
DOCKED: ATOM     36  O4  UNL     1      17.823  -0.963  -2.987 +0.00 -0.00    -0.276 OA 
DOCKED: ATOM     37  N4  UNL     1      15.749   0.067  -3.014 +0.00 -0.00    -0.304 N  
DOCKED: ATOM     38  H23 UNL     1      15.137   0.581  -2.385 +0.00 +0.00    +0.149 HD 
DOCKED: BRANCH  35  39
DOCKED: ATOM     39  C11 UNL     1      17.423   0.866  -1.485 +0.00 +0.00    +0.129 C  
DOCKED: BRANCH  39  40
DOCKED: ATOM     40  C10 UNL     1      16.433   1.074  -0.321 +0.00 +0.00    +0.143 C  
DOCKED: BRANCH  40  41
DOCKED: ATOM     41  O3  UNL     1      15.132   0.518  -0.514 +0.00 -0.00    -0.389 OA 
DOCKED: ATOM     42  H20 UNL     1      14.665   1.103  -1.146 +0.00 +0.00    +0.210 HD 
DOCKED: ENDBRANCH  40  41
DOCKED: BRANCH  40  43
DOCKED: ATOM     43  C5  UNL     1      16.311   2.525   0.225 +0.00 +0.00    +0.102 C  
DOCKED: BRANCH  43  44
DOCKED: ATOM     44  N1  UNL     1      14.879   2.847   0.267 +0.00 -0.00    -0.309 N  
DOCKED: ATOM     45  C6  UNL     1      14.145   2.860   1.424 +0.00 +0.00    +0.231 C  
DOCKED: ATOM     46  O1  UNL     1      14.655   2.942   2.542 +0.00 -0.00    -0.274 OA 
DOCKED: ATOM     47  H11 UNL     1      14.384   2.867  -0.620 +0.00 +0.00    +0.149 HD 
DOCKED: BRANCH  45  48
DOCKED: ATOM     48  C7  UNL     1      12.613   2.874   1.238 +0.00 +0.00    +0.146 C  
DOCKED: BRANCH  48  49
DOCKED: ATOM     49  N2  UNL     1      12.312   3.116  -0.200 +0.00 -0.00    -0.320 NA 
DOCKED: ATOM     50  H13 UNL     1      12.674   2.339  -0.754 +0.00 +0.00    +0.119 HD 
DOCKED: ATOM     51  H14 UNL     1      11.296   3.081  -0.308 +0.00 +0.00    +0.119 HD 
DOCKED: ENDBRANCH  48  49
DOCKED: BRANCH  48  52
DOCKED: ATOM     52  C8  UNL     1      11.916   1.605   1.737 +0.00 +0.00    +0.123 C  
DOCKED: BRANCH  52  53
DOCKED: ATOM     53  C9  UNL     1      12.673   0.377   1.259 +0.00 +0.00    +0.212 C  
DOCKED: ATOM     54  N3  UNL     1      12.735   0.202  -0.094 +0.00 -0.00    -0.329 N  
DOCKED: ATOM     55  O2  UNL     1      13.198  -0.441   2.013 +0.00 -0.00    -0.276 OA 
DOCKED: ATOM     56  H17 UNL     1      13.370  -0.542  -0.372 +0.00 +0.00    +0.145 HD 
DOCKED: ATOM     57  H18 UNL     1      12.859   1.038  -0.674 +0.00 +0.00    +0.145 HD 
DOCKED: ENDBRANCH  52  53
DOCKED: ENDBRANCH  48  52
DOCKED: ENDBRANCH  45  48
DOCKED: ENDBRANCH  43  44
DOCKED: BRANCH  43  58
DOCKED: ATOM     58  C4  UNL     1      17.023   3.614  -0.604 +0.00 +0.00    +0.028 C  
DOCKED: BRANCH  58  60
DOCKED: ATOM     59  C1  UNL     1      16.937   5.166   1.402 +0.00 +0.00    +0.007 C  
DOCKED: ATOM     60  C2  UNL     1      17.809   4.611   0.271 +0.00 -0.00    -0.015 C  
DOCKED: ATOM     61  C3  UNL     1      19.049   3.940   0.863 +0.00 +0.00    +0.007 C  
DOCKED: ENDBRANCH  58  60
DOCKED: ENDBRANCH  43  58
DOCKED: ENDBRANCH  40  43
DOCKED: ENDBRANCH  39  40
DOCKED: ENDBRANCH  35  39
DOCKED: ENDBRANCH  34  37
DOCKED: BRANCH  34  62
DOCKED: ATOM     62  C32 UNL     1      15.718  -2.203  -4.202 +0.00 +0.00    +0.012 C  
DOCKED: ATOM     63  C33 UNL     1      15.299  -2.744  -5.580 +0.00 +0.00    +0.009 C  
DOCKED: ATOM     64  C34 UNL     1      15.436  -3.318  -3.187 +0.00 +0.00    +0.009 C  
DOCKED: ENDBRANCH  34  62
DOCKED: ENDBRANCH   1  34
DOCKED: TORSDOF 27
DOCKED: TER
DOCKED: ENDMDL
________________________________________________________________________________


    FINAL DOCKED STATE:
    ________________________


Run:   12 / 20
Time taken for this run:   4.058s

DOCKED: MODEL        12
DOCKED: USER    Run = 12
DOCKED: USER
DOCKED: USER    Estimated Free Energy of Binding    =  +8.05 kcal/mol  [=(1)+(2)+(3)-(4)]
DOCKED: USER
DOCKED: USER    (1) Final Intermolecular Energy     =  +0.00 kcal/mol
DOCKED: USER        vdW + Hbond + desolv Energy     =  +0.00 kcal/mol
DOCKED: USER        Electrostatic Energy            =  +0.00 kcal/mol
DOCKED: USER        Moving Ligand-Fixed Receptor    =  +0.00 kcal/mol
DOCKED: USER        Moving Ligand-Moving Receptor   =  +0.00 kcal/mol
DOCKED: USER    (2) Final Total Internal Energy     = -25.63 kcal/mol
DOCKED: USER    (3) Torsional Free Energy           =  +8.05 kcal/mol
DOCKED: USER    (4) Unbound System's Energy         = -25.63 kcal/mol
DOCKED: USER
DOCKED: USER
DOCKED: REMARK  Name = ligands/ligand_32.pdb
DOCKED: REMARK  32 active torsions:
DOCKED: REMARK  status: ('A' for Active; 'I' for Inactive)
DOCKED: REMARK    1  A    between atoms: C1_1  and  C2_2
DOCKED: REMARK    2  A    between atoms: C2_2  and  C3_3
DOCKED: REMARK    3  A    between atoms: C2_2  and  C4_4
DOCKED: REMARK    4  A    between atoms: C4_4  and  C5_5
DOCKED: REMARK    5  A    between atoms: C5_5  and  N1_6
DOCKED: REMARK    6  A    between atoms: C5_5  and  C10_15
DOCKED: REMARK    7  A    between atoms: C6_7  and  C7_9
DOCKED: REMARK    8  A    between atoms: C7_9  and  N2_10
DOCKED: REMARK    9  A    between atoms: C7_9  and  C8_11
DOCKED: REMARK   10  A    between atoms: C8_11  and  C9_12
DOCKED: REMARK   11  A    between atoms: C10_15  and  O3_16
DOCKED: REMARK   12  A    between atoms: C10_15  and  C11_17
DOCKED: REMARK   13  A    between atoms: C11_17  and  C12_18
DOCKED: REMARK   14  A    between atoms: N4_20  and  C13_21
DOCKED: REMARK   15  A    between atoms: C13_21  and  C14_22
DOCKED: REMARK   16  A    between atoms: C13_21  and  C32_50
DOCKED: REMARK   17  A    between atoms: N5_24  and  C15_25
DOCKED: REMARK   18  A    between atoms: C15_25  and  C16_26
DOCKED: REMARK   19  A    between atoms: C15_25  and  C17_27
DOCKED: REMARK   20  A    between atoms: N6_29  and  C18_30
DOCKED: REMARK   21  A    between atoms: C18_30  and  C19_31
DOCKED: REMARK   22  A    between atoms: C18_30  and  C22_36
DOCKED: REMARK   23  A    between atoms: C19_31  and  C20_32
DOCKED: REMARK   24  A    between atoms: C20_32  and  C21_33
DOCKED: REMARK   25  A    between atoms: C21_33  and  O8_35
DOCKED: REMARK   26  A    between atoms: N7_38  and  C23_39
DOCKED: REMARK   27  A    between atoms: C23_39  and  C24_40
DOCKED: REMARK   28  A    between atoms: C23_39  and  C31_47
DOCKED: REMARK   29  A    between atoms: C24_40  and  C25_41
DOCKED: REMARK   30  A    between atoms: C31_47  and  O11_49
DOCKED: REMARK   31  A    between atoms: C32_50  and  C33_51
DOCKED: REMARK   32  A    between atoms: C32_50  and  C34_52
DOCKED: REMARK                            x       y       z     vdW  Elec       q    Type
DOCKED: REMARK                         _______ _______ _______ _____ _____    ______ ____
DOCKED: USER                              x       y       z     vdW  Elec       q    Type
DOCKED: USER                           _______ _______ _______ _____ _____    ______ ____
DOCKED: ROOT
DOCKED: ATOM      1  C14 UNL     1       6.649  -9.536   1.052 +0.00 +0.00    +0.234 C  
DOCKED: ATOM      2  O5  UNL     1       6.235  -9.445   2.206 +0.00 -0.00    -0.274 OA 
DOCKED: ATOM      3  N5  UNL     1       7.963  -9.830   0.744 +0.00 -0.00    -0.303 N  
DOCKED: ATOM      4  H25 UNL     1       8.123 -10.153  -0.211 +0.00 +0.00    +0.149 HD 
DOCKED: ENDROOT
DOCKED: BRANCH   3   5
DOCKED: ATOM      5  C15 UNL     1       8.927 -10.326   1.724 +0.00 +0.00    +0.156 C  
DOCKED: ATOM      6  C16 UNL     1       9.157  -9.393   2.919 +0.00 +0.00    +0.038 C  
DOCKED: BRANCH   5   7
DOCKED: ATOM      7  C17 UNL     1       8.545 -11.770   2.118 +0.00 +0.00    +0.234 C  
DOCKED: ATOM      8  O6  UNL     1       9.075 -12.753   1.595 +0.00 -0.00    -0.274 OA 
DOCKED: ATOM      9  N6  UNL     1       7.652 -11.898   3.158 +0.00 -0.00    -0.302 N  
DOCKED: ATOM     10  H30 UNL     1       7.060 -11.092   3.345 +0.00 +0.00    +0.150 HD 
DOCKED: BRANCH   9  11
DOCKED: ATOM     11  C18 UNL     1       7.009 -13.174   3.448 +0.00 +0.00    +0.159 C  
DOCKED: BRANCH  11  12
DOCKED: ATOM     12  C22 UNL     1       5.638 -13.175   2.766 +0.00 +0.00    +0.234 C  
DOCKED: ATOM     13  O9  UNL     1       5.164 -14.193   2.261 +0.00 -0.00    -0.274 OA 
DOCKED: ATOM     14  N7  UNL     1       5.019 -11.944   2.711 +0.00 -0.00    -0.301 N  
DOCKED: ATOM     15  H37 UNL     1       5.375 -11.186   3.289 +0.00 +0.00    +0.150 HD 
DOCKED: BRANCH  14  16
DOCKED: ATOM     16  C23 UNL     1       3.684 -11.785   2.117 +0.00 +0.00    +0.186 C  
DOCKED: BRANCH  16  17
DOCKED: ATOM     17  C31 UNL     1       3.147 -10.428   2.545 +0.00 +0.00    +0.326 C  
DOCKED: ATOM     18  O10 UNL     1       1.989 -10.048   2.467 +0.00 -0.00    -0.249 OA 
DOCKED: BRANCH  17  19
DOCKED: ATOM     19  O11 UNL     1       4.063  -9.665   3.163 +0.00 -0.00    -0.479 OA 
DOCKED: ATOM     20  H46 UNL     1       4.415 -10.245   3.862 +0.00 +0.00    +0.295 HD 
DOCKED: ENDBRANCH  17  19
DOCKED: ENDBRANCH  16  17
DOCKED: BRANCH  16  21
DOCKED: ATOM     21  C24 UNL     1       2.721 -12.880   2.597 +0.00 +0.00    +0.069 C  
DOCKED: BRANCH  21  22
DOCKED: ATOM     22  C25 UNL     1       2.528 -12.886   4.093 +0.00 -0.00    -0.045 A  
DOCKED: ATOM     23  C26 UNL     1       3.207 -13.833   4.873 +0.00 +0.00    +0.004 A  
DOCKED: ATOM     24  C27 UNL     1       3.049 -13.856   6.257 +0.00 +0.00    +0.000 A  
DOCKED: ATOM     25  C28 UNL     1       2.222 -12.920   6.877 +0.00 +0.00    +0.000 A  
DOCKED: ATOM     26  C29 UNL     1       1.529 -11.987   6.112 +0.00 +0.00    +0.000 A  
DOCKED: ATOM     27  C30 UNL     1       1.674 -11.976   4.720 +0.00 +0.00    +0.004 A  
DOCKED: ENDBRANCH  21  22
DOCKED: ENDBRANCH  16  21
DOCKED: ENDBRANCH  14  16
DOCKED: ENDBRANCH  11  12
DOCKED: BRANCH  11  28
DOCKED: ATOM     28  C19 UNL     1       6.814 -13.374   4.955 +0.00 +0.00    +0.043 C  
DOCKED: BRANCH  28  29
DOCKED: ATOM     29  C20 UNL     1       6.905 -12.065   5.742 +0.00 +0.00    +0.123 C  
DOCKED: BRANCH  29  30
DOCKED: ATOM     30  C21 UNL     1       5.814 -11.103   5.344 +0.00 +0.00    +0.305 C  
DOCKED: ATOM     31  O7  UNL     1       4.615 -11.313   5.383 +0.00 -0.00    -0.251 OA 
DOCKED: BRANCH  30  32
DOCKED: ATOM     32  O8  UNL     1       6.308  -9.949   4.860 +0.00 -0.00    -0.481 OA 
DOCKED: ATOM     33  H36 UNL     1       5.608  -9.588   4.279 +0.00 +0.00    +0.295 HD 
DOCKED: ENDBRANCH  30  32
DOCKED: ENDBRANCH  29  30
DOCKED: ENDBRANCH  28  29
DOCKED: ENDBRANCH  11  28
DOCKED: ENDBRANCH   9  11
DOCKED: ENDBRANCH   5   7
DOCKED: ENDBRANCH   3   5
DOCKED: BRANCH   1  34
DOCKED: ATOM     34  C13 UNL     1       5.702  -9.419  -0.171 +0.00 +0.00    +0.161 C  
DOCKED: BRANCH  34  37
DOCKED: ATOM     35  C12 UNL     1       3.399  -8.365  -0.429 +0.00 +0.00    +0.216 C  
DOCKED: ATOM     36  O4  UNL     1       3.358  -8.376  -1.645 +0.00 -0.00    -0.276 OA 
DOCKED: ATOM     37  N4  UNL     1       4.392  -8.961   0.342 +0.00 -0.00    -0.304 N  
DOCKED: ATOM     38  H23 UNL     1       4.440  -8.643   1.307 +0.00 +0.00    +0.149 HD 
DOCKED: BRANCH  35  39
DOCKED: ATOM     39  C11 UNL     1       2.289  -7.801   0.425 +0.00 +0.00    +0.129 C  
DOCKED: BRANCH  39  40
DOCKED: ATOM     40  C10 UNL     1       2.701  -6.979   1.664 +0.00 +0.00    +0.143 C  
DOCKED: BRANCH  40  41
DOCKED: ATOM     41  O3  UNL     1       4.016  -7.234   2.160 +0.00 -0.00    -0.389 OA 
DOCKED: ATOM     42  H20 UNL     1       4.004  -8.133   2.546 +0.00 +0.00    +0.210 HD 
DOCKED: ENDBRANCH  40  41
DOCKED: BRANCH  40  43
DOCKED: ATOM     43  C5  UNL     1       1.687  -6.960   2.842 +0.00 +0.00    +0.102 C  
DOCKED: BRANCH  43  44
DOCKED: ATOM     44  N1  UNL     1       2.373  -7.533   4.007 +0.00 -0.00    -0.309 N  
DOCKED: ATOM     45  C6  UNL     1       2.890  -6.774   5.024 +0.00 +0.00    +0.231 C  
DOCKED: ATOM     46  O1  UNL     1       2.545  -5.610   5.235 +0.00 -0.00    -0.274 OA 
DOCKED: ATOM     47  H11 UNL     1       2.641  -8.511   3.949 +0.00 +0.00    +0.149 HD 
DOCKED: BRANCH  45  48
DOCKED: ATOM     48  C7  UNL     1       3.866  -7.506   5.969 +0.00 +0.00    +0.146 C  
DOCKED: BRANCH  48  49
DOCKED: ATOM     49  N2  UNL     1       3.946  -8.934   5.555 +0.00 -0.00    -0.320 NA 
DOCKED: ATOM     50  H13 UNL     1       4.353  -8.990   4.621 +0.00 +0.00    +0.119 HD 
DOCKED: ATOM     51  H14 UNL     1       4.616  -9.393   6.176 +0.00 +0.00    +0.119 HD 
DOCKED: ENDBRANCH  48  49
DOCKED: BRANCH  48  52
DOCKED: ATOM     52  C8  UNL     1       5.260  -6.875   6.032 +0.00 +0.00    +0.123 C  
DOCKED: BRANCH  52  53
DOCKED: ATOM     53  C9  UNL     1       5.737  -6.535   4.630 +0.00 +0.00    +0.212 C  
DOCKED: ATOM     54  N3  UNL     1       5.899  -7.592   3.780 +0.00 -0.00    -0.329 N  
DOCKED: ATOM     55  O2  UNL     1       5.987  -5.393   4.249 +0.00 -0.00    -0.276 OA 
DOCKED: ATOM     56  H17 UNL     1       6.074  -7.309   2.819 +0.00 +0.00    +0.145 HD 
DOCKED: ATOM     57  H18 UNL     1       5.210  -8.349   3.830 +0.00 +0.00    +0.145 HD 
DOCKED: ENDBRANCH  52  53
DOCKED: ENDBRANCH  48  52
DOCKED: ENDBRANCH  45  48
DOCKED: ENDBRANCH  43  44
DOCKED: BRANCH  43  58
DOCKED: ATOM     58  C4  UNL     1       0.383  -7.753   2.616 +0.00 +0.00    +0.028 C  
DOCKED: BRANCH  58  60
DOCKED: ATOM     59  C1  UNL     1      -0.829  -7.631   4.842 +0.00 +0.00    +0.007 C  
DOCKED: ATOM     60  C2  UNL     1      -0.065  -8.533   3.869 +0.00 -0.00    -0.015 C  
DOCKED: ATOM     61  C3  UNL     1      -0.944  -9.720   3.473 +0.00 +0.00    +0.007 C  
DOCKED: ENDBRANCH  58  60
DOCKED: ENDBRANCH  43  58
DOCKED: ENDBRANCH  40  43
DOCKED: ENDBRANCH  39  40
DOCKED: ENDBRANCH  35  39
DOCKED: ENDBRANCH  34  37
DOCKED: BRANCH  34  62
DOCKED: ATOM     62  C32 UNL     1       6.258  -8.635  -1.384 +0.00 +0.00    +0.012 C  
DOCKED: ATOM     63  C33 UNL     1       7.142  -9.537  -2.264 +0.00 +0.00    +0.009 C  
DOCKED: ATOM     64  C34 UNL     1       7.108  -7.412  -1.014 +0.00 +0.00    +0.009 C  
DOCKED: ENDBRANCH  34  62
DOCKED: ENDBRANCH   1  34
DOCKED: TORSDOF 27
DOCKED: TER
DOCKED: ENDMDL
________________________________________________________________________________


    FINAL DOCKED STATE:
    ________________________


Run:   13 / 20
Time taken for this run:   4.058s

DOCKED: MODEL        13
DOCKED: USER    Run = 13
DOCKED: USER
DOCKED: USER    Estimated Free Energy of Binding    =  +8.05 kcal/mol  [=(1)+(2)+(3)-(4)]
DOCKED: USER
DOCKED: USER    (1) Final Intermolecular Energy     =  +0.00 kcal/mol
DOCKED: USER        vdW + Hbond + desolv Energy     =  +0.00 kcal/mol
DOCKED: USER        Electrostatic Energy            =  +0.00 kcal/mol
DOCKED: USER        Moving Ligand-Fixed Receptor    =  +0.00 kcal/mol
DOCKED: USER        Moving Ligand-Moving Receptor   =  +0.00 kcal/mol
DOCKED: USER    (2) Final Total Internal Energy     = -25.77 kcal/mol
DOCKED: USER    (3) Torsional Free Energy           =  +8.05 kcal/mol
DOCKED: USER    (4) Unbound System's Energy         = -25.77 kcal/mol
DOCKED: USER
DOCKED: USER
DOCKED: REMARK  Name = ligands/ligand_32.pdb
DOCKED: REMARK  32 active torsions:
DOCKED: REMARK  status: ('A' for Active; 'I' for Inactive)
DOCKED: REMARK    1  A    between atoms: C1_1  and  C2_2
DOCKED: REMARK    2  A    between atoms: C2_2  and  C3_3
DOCKED: REMARK    3  A    between atoms: C2_2  and  C4_4
DOCKED: REMARK    4  A    between atoms: C4_4  and  C5_5
DOCKED: REMARK    5  A    between atoms: C5_5  and  N1_6
DOCKED: REMARK    6  A    between atoms: C5_5  and  C10_15
DOCKED: REMARK    7  A    between atoms: C6_7  and  C7_9
DOCKED: REMARK    8  A    between atoms: C7_9  and  N2_10
DOCKED: REMARK    9  A    between atoms: C7_9  and  C8_11
DOCKED: REMARK   10  A    between atoms: C8_11  and  C9_12
DOCKED: REMARK   11  A    between atoms: C10_15  and  O3_16
DOCKED: REMARK   12  A    between atoms: C10_15  and  C11_17
DOCKED: REMARK   13  A    between atoms: C11_17  and  C12_18
DOCKED: REMARK   14  A    between atoms: N4_20  and  C13_21
DOCKED: REMARK   15  A    between atoms: C13_21  and  C14_22
DOCKED: REMARK   16  A    between atoms: C13_21  and  C32_50
DOCKED: REMARK   17  A    between atoms: N5_24  and  C15_25
DOCKED: REMARK   18  A    between atoms: C15_25  and  C16_26
DOCKED: REMARK   19  A    between atoms: C15_25  and  C17_27
DOCKED: REMARK   20  A    between atoms: N6_29  and  C18_30
DOCKED: REMARK   21  A    between atoms: C18_30  and  C19_31
DOCKED: REMARK   22  A    between atoms: C18_30  and  C22_36
DOCKED: REMARK   23  A    between atoms: C19_31  and  C20_32
DOCKED: REMARK   24  A    between atoms: C20_32  and  C21_33
DOCKED: REMARK   25  A    between atoms: C21_33  and  O8_35
DOCKED: REMARK   26  A    between atoms: N7_38  and  C23_39
DOCKED: REMARK   27  A    between atoms: C23_39  and  C24_40
DOCKED: REMARK   28  A    between atoms: C23_39  and  C31_47
DOCKED: REMARK   29  A    between atoms: C24_40  and  C25_41
DOCKED: REMARK   30  A    between atoms: C31_47  and  O11_49
DOCKED: REMARK   31  A    between atoms: C32_50  and  C33_51
DOCKED: REMARK   32  A    between atoms: C32_50  and  C34_52
DOCKED: REMARK                            x       y       z     vdW  Elec       q    Type
DOCKED: REMARK                         _______ _______ _______ _____ _____    ______ ____
DOCKED: USER                              x       y       z     vdW  Elec       q    Type
DOCKED: USER                           _______ _______ _______ _____ _____    ______ ____
DOCKED: ROOT
DOCKED: ATOM      1  C14 UNL     1      11.990  -3.181  -2.298 +0.00 +0.00    +0.234 C  
DOCKED: ATOM      2  O5  UNL     1      12.930  -3.577  -2.983 +0.00 -0.00    -0.274 OA 
DOCKED: ATOM      3  N5  UNL     1      11.337  -1.987  -2.533 +0.00 -0.00    -0.303 N  
DOCKED: ATOM      4  H25 UNL     1      10.419  -1.901  -2.095 +0.00 +0.00    +0.149 HD 
DOCKED: ENDROOT
DOCKED: BRANCH   3   5
DOCKED: ATOM      5  C15 UNL     1      11.502  -1.207  -3.758 +0.00 +0.00    +0.156 C  
DOCKED: ATOM      6  C16 UNL     1      12.950  -0.810  -4.067 +0.00 +0.00    +0.038 C  
DOCKED: BRANCH   5   7
DOCKED: ATOM      7  C17 UNL     1      10.788  -1.936  -4.918 +0.00 +0.00    +0.234 C  
DOCKED: ATOM      8  O6  UNL     1       9.667  -1.604  -5.309 +0.00 -0.00    -0.274 OA 
DOCKED: ATOM      9  N6  UNL     1      11.516  -2.914  -5.558 +0.00 -0.00    -0.302 N  
DOCKED: ATOM     10  H30 UNL     1      12.286  -3.321  -5.031 +0.00 +0.00    +0.150 HD 
DOCKED: BRANCH   9  11
DOCKED: ATOM     11  C18 UNL     1      10.879  -3.850  -6.476 +0.00 +0.00    +0.159 C  
DOCKED: BRANCH  11  12
DOCKED: ATOM     12  C22 UNL     1      10.770  -5.203  -5.767 +0.00 +0.00    +0.234 C  
DOCKED: ATOM     13  O9  UNL     1       9.862  -5.997  -6.018 +0.00 -0.00    -0.274 OA 
DOCKED: ATOM     14  N7  UNL     1      11.723  -5.425  -4.796 +0.00 -0.00    -0.301 N  
DOCKED: ATOM     15  H37 UNL     1      12.537  -4.817  -4.755 +0.00 +0.00    +0.150 HD 
DOCKED: BRANCH  14  16
DOCKED: ATOM     16  C23 UNL     1      11.772  -6.689  -4.047 +0.00 +0.00    +0.186 C  
DOCKED: BRANCH  16  17
DOCKED: ATOM     17  C31 UNL     1      12.954  -6.614  -3.093 +0.00 +0.00    +0.326 C  
DOCKED: ATOM     18  O10 UNL     1      13.159  -7.341  -2.132 +0.00 -0.00    -0.249 OA 
DOCKED: BRANCH  17  19
DOCKED: ATOM     19  O11 UNL     1      13.879  -5.714  -3.462 +0.00 -0.00    -0.479 OA 
DOCKED: ATOM     20  H46 UNL     1      13.808  -5.693  -4.434 +0.00 +0.00    +0.295 HD 
DOCKED: ENDBRANCH  17  19
DOCKED: ENDBRANCH  16  17
DOCKED: BRANCH  16  21
DOCKED: ATOM     21  C24 UNL     1      11.960  -7.890  -4.985 +0.00 +0.00    +0.069 C  
DOCKED: BRANCH  21  22
DOCKED: ATOM     22  C25 UNL     1      13.222  -8.668  -4.706 +0.00 -0.00    -0.045 A  
DOCKED: ATOM     23  C26 UNL     1      13.182  -9.753  -3.819 +0.00 +0.00    +0.004 A  
DOCKED: ATOM     24  C27 UNL     1      14.333 -10.491  -3.548 +0.00 +0.00    +0.000 A  
DOCKED: ATOM     25  C28 UNL     1      15.534 -10.159  -4.177 +0.00 +0.00    +0.000 A  
DOCKED: ATOM     26  C29 UNL     1      15.590  -9.073  -5.044 +0.00 +0.00    +0.000 A  
DOCKED: ATOM     27  C30 UNL     1      14.437  -8.321  -5.301 +0.00 +0.00    +0.004 A  
DOCKED: ENDBRANCH  21  22
DOCKED: ENDBRANCH  16  21
DOCKED: ENDBRANCH  14  16
DOCKED: ENDBRANCH  11  12
DOCKED: BRANCH  11  28
DOCKED: ATOM     28  C19 UNL     1      11.701  -4.026  -7.757 +0.00 +0.00    +0.043 C  
DOCKED: BRANCH  28  29
DOCKED: ATOM     29  C20 UNL     1      13.179  -3.682  -7.564 +0.00 +0.00    +0.123 C  
DOCKED: BRANCH  29  30
DOCKED: ATOM     30  C21 UNL     1      13.800  -4.509  -6.467 +0.00 +0.00    +0.305 C  
DOCKED: ATOM     31  O7  UNL     1      13.838  -5.725  -6.411 +0.00 -0.00    -0.251 OA 
DOCKED: BRANCH  30  32
DOCKED: ATOM     32  O8  UNL     1      14.287  -3.746  -5.471 +0.00 -0.00    -0.481 OA 
DOCKED: ATOM     33  H36 UNL     1      14.165  -4.273  -4.655 +0.00 +0.00    +0.295 HD 
DOCKED: ENDBRANCH  30  32
DOCKED: ENDBRANCH  29  30
DOCKED: ENDBRANCH  28  29
DOCKED: ENDBRANCH  11  28
DOCKED: ENDBRANCH   9  11
DOCKED: ENDBRANCH   5   7
DOCKED: ENDBRANCH   3   5
DOCKED: BRANCH   1  34
DOCKED: ATOM     34  C13 UNL     1      11.389  -4.041  -1.155 +0.00 +0.00    +0.161 C  
DOCKED: BRANCH  34  37
DOCKED: ATOM     35  C12 UNL     1      12.843  -5.309   0.505 +0.00 +0.00    +0.216 C  
DOCKED: ATOM     36  O4  UNL     1      12.272  -4.950   1.518 +0.00 -0.00    -0.276 OA 
DOCKED: ATOM     37  N4  UNL     1      12.410  -5.047  -0.791 +0.00 -0.00    -0.304 N  
DOCKED: ATOM     38  H23 UNL     1      13.114  -5.169  -1.515 +0.00 +0.00    +0.149 HD 
DOCKED: BRANCH  35  39
DOCKED: ATOM     39  C11 UNL     1      14.052  -6.212   0.521 +0.00 +0.00    +0.129 C  
DOCKED: BRANCH  39  40
DOCKED: ATOM     40  C10 UNL     1      15.260  -5.790  -0.341 +0.00 +0.00    +0.143 C  
DOCKED: BRANCH  40  41
DOCKED: ATOM     41  O3  UNL     1      14.999  -4.765  -1.301 +0.00 -0.00    -0.389 OA 
DOCKED: ATOM     42  H20 UNL     1      14.393  -5.148  -1.968 +0.00 +0.00    +0.210 HD 
DOCKED: ENDBRANCH  40  41
DOCKED: BRANCH  40  43
DOCKED: ATOM     43  C5  UNL     1      16.066  -6.941  -1.004 +0.00 +0.00    +0.102 C  
DOCKED: BRANCH  43  44
DOCKED: ATOM     44  N1  UNL     1      16.254  -6.575  -2.415 +0.00 -0.00    -0.309 N  
DOCKED: ATOM     45  C6  UNL     1      17.380  -5.952  -2.886 +0.00 +0.00    +0.231 C  
DOCKED: ATOM     46  O1  UNL     1      18.450  -5.947  -2.275 +0.00 -0.00    -0.274 OA 
DOCKED: ATOM     47  H11 UNL     1      15.435  -6.613  -3.013 +0.00 +0.00    +0.149 HD 
DOCKED: BRANCH  45  48
DOCKED: ATOM     48  C7  UNL     1      17.257  -5.339  -4.297 +0.00 +0.00    +0.146 C  
DOCKED: BRANCH  48  49
DOCKED: ATOM     49  N2  UNL     1      15.914  -5.675  -4.845 +0.00 -0.00    -0.320 NA 
DOCKED: ATOM     50  H13 UNL     1      15.197  -5.228  -4.273 +0.00 +0.00    +0.119 HD 
DOCKED: ATOM     51  H14 UNL     1      15.844  -5.237  -5.766 +0.00 +0.00    +0.119 HD 
DOCKED: ENDBRANCH  48  49
DOCKED: BRANCH  48  52
DOCKED: ATOM     52  C8  UNL     1      17.505  -3.828  -4.340 +0.00 +0.00    +0.123 C  
DOCKED: BRANCH  52  53
DOCKED: ATOM     53  C9  UNL     1      16.770  -3.151  -3.196 +0.00 +0.00    +0.212 C  
DOCKED: ATOM     54  N3  UNL     1      15.410  -3.278  -3.199 +0.00 -0.00    -0.329 N  
DOCKED: ATOM     55  O2  UNL     1      17.328  -2.505  -2.310 +0.00 -0.00    -0.276 OA 
DOCKED: ATOM     56  H17 UNL     1      14.975  -2.940  -2.345 +0.00 +0.00    +0.145 HD 
DOCKED: ATOM     57  H18 UNL     1      15.020  -4.181  -3.488 +0.00 +0.00    +0.145 HD 
DOCKED: ENDBRANCH  52  53
DOCKED: ENDBRANCH  48  52
DOCKED: ENDBRANCH  45  48
DOCKED: ENDBRANCH  43  44
DOCKED: BRANCH  43  58
DOCKED: ATOM     58  C4  UNL     1      15.407  -8.335  -0.955 +0.00 +0.00    +0.028 C  
DOCKED: BRANCH  58  60
DOCKED: ATOM     59  C1  UNL     1      17.869  -8.948  -0.924 +0.00 +0.00    +0.007 C  
DOCKED: ATOM     60  C2  UNL     1      16.435  -9.483  -0.995 +0.00 -0.00    -0.015 C  
DOCKED: ATOM     61  C3  UNL     1      16.194 -10.456   0.160 +0.00 +0.00    +0.007 C  
DOCKED: ENDBRANCH  58  60
DOCKED: ENDBRANCH  43  58
DOCKED: ENDBRANCH  40  43
DOCKED: ENDBRANCH  39  40
DOCKED: ENDBRANCH  35  39
DOCKED: ENDBRANCH  34  37
DOCKED: BRANCH  34  62
DOCKED: ATOM     62  C32 UNL     1      10.768  -3.257   0.026 +0.00 +0.00    +0.012 C  
DOCKED: ATOM     63  C33 UNL     1       9.323  -2.834  -0.292 +0.00 +0.00    +0.009 C  
DOCKED: ATOM     64  C34 UNL     1      11.527  -1.979   0.407 +0.00 +0.00    +0.009 C  
DOCKED: ENDBRANCH  34  62
DOCKED: ENDBRANCH   1  34
DOCKED: TORSDOF 27
DOCKED: TER
DOCKED: ENDMDL
________________________________________________________________________________


    FINAL DOCKED STATE:
    ________________________


Run:   14 / 20
Time taken for this run:   4.058s

DOCKED: MODEL        14
DOCKED: USER    Run = 14
DOCKED: USER
DOCKED: USER    Estimated Free Energy of Binding    =  +8.05 kcal/mol  [=(1)+(2)+(3)-(4)]
DOCKED: USER
DOCKED: USER    (1) Final Intermolecular Energy     =  +0.00 kcal/mol
DOCKED: USER        vdW + Hbond + desolv Energy     =  +0.00 kcal/mol
DOCKED: USER        Electrostatic Energy            =  +0.00 kcal/mol
DOCKED: USER        Moving Ligand-Fixed Receptor    =  +0.00 kcal/mol
DOCKED: USER        Moving Ligand-Moving Receptor   =  +0.00 kcal/mol
DOCKED: USER    (2) Final Total Internal Energy     = -25.73 kcal/mol
DOCKED: USER    (3) Torsional Free Energy           =  +8.05 kcal/mol
DOCKED: USER    (4) Unbound System's Energy         = -25.73 kcal/mol
DOCKED: USER
DOCKED: USER
DOCKED: REMARK  Name = ligands/ligand_32.pdb
DOCKED: REMARK  32 active torsions:
DOCKED: REMARK  status: ('A' for Active; 'I' for Inactive)
DOCKED: REMARK    1  A    between atoms: C1_1  and  C2_2
DOCKED: REMARK    2  A    between atoms: C2_2  and  C3_3
DOCKED: REMARK    3  A    between atoms: C2_2  and  C4_4
DOCKED: REMARK    4  A    between atoms: C4_4  and  C5_5
DOCKED: REMARK    5  A    between atoms: C5_5  and  N1_6
DOCKED: REMARK    6  A    between atoms: C5_5  and  C10_15
DOCKED: REMARK    7  A    between atoms: C6_7  and  C7_9
DOCKED: REMARK    8  A    between atoms: C7_9  and  N2_10
DOCKED: REMARK    9  A    between atoms: C7_9  and  C8_11
DOCKED: REMARK   10  A    between atoms: C8_11  and  C9_12
DOCKED: REMARK   11  A    between atoms: C10_15  and  O3_16
DOCKED: REMARK   12  A    between atoms: C10_15  and  C11_17
DOCKED: REMARK   13  A    between atoms: C11_17  and  C12_18
DOCKED: REMARK   14  A    between atoms: N4_20  and  C13_21
DOCKED: REMARK   15  A    between atoms: C13_21  and  C14_22
DOCKED: REMARK   16  A    between atoms: C13_21  and  C32_50
DOCKED: REMARK   17  A    between atoms: N5_24  and  C15_25
DOCKED: REMARK   18  A    between atoms: C15_25  and  C16_26
DOCKED: REMARK   19  A    between atoms: C15_25  and  C17_27
DOCKED: REMARK   20  A    between atoms: N6_29  and  C18_30
DOCKED: REMARK   21  A    between atoms: C18_30  and  C19_31
DOCKED: REMARK   22  A    between atoms: C18_30  and  C22_36
DOCKED: REMARK   23  A    between atoms: C19_31  and  C20_32
DOCKED: REMARK   24  A    between atoms: C20_32  and  C21_33
DOCKED: REMARK   25  A    between atoms: C21_33  and  O8_35
DOCKED: REMARK   26  A    between atoms: N7_38  and  C23_39
DOCKED: REMARK   27  A    between atoms: C23_39  and  C24_40
DOCKED: REMARK   28  A    between atoms: C23_39  and  C31_47
DOCKED: REMARK   29  A    between atoms: C24_40  and  C25_41
DOCKED: REMARK   30  A    between atoms: C31_47  and  O11_49
DOCKED: REMARK   31  A    between atoms: C32_50  and  C33_51
DOCKED: REMARK   32  A    between atoms: C32_50  and  C34_52
DOCKED: REMARK                            x       y       z     vdW  Elec       q    Type
DOCKED: REMARK                         _______ _______ _______ _____ _____    ______ ____
DOCKED: USER                              x       y       z     vdW  Elec       q    Type
DOCKED: USER                           _______ _______ _______ _____ _____    ______ ____
DOCKED: ROOT
DOCKED: ATOM      1  C14 UNL     1       7.729  -6.508   1.302 +0.00 +0.00    +0.234 C  
DOCKED: ATOM      2  O5  UNL     1       7.695  -5.394   0.784 +0.00 -0.00    -0.274 OA 
DOCKED: ATOM      3  N5  UNL     1       6.663  -7.387   1.270 +0.00 -0.00    -0.303 N  
DOCKED: ATOM      4  H25 UNL     1       6.897  -8.359   1.475 +0.00 +0.00    +0.149 HD 
DOCKED: ENDROOT
DOCKED: BRANCH   3   5
DOCKED: ATOM      5  C15 UNL     1       5.499  -7.209   0.405 +0.00 +0.00    +0.156 C  
DOCKED: ATOM      6  C16 UNL     1       4.773  -5.870   0.584 +0.00 +0.00    +0.038 C  
DOCKED: BRANCH   5   7
DOCKED: ATOM      7  C17 UNL     1       5.906  -7.514  -1.054 +0.00 +0.00    +0.234 C  
DOCKED: ATOM      8  O6  UNL     1       5.659  -8.597  -1.589 +0.00 -0.00    -0.274 OA 
DOCKED: ATOM      9  N6  UNL     1       6.471  -6.473  -1.755 +0.00 -0.00    -0.302 N  
DOCKED: ATOM     10  H30 UNL     1       6.893  -5.732  -1.200 +0.00 +0.00    +0.150 HD 
DOCKED: BRANCH   9  11
DOCKED: ATOM     11  C18 UNL     1       7.138  -6.698  -3.032 +0.00 +0.00    +0.159 C  
DOCKED: BRANCH  11  12
DOCKED: ATOM     12  C22 UNL     1       8.647  -6.580  -2.801 +0.00 +0.00    +0.234 C  
DOCKED: ATOM     13  O9  UNL     1       9.460  -7.196  -3.492 +0.00 -0.00    -0.274 OA 
DOCKED: ATOM     14  N7  UNL     1       9.008  -5.789  -1.731 +0.00 -0.00    -0.301 N  
DOCKED: ATOM     15  H37 UNL     1       8.312  -5.177  -1.312 +0.00 +0.00    +0.150 HD 
DOCKED: BRANCH  14  16
DOCKED: ATOM     16  C23 UNL     1      10.420  -5.551  -1.398 +0.00 +0.00    +0.186 C  
DOCKED: BRANCH  16  17
DOCKED: ATOM     17  C31 UNL     1      10.459  -4.636  -0.184 +0.00 +0.00    +0.326 C  
DOCKED: ATOM     18  O10 UNL     1      11.408  -4.466   0.567 +0.00 -0.00    -0.249 OA 
DOCKED: BRANCH  17  19
DOCKED: ATOM     19  O11 UNL     1       9.352  -3.889  -0.045 +0.00 -0.00    -0.479 OA 
DOCKED: ATOM     20  H46 UNL     1       8.951  -3.901  -0.933 +0.00 +0.00    +0.295 HD 
DOCKED: ENDBRANCH  17  19
DOCKED: ENDBRANCH  16  17
DOCKED: BRANCH  16  21
DOCKED: ATOM     21  C24 UNL     1      11.165  -4.878  -2.558 +0.00 +0.00    +0.069 C  
DOCKED: BRANCH  21  22
DOCKED: ATOM     22  C25 UNL     1      11.773  -3.549  -2.181 +0.00 -0.00    -0.045 A  
DOCKED: ATOM     23  C26 UNL     1      11.026  -2.375  -2.353 +0.00 +0.00    +0.004 A  
DOCKED: ATOM     24  C27 UNL     1      11.563  -1.137  -2.008 +0.00 +0.00    +0.000 A  
DOCKED: ATOM     25  C28 UNL     1      12.849  -1.062  -1.471 +0.00 +0.00    +0.000 A  
DOCKED: ATOM     26  C29 UNL     1      13.606  -2.219  -1.313 +0.00 +0.00    +0.000 A  
DOCKED: ATOM     27  C30 UNL     1      13.073  -3.461  -1.677 +0.00 +0.00    +0.004 A  
DOCKED: ENDBRANCH  21  22
DOCKED: ENDBRANCH  16  21
DOCKED: ENDBRANCH  14  16
DOCKED: ENDBRANCH  11  12
DOCKED: BRANCH  11  28
DOCKED: ATOM     28  C19 UNL     1       6.714  -5.659  -4.076 +0.00 +0.00    +0.043 C  
DOCKED: BRANCH  28  29
DOCKED: ATOM     29  C20 UNL     1       6.196  -4.364  -3.447 +0.00 +0.00    +0.123 C  
DOCKED: BRANCH  29  30
DOCKED: ATOM     30  C21 UNL     1       7.204  -3.771  -2.494 +0.00 +0.00    +0.305 C  
DOCKED: ATOM     31  O7  UNL     1       8.342  -3.432  -2.764 +0.00 -0.00    -0.251 OA 
DOCKED: BRANCH  30  32
DOCKED: ATOM     32  O8  UNL     1       6.731  -3.698  -1.237 +0.00 -0.00    -0.481 OA 
DOCKED: ATOM     33  H36 UNL     1       7.518  -3.745  -0.658 +0.00 +0.00    +0.295 HD 
DOCKED: ENDBRANCH  30  32
DOCKED: ENDBRANCH  29  30
DOCKED: ENDBRANCH  28  29
DOCKED: ENDBRANCH  11  28
DOCKED: ENDBRANCH   9  11
DOCKED: ENDBRANCH   5   7
DOCKED: ENDBRANCH   3   5
DOCKED: BRANCH   1  34
DOCKED: ATOM     34  C13 UNL     1       9.017  -7.066   1.961 +0.00 +0.00    +0.161 C  
DOCKED: BRANCH  34  37
DOCKED: ATOM     35  C12 UNL     1      10.546  -5.689   3.458 +0.00 +0.00    +0.216 C  
DOCKED: ATOM     36  O4  UNL     1      10.709  -6.525   4.327 +0.00 -0.00    -0.276 OA 
DOCKED: ATOM     37  N4  UNL     1       9.888  -5.907   2.252 +0.00 -0.00    -0.304 N  
DOCKED: ATOM     38  H23 UNL     1       9.598  -5.067   1.758 +0.00 +0.00    +0.149 HD 
DOCKED: BRANCH  35  39
DOCKED: ATOM     39  C11 UNL     1      11.158  -4.310   3.522 +0.00 +0.00    +0.129 C  
DOCKED: BRANCH  39  40
DOCKED: ATOM     40  C10 UNL     1      10.249  -3.117   3.158 +0.00 +0.00    +0.143 C  
DOCKED: BRANCH  40  41
DOCKED: ATOM     41  O3  UNL     1       9.009  -3.458   2.538 +0.00 -0.00    -0.389 OA 
DOCKED: ATOM     42  H20 UNL     1       9.222  -3.793   1.643 +0.00 +0.00    +0.210 HD 
DOCKED: ENDBRANCH  40  41
DOCKED: BRANCH  40  43
DOCKED: ATOM     43  C5  UNL     1      10.924  -1.951   2.383 +0.00 +0.00    +0.102 C  
DOCKED: BRANCH  43  44
DOCKED: ATOM     44  N1  UNL     1      10.072  -1.660   1.222 +0.00 -0.00    -0.309 N  
DOCKED: ATOM     45  C6  UNL     1       9.214  -0.593   1.169 +0.00 +0.00    +0.231 C  
DOCKED: ATOM     46  O1  UNL     1       9.314   0.387   1.909 +0.00 -0.00    -0.274 OA 
DOCKED: ATOM     47  H11 UNL     1       9.981  -2.390   0.522 +0.00 +0.00    +0.149 HD 
DOCKED: BRANCH  45  48
DOCKED: ATOM     48  C7  UNL     1       8.163  -0.643   0.040 +0.00 +0.00    +0.146 C  
DOCKED: BRANCH  48  49
DOCKED: ATOM     49  N2  UNL     1       8.491  -1.780  -0.863 +0.00 -0.00    -0.320 NA 
DOCKED: ATOM     50  H13 UNL     1       8.389  -2.656  -0.350 +0.00 +0.00    +0.119 HD 
DOCKED: ATOM     51  H14 UNL     1       7.775  -1.804  -1.593 +0.00 +0.00    +0.119 HD 
DOCKED: ENDBRANCH  48  49
DOCKED: BRANCH  48  52
DOCKED: ATOM     52  C8  UNL     1       6.719  -0.739   0.541 +0.00 +0.00    +0.123 C  
DOCKED: BRANCH  52  53
DOCKED: ATOM     53  C9  UNL     1       6.620  -1.790   1.633 +0.00 +0.00    +0.212 C  
DOCKED: ATOM     54  N3  UNL     1       6.923  -3.070   1.262 +0.00 -0.00    -0.329 N  
DOCKED: ATOM     55  O2  UNL     1       6.277  -1.548   2.789 +0.00 -0.00    -0.276 OA 
DOCKED: ATOM     56  H17 UNL     1       6.988  -3.709   2.049 +0.00 +0.00    +0.145 HD 
DOCKED: ATOM     57  H18 UNL     1       7.700  -3.200   0.606 +0.00 +0.00    +0.145 HD 
DOCKED: ENDBRANCH  52  53
DOCKED: ENDBRANCH  48  52
DOCKED: ENDBRANCH  45  48
DOCKED: ENDBRANCH  43  44
DOCKED: BRANCH  43  58
DOCKED: ATOM     58  C4  UNL     1      12.354  -2.227   1.870 +0.00 +0.00    +0.028 C  
DOCKED: BRANCH  58  60
DOCKED: ATOM     59  C1  UNL     1      12.700   0.068   2.896 +0.00 +0.00    +0.007 C  
DOCKED: ATOM     60  C2  UNL     1      13.258  -0.980   1.928 +0.00 -0.00    -0.015 C  
DOCKED: ATOM     61  C3  UNL     1      14.675  -1.367   2.353 +0.00 +0.00    +0.007 C  
DOCKED: ENDBRANCH  58  60
DOCKED: ENDBRANCH  43  58
DOCKED: ENDBRANCH  40  43
DOCKED: ENDBRANCH  39  40
DOCKED: ENDBRANCH  35  39
DOCKED: ENDBRANCH  34  37
DOCKED: BRANCH  34  62
DOCKED: ATOM     62  C32 UNL     1       8.803  -8.056   3.132 +0.00 +0.00    +0.012 C  
DOCKED: ATOM     63  C33 UNL     1       8.548  -9.480   2.610 +0.00 +0.00    +0.009 C  
DOCKED: ATOM     64  C34 UNL     1       7.625  -7.705   4.050 +0.00 +0.00    +0.009 C  
DOCKED: ENDBRANCH  34  62
DOCKED: ENDBRANCH   1  34
DOCKED: TORSDOF 27
DOCKED: TER
DOCKED: ENDMDL
________________________________________________________________________________


    FINAL DOCKED STATE:
    ________________________


Run:   15 / 20
Time taken for this run:   4.058s

DOCKED: MODEL        15
DOCKED: USER    Run = 15
DOCKED: USER
DOCKED: USER    Estimated Free Energy of Binding    =  +8.05 kcal/mol  [=(1)+(2)+(3)-(4)]
DOCKED: USER
DOCKED: USER    (1) Final Intermolecular Energy     =  +0.00 kcal/mol
DOCKED: USER        vdW + Hbond + desolv Energy     =  +0.00 kcal/mol
DOCKED: USER        Electrostatic Energy            =  +0.00 kcal/mol
DOCKED: USER        Moving Ligand-Fixed Receptor    =  +0.00 kcal/mol
DOCKED: USER        Moving Ligand-Moving Receptor   =  +0.00 kcal/mol
DOCKED: USER    (2) Final Total Internal Energy     = -25.73 kcal/mol
DOCKED: USER    (3) Torsional Free Energy           =  +8.05 kcal/mol
DOCKED: USER    (4) Unbound System's Energy         = -25.73 kcal/mol
DOCKED: USER
DOCKED: USER
DOCKED: REMARK  Name = ligands/ligand_32.pdb
DOCKED: REMARK  32 active torsions:
DOCKED: REMARK  status: ('A' for Active; 'I' for Inactive)
DOCKED: REMARK    1  A    between atoms: C1_1  and  C2_2
DOCKED: REMARK    2  A    between atoms: C2_2  and  C3_3
DOCKED: REMARK    3  A    between atoms: C2_2  and  C4_4
DOCKED: REMARK    4  A    between atoms: C4_4  and  C5_5
DOCKED: REMARK    5  A    between atoms: C5_5  and  N1_6
DOCKED: REMARK    6  A    between atoms: C5_5  and  C10_15
DOCKED: REMARK    7  A    between atoms: C6_7  and  C7_9
DOCKED: REMARK    8  A    between atoms: C7_9  and  N2_10
DOCKED: REMARK    9  A    between atoms: C7_9  and  C8_11
DOCKED: REMARK   10  A    between atoms: C8_11  and  C9_12
DOCKED: REMARK   11  A    between atoms: C10_15  and  O3_16
DOCKED: REMARK   12  A    between atoms: C10_15  and  C11_17
DOCKED: REMARK   13  A    between atoms: C11_17  and  C12_18
DOCKED: REMARK   14  A    between atoms: N4_20  and  C13_21
DOCKED: REMARK   15  A    between atoms: C13_21  and  C14_22
DOCKED: REMARK   16  A    between atoms: C13_21  and  C32_50
DOCKED: REMARK   17  A    between atoms: N5_24  and  C15_25
DOCKED: REMARK   18  A    between atoms: C15_25  and  C16_26
DOCKED: REMARK   19  A    between atoms: C15_25  and  C17_27
DOCKED: REMARK   20  A    between atoms: N6_29  and  C18_30
DOCKED: REMARK   21  A    between atoms: C18_30  and  C19_31
DOCKED: REMARK   22  A    between atoms: C18_30  and  C22_36
DOCKED: REMARK   23  A    between atoms: C19_31  and  C20_32
DOCKED: REMARK   24  A    between atoms: C20_32  and  C21_33
DOCKED: REMARK   25  A    between atoms: C21_33  and  O8_35
DOCKED: REMARK   26  A    between atoms: N7_38  and  C23_39
DOCKED: REMARK   27  A    between atoms: C23_39  and  C24_40
DOCKED: REMARK   28  A    between atoms: C23_39  and  C31_47
DOCKED: REMARK   29  A    between atoms: C24_40  and  C25_41
DOCKED: REMARK   30  A    between atoms: C31_47  and  O11_49
DOCKED: REMARK   31  A    between atoms: C32_50  and  C33_51
DOCKED: REMARK   32  A    between atoms: C32_50  and  C34_52
DOCKED: REMARK                            x       y       z     vdW  Elec       q    Type
DOCKED: REMARK                         _______ _______ _______ _____ _____    ______ ____
DOCKED: USER                              x       y       z     vdW  Elec       q    Type
DOCKED: USER                           _______ _______ _______ _____ _____    ______ ____
DOCKED: ROOT
DOCKED: ATOM      1  C14 UNL     1      10.992  -4.751   2.176 +0.00 +0.00    +0.234 C  
DOCKED: ATOM      2  O5  UNL     1      10.492  -3.917   1.424 +0.00 -0.00    -0.274 OA 
DOCKED: ATOM      3  N5  UNL     1      10.298  -5.338   3.217 +0.00 -0.00    -0.303 N  
DOCKED: ATOM      4  H25 UNL     1      10.711  -6.198   3.582 +0.00 +0.00    +0.149 HD 
DOCKED: ENDROOT
DOCKED: BRANCH   3   5
DOCKED: ATOM      5  C15 UNL     1       8.848  -5.245   3.371 +0.00 +0.00    +0.156 C  
DOCKED: ATOM      6  C16 UNL     1       8.305  -3.812   3.416 +0.00 +0.00    +0.038 C  
DOCKED: BRANCH   5   7
DOCKED: ATOM      7  C17 UNL     1       8.171  -6.142   2.310 +0.00 +0.00    +0.234 C  
DOCKED: ATOM      8  O6  UNL     1       7.730  -7.261   2.584 +0.00 -0.00    -0.274 OA 
DOCKED: ATOM      9  N6  UNL     1       7.999  -5.582   1.065 +0.00 -0.00    -0.302 N  
DOCKED: ATOM     10  H30 UNL     1       8.613  -4.805   0.831 +0.00 +0.00    +0.150 HD 
DOCKED: BRANCH   9  11
DOCKED: ATOM     11  C18 UNL     1       7.627  -6.398  -0.084 +0.00 +0.00    +0.159 C  
DOCKED: BRANCH  11  12
DOCKED: ATOM     12  C22 UNL     1       8.856  -6.522  -0.990 +0.00 +0.00    +0.234 C  
DOCKED: ATOM     13  O9  UNL     1       9.029  -7.499  -1.720 +0.00 -0.00    -0.274 OA 
DOCKED: ATOM     14  N7  UNL     1       9.766  -5.492  -0.873 +0.00 -0.00    -0.301 N  
DOCKED: ATOM     15  H37 UNL     1       9.489  -4.641  -0.391 +0.00 +0.00    +0.150 HD 
DOCKED: BRANCH  14  16
DOCKED: ATOM     16  C23 UNL     1      10.981  -5.450  -1.698 +0.00 +0.00    +0.186 C  
DOCKED: BRANCH  16  17
DOCKED: ATOM     17  C31 UNL     1      11.748  -4.191  -1.323 +0.00 +0.00    +0.326 C  
DOCKED: ATOM     18  O10 UNL     1      12.932  -3.972  -1.535 +0.00 -0.00    -0.249 OA 
DOCKED: BRANCH  17  19
DOCKED: ATOM     19  O11 UNL     1      10.968  -3.224  -0.815 +0.00 -0.00    -0.479 OA 
DOCKED: ATOM     20  H46 UNL     1      10.066  -3.499  -1.064 +0.00 +0.00    +0.295 HD 
DOCKED: ENDBRANCH  17  19
DOCKED: ENDBRANCH  16  17
DOCKED: BRANCH  16  21
DOCKED: ATOM     21  C24 UNL     1      10.644  -5.405  -3.195 +0.00 +0.00    +0.069 C  
DOCKED: BRANCH  21  22
DOCKED: ATOM     22  C25 UNL     1      11.217  -4.198  -3.896 +0.00 -0.00    -0.045 A  
DOCKED: ATOM     23  C26 UNL     1      10.446  -3.032  -4.005 +0.00 +0.00    +0.004 A  
DOCKED: ATOM     24  C27 UNL     1      10.954  -1.903  -4.644 +0.00 +0.00    +0.000 A  
DOCKED: ATOM     25  C28 UNL     1      12.248  -1.924  -5.166 +0.00 +0.00    +0.000 A  
DOCKED: ATOM     26  C29 UNL     1      13.015  -3.081  -5.079 +0.00 +0.00    +0.000 A  
DOCKED: ATOM     27  C30 UNL     1      12.497  -4.221  -4.454 +0.00 +0.00    +0.004 A  
DOCKED: ENDBRANCH  21  22
DOCKED: ENDBRANCH  16  21
DOCKED: ENDBRANCH  14  16
DOCKED: ENDBRANCH  11  12
DOCKED: BRANCH  11  28
DOCKED: ATOM     28  C19 UNL     1       6.485  -5.757  -0.881 +0.00 +0.00    +0.043 C  
DOCKED: BRANCH  28  29
DOCKED: ATOM     29  C20 UNL     1       6.402  -4.242  -0.681 +0.00 +0.00    +0.123 C  
DOCKED: BRANCH  29  30
DOCKED: ATOM     30  C21 UNL     1       7.718  -3.571  -0.985 +0.00 +0.00    +0.305 C  
DOCKED: ATOM     31  O7  UNL     1       8.320  -3.605  -2.043 +0.00 -0.00    -0.251 OA 
DOCKED: BRANCH  30  32
DOCKED: ATOM     32  O8  UNL     1       8.227  -2.944   0.091 +0.00 -0.00    -0.481 OA 
DOCKED: ATOM     33  H36 UNL     1       9.195  -2.928  -0.049 +0.00 +0.00    +0.295 HD 
DOCKED: ENDBRANCH  30  32
DOCKED: ENDBRANCH  29  30
DOCKED: ENDBRANCH  28  29
DOCKED: ENDBRANCH  11  28
DOCKED: ENDBRANCH   9  11
DOCKED: ENDBRANCH   5   7
DOCKED: ENDBRANCH   3   5
DOCKED: BRANCH   1  34
DOCKED: ATOM     34  C13 UNL     1      12.430  -5.290   1.963 +0.00 +0.00    +0.161 C  
DOCKED: BRANCH  34  37
DOCKED: ATOM     35  C12 UNL     1      14.389  -3.757   1.423 +0.00 +0.00    +0.216 C  
DOCKED: ATOM     36  O4  UNL     1      15.168  -4.204   2.244 +0.00 -0.00    -0.276 OA 
DOCKED: ATOM     37  N4  UNL     1      13.141  -4.298   1.127 +0.00 -0.00    -0.304 N  
DOCKED: ATOM     38  H23 UNL     1      12.506  -3.677   0.632 +0.00 +0.00    +0.149 HD 
DOCKED: BRANCH  35  39
DOCKED: ATOM     39  C11 UNL     1      14.732  -2.607   0.507 +0.00 +0.00    +0.129 C  
DOCKED: BRANCH  39  40
DOCKED: ATOM     40  C10 UNL     1      13.678  -1.491   0.351 +0.00 +0.00    +0.143 C  
DOCKED: BRANCH  40  41
DOCKED: ATOM     41  O3  UNL     1      12.389  -1.784   0.892 +0.00 -0.00    -0.389 OA 
DOCKED: ATOM     42  H20 UNL     1      11.997  -2.482   0.328 +0.00 +0.00    +0.210 HD 
DOCKED: ENDBRANCH  40  41
DOCKED: BRANCH  40  43
DOCKED: ATOM     43  C5  UNL     1      13.527  -0.883  -1.071 +0.00 +0.00    +0.102 C  
DOCKED: BRANCH  43  44
DOCKED: ATOM     44  N1  UNL     1      12.091  -0.868  -1.381 +0.00 -0.00    -0.309 N  
DOCKED: ATOM     45  C6  UNL     1      11.310   0.252  -1.266 +0.00 +0.00    +0.231 C  
DOCKED: ATOM     46  O1  UNL     1      11.773   1.394  -1.231 +0.00 -0.00    -0.274 OA 
DOCKED: ATOM     47  H11 UNL     1      11.634  -1.768  -1.492 +0.00 +0.00    +0.149 HD 
DOCKED: BRANCH  45  48
DOCKED: ATOM     48  C7  UNL     1       9.787   0.004  -1.292 +0.00 +0.00    +0.146 C  
DOCKED: BRANCH  48  49
DOCKED: ATOM     49  N2  UNL     1       9.546  -1.430  -1.611 +0.00 -0.00    -0.320 NA 
DOCKED: ATOM     50  H13 UNL     1       9.906  -2.008  -0.851 +0.00 +0.00    +0.119 HD 
DOCKED: ATOM     51  H14 UNL     1       8.533  -1.575  -1.610 +0.00 +0.00    +0.119 HD 
DOCKED: ENDBRANCH  48  49
DOCKED: BRANCH  48  52
DOCKED: ATOM     52  C8  UNL     1       9.071   0.406   0.001 +0.00 +0.00    +0.123 C  
DOCKED: BRANCH  52  53
DOCKED: ATOM     53  C9  UNL     1       9.849  -0.103   1.202 +0.00 +0.00    +0.212 C  
DOCKED: ATOM     54  N3  UNL     1       9.984  -1.459   1.298 +0.00 -0.00    -0.329 N  
DOCKED: ATOM     55  O2  UNL     1      10.332   0.628   2.066 +0.00 -0.00    -0.276 OA 
DOCKED: ATOM     56  H17 UNL     1      10.631  -1.746   2.027 +0.00 +0.00    +0.145 HD 
DOCKED: ATOM     57  H18 UNL     1      10.140  -1.981   0.430 +0.00 +0.00    +0.145 HD 
DOCKED: ENDBRANCH  52  53
DOCKED: ENDBRANCH  48  52
DOCKED: ENDBRANCH  45  48
DOCKED: ENDBRANCH  43  44
DOCKED: BRANCH  43  58
DOCKED: ATOM     58  C4  UNL     1      14.253  -1.640  -2.204 +0.00 +0.00    +0.028 C  
DOCKED: BRANCH  58  60
DOCKED: ATOM     59  C1  UNL     1      14.134   0.579  -3.428 +0.00 +0.00    +0.007 C  
DOCKED: ATOM     60  C2  UNL     1      14.953  -0.695  -3.199 +0.00 -0.00    -0.015 C  
DOCKED: ATOM     61  C3  UNL     1      16.347  -0.323  -2.692 +0.00 +0.00    +0.007 C  
DOCKED: ENDBRANCH  58  60
DOCKED: ENDBRANCH  43  58
DOCKED: ENDBRANCH  40  43
DOCKED: ENDBRANCH  39  40
DOCKED: ENDBRANCH  35  39
DOCKED: ENDBRANCH  34  37
DOCKED: BRANCH  34  62
DOCKED: ATOM     62  C32 UNL     1      13.176  -5.751   3.238 +0.00 +0.00    +0.012 C  
DOCKED: ATOM     63  C33 UNL     1      12.780  -7.188   3.620 +0.00 +0.00    +0.009 C  
DOCKED: ATOM     64  C34 UNL     1      12.916  -4.880   4.474 +0.00 +0.00    +0.009 C  
DOCKED: ENDBRANCH  34  62
DOCKED: ENDBRANCH   1  34
DOCKED: TORSDOF 27
DOCKED: TER
DOCKED: ENDMDL
________________________________________________________________________________


    FINAL DOCKED STATE:
    ________________________


Run:   16 / 20
Time taken for this run:   4.058s

DOCKED: MODEL        16
DOCKED: USER    Run = 16
DOCKED: USER
DOCKED: USER    Estimated Free Energy of Binding    =  +8.05 kcal/mol  [=(1)+(2)+(3)-(4)]
DOCKED: USER
DOCKED: USER    (1) Final Intermolecular Energy     =  +0.00 kcal/mol
DOCKED: USER        vdW + Hbond + desolv Energy     =  +0.00 kcal/mol
DOCKED: USER        Electrostatic Energy            =  +0.00 kcal/mol
DOCKED: USER        Moving Ligand-Fixed Receptor    =  +0.00 kcal/mol
DOCKED: USER        Moving Ligand-Moving Receptor   =  +0.00 kcal/mol
DOCKED: USER    (2) Final Total Internal Energy     = -25.76 kcal/mol
DOCKED: USER    (3) Torsional Free Energy           =  +8.05 kcal/mol
DOCKED: USER    (4) Unbound System's Energy         = -25.76 kcal/mol
DOCKED: USER
DOCKED: USER
DOCKED: REMARK  Name = ligands/ligand_32.pdb
DOCKED: REMARK  32 active torsions:
DOCKED: REMARK  status: ('A' for Active; 'I' for Inactive)
DOCKED: REMARK    1  A    between atoms: C1_1  and  C2_2
DOCKED: REMARK    2  A    between atoms: C2_2  and  C3_3
DOCKED: REMARK    3  A    between atoms: C2_2  and  C4_4
DOCKED: REMARK    4  A    between atoms: C4_4  and  C5_5
DOCKED: REMARK    5  A    between atoms: C5_5  and  N1_6
DOCKED: REMARK    6  A    between atoms: C5_5  and  C10_15
DOCKED: REMARK    7  A    between atoms: C6_7  and  C7_9
DOCKED: REMARK    8  A    between atoms: C7_9  and  N2_10
DOCKED: REMARK    9  A    between atoms: C7_9  and  C8_11
DOCKED: REMARK   10  A    between atoms: C8_11  and  C9_12
DOCKED: REMARK   11  A    between atoms: C10_15  and  O3_16
DOCKED: REMARK   12  A    between atoms: C10_15  and  C11_17
DOCKED: REMARK   13  A    between atoms: C11_17  and  C12_18
DOCKED: REMARK   14  A    between atoms: N4_20  and  C13_21
DOCKED: REMARK   15  A    between atoms: C13_21  and  C14_22
DOCKED: REMARK   16  A    between atoms: C13_21  and  C32_50
DOCKED: REMARK   17  A    between atoms: N5_24  and  C15_25
DOCKED: REMARK   18  A    between atoms: C15_25  and  C16_26
DOCKED: REMARK   19  A    between atoms: C15_25  and  C17_27
DOCKED: REMARK   20  A    between atoms: N6_29  and  C18_30
DOCKED: REMARK   21  A    between atoms: C18_30  and  C19_31
DOCKED: REMARK   22  A    between atoms: C18_30  and  C22_36
DOCKED: REMARK   23  A    between atoms: C19_31  and  C20_32
DOCKED: REMARK   24  A    between atoms: C20_32  and  C21_33
DOCKED: REMARK   25  A    between atoms: C21_33  and  O8_35
DOCKED: REMARK   26  A    between atoms: N7_38  and  C23_39
DOCKED: REMARK   27  A    between atoms: C23_39  and  C24_40
DOCKED: REMARK   28  A    between atoms: C23_39  and  C31_47
DOCKED: REMARK   29  A    between atoms: C24_40  and  C25_41
DOCKED: REMARK   30  A    between atoms: C31_47  and  O11_49
DOCKED: REMARK   31  A    between atoms: C32_50  and  C33_51
DOCKED: REMARK   32  A    between atoms: C32_50  and  C34_52
DOCKED: REMARK                            x       y       z     vdW  Elec       q    Type
DOCKED: REMARK                         _______ _______ _______ _____ _____    ______ ____
DOCKED: USER                              x       y       z     vdW  Elec       q    Type
DOCKED: USER                           _______ _______ _______ _____ _____    ______ ____
DOCKED: ROOT
DOCKED: ATOM      1  C14 UNL     1      17.386  -8.725  -4.493 +0.00 +0.00    +0.234 C  
DOCKED: ATOM      2  O5  UNL     1      16.341  -9.312  -4.220 +0.00 -0.00    -0.274 OA 
DOCKED: ATOM      3  N5  UNL     1      17.790  -8.468  -5.788 +0.00 -0.00    -0.303 N  
DOCKED: ATOM      4  H25 UNL     1      18.506  -7.747  -5.884 +0.00 +0.00    +0.149 HD 
DOCKED: ENDROOT
DOCKED: BRANCH   3   5
DOCKED: ATOM      5  C15 UNL     1      16.914  -8.614  -6.948 +0.00 +0.00    +0.156 C  
DOCKED: ATOM      6  C16 UNL     1      16.308 -10.013  -7.115 +0.00 +0.00    +0.038 C  
DOCKED: BRANCH   5   7
DOCKED: ATOM      7  C17 UNL     1      15.870  -7.474  -6.937 +0.00 +0.00    +0.234 C  
DOCKED: ATOM      8  O6  UNL     1      16.013  -6.450  -7.608 +0.00 -0.00    -0.274 OA 
DOCKED: ATOM      9  N6  UNL     1      14.724  -7.710  -6.211 +0.00 -0.00    -0.302 N  
DOCKED: ATOM     10  H30 UNL     1      14.790  -8.416  -5.481 +0.00 +0.00    +0.150 HD 
DOCKED: BRANCH   9  11
DOCKED: ATOM     11  C18 UNL     1      13.794  -6.631  -5.899 +0.00 +0.00    +0.159 C  
DOCKED: BRANCH  11  12
DOCKED: ATOM     12  C22 UNL     1      14.012  -6.233  -4.436 +0.00 +0.00    +0.234 C  
DOCKED: ATOM     13  O9  UNL     1      13.805  -5.086  -4.037 +0.00 -0.00    -0.274 OA 
DOCKED: ATOM     14  N7  UNL     1      14.510  -7.237  -3.632 +0.00 -0.00    -0.301 N  
DOCKED: ATOM     15  H37 UNL     1      14.496  -8.195  -3.972 +0.00 +0.00    +0.150 HD 
DOCKED: BRANCH  14  16
DOCKED: ATOM     16  C23 UNL     1      14.744  -7.021  -2.197 +0.00 +0.00    +0.186 C  
DOCKED: BRANCH  16  17
DOCKED: ATOM     17  C31 UNL     1      15.247  -8.331  -1.610 +0.00 +0.00    +0.326 C  
DOCKED: ATOM     18  O10 UNL     1      15.799  -8.478  -0.530 +0.00 -0.00    -0.249 OA 
DOCKED: BRANCH  17  19
DOCKED: ATOM     19  O11 UNL     1      14.922  -9.404  -2.349 +0.00 -0.00    -0.479 OA 
DOCKED: ATOM     20  H46 UNL     1      14.114  -9.127  -2.818 +0.00 +0.00    +0.295 HD 
DOCKED: ENDBRANCH  17  19
DOCKED: ENDBRANCH  16  17
DOCKED: BRANCH  16  21
DOCKED: ATOM     21  C24 UNL     1      13.454  -6.609  -1.473 +0.00 +0.00    +0.069 C  
DOCKED: BRANCH  21  22
DOCKED: ATOM     22  C25 UNL     1      13.074  -7.551  -0.357 +0.00 -0.00    -0.045 A  
DOCKED: ATOM     23  C26 UNL     1      12.216  -8.627  -0.623 +0.00 +0.00    +0.004 A  
DOCKED: ATOM     24  C27 UNL     1      11.854  -9.513   0.389 +0.00 +0.00    +0.000 A  
DOCKED: ATOM     25  C28 UNL     1      12.361  -9.339   1.678 +0.00 +0.00    +0.000 A  
DOCKED: ATOM     26  C29 UNL     1      13.198  -8.264   1.958 +0.00 +0.00    +0.000 A  
DOCKED: ATOM     27  C30 UNL     1      13.547  -7.363   0.944 +0.00 +0.00    +0.004 A  
DOCKED: ENDBRANCH  21  22
DOCKED: ENDBRANCH  16  21
DOCKED: ENDBRANCH  14  16
DOCKED: ENDBRANCH  11  12
DOCKED: BRANCH  11  28
DOCKED: ATOM     28  C19 UNL     1      12.339  -7.076  -6.081 +0.00 +0.00    +0.043 C  
DOCKED: BRANCH  28  29
DOCKED: ATOM     29  C20 UNL     1      12.165  -8.592  -5.968 +0.00 +0.00    +0.123 C  
DOCKED: BRANCH  29  30
DOCKED: ATOM     30  C21 UNL     1      12.700  -9.115  -4.659 +0.00 +0.00    +0.305 C  
DOCKED: ATOM     31  O7  UNL     1      12.353  -8.765  -3.545 +0.00 -0.00    -0.251 OA 
DOCKED: BRANCH  30  32
DOCKED: ATOM     32  O8  UNL     1      13.689 -10.009  -4.836 +0.00 -0.00    -0.481 OA 
DOCKED: ATOM     33  H36 UNL     1      14.250  -9.939  -4.038 +0.00 +0.00    +0.295 HD 
DOCKED: ENDBRANCH  30  32
DOCKED: ENDBRANCH  29  30
DOCKED: ENDBRANCH  28  29
DOCKED: ENDBRANCH  11  28
DOCKED: ENDBRANCH   9  11
DOCKED: ENDBRANCH   5   7
DOCKED: ENDBRANCH   3   5
DOCKED: BRANCH   1  34
DOCKED: ATOM     34  C13 UNL     1      18.305  -8.135  -3.392 +0.00 +0.00    +0.161 C  
DOCKED: BRANCH  34  37
DOCKED: ATOM     35  C12 UNL     1      18.887  -9.357  -1.236 +0.00 +0.00    +0.216 C  
DOCKED: ATOM     36  O4  UNL     1      20.077  -9.106  -1.230 +0.00 -0.00    -0.276 OA 
DOCKED: ATOM     37  N4  UNL     1      17.962  -8.825  -2.129 +0.00 -0.00    -0.304 N  
DOCKED: ATOM     38  H23 UNL     1      17.077  -9.324  -2.185 +0.00 +0.00    +0.149 HD 
DOCKED: BRANCH  35  39
DOCKED: ATOM     39  C11 UNL     1      18.220 -10.198  -0.174 +0.00 +0.00    +0.129 C  
DOCKED: BRANCH  39  40
DOCKED: ATOM     40  C10 UNL     1      17.215 -11.267  -0.648 +0.00 +0.00    +0.143 C  
DOCKED: BRANCH  40  41
DOCKED: ATOM     41  O3  UNL     1      16.798 -11.155  -2.010 +0.00 -0.00    -0.389 OA 
DOCKED: ATOM     42  H20 UNL     1      16.233 -10.357  -2.069 +0.00 +0.00    +0.210 HD 
DOCKED: ENDBRANCH  40  41
DOCKED: BRANCH  40  43
DOCKED: ATOM     43  C5  UNL     1      15.979 -11.501   0.265 +0.00 +0.00    +0.102 C  
DOCKED: BRANCH  43  44
DOCKED: ATOM     44  N1  UNL     1      14.797 -11.510  -0.608 +0.00 -0.00    -0.309 N  
DOCKED: ATOM     45  C6  UNL     1      14.235 -12.658  -1.100 +0.00 +0.00    +0.231 C  
DOCKED: ATOM     46  O1  UNL     1      14.436 -13.769  -0.606 +0.00 -0.00    -0.274 OA 
DOCKED: ATOM     47  H11 UNL     1      14.516 -10.621  -1.011 +0.00 +0.00    +0.149 HD 
DOCKED: BRANCH  45  48
DOCKED: ATOM     48  C7  UNL     1      13.236 -12.463  -2.260 +0.00 +0.00    +0.146 C  
DOCKED: BRANCH  48  49
DOCKED: ATOM     49  N2  UNL     1      13.060 -11.004  -2.494 +0.00 -0.00    -0.320 NA 
DOCKED: ATOM     50  H13 UNL     1      13.947 -10.603  -2.799 +0.00 +0.00    +0.119 HD 
DOCKED: ATOM     51  H14 UNL     1      12.423 -10.898  -3.287 +0.00 +0.00    +0.119 HD 
DOCKED: ENDBRANCH  48  49
DOCKED: BRANCH  48  52
DOCKED: ATOM     52  C8  UNL     1      13.638 -13.181  -3.552 +0.00 +0.00    +0.123 C  
DOCKED: BRANCH  52  53
DOCKED: ATOM     53  C9  UNL     1      15.112 -12.947  -3.836 +0.00 +0.00    +0.212 C  
DOCKED: ATOM     54  N3  UNL     1      15.484 -11.648  -4.034 +0.00 -0.00    -0.329 N  
DOCKED: ATOM     55  O2  UNL     1      15.947 -13.847  -3.906 +0.00 -0.00    -0.276 OA 
DOCKED: ATOM     56  H17 UNL     1      16.492 -11.523  -4.073 +0.00 +0.00    +0.145 HD 
DOCKED: ATOM     57  H18 UNL     1      15.039 -10.934  -3.449 +0.00 +0.00    +0.145 HD 
DOCKED: ENDBRANCH  52  53
DOCKED: ENDBRANCH  48  52
DOCKED: ENDBRANCH  45  48
DOCKED: ENDBRANCH  43  44
DOCKED: BRANCH  43  58
DOCKED: ATOM     58  C4  UNL     1      15.752 -10.445   1.368 +0.00 +0.00    +0.028 C  
DOCKED: BRANCH  58  60
DOCKED: ATOM     59  C1  UNL     1      15.365  -9.999   3.835 +0.00 +0.00    +0.007 C  
DOCKED: ATOM     60  C2  UNL     1      15.519 -11.075   2.756 +0.00 -0.00    -0.015 C  
DOCKED: ATOM     61  C3  UNL     1      14.274 -11.962   2.736 +0.00 +0.00    +0.007 C  
DOCKED: ENDBRANCH  58  60
DOCKED: ENDBRANCH  43  58
DOCKED: ENDBRANCH  40  43
DOCKED: ENDBRANCH  39  40
DOCKED: ENDBRANCH  35  39
DOCKED: ENDBRANCH  34  37
DOCKED: BRANCH  34  62
DOCKED: ATOM     62  C32 UNL     1      19.814  -8.072  -3.733 +0.00 +0.00    +0.012 C  
DOCKED: ATOM     63  C33 UNL     1      20.139  -6.819  -4.565 +0.00 +0.00    +0.009 C  
DOCKED: ATOM     64  C34 UNL     1      20.335  -9.276  -4.529 +0.00 +0.00    +0.009 C  
DOCKED: ENDBRANCH  34  62
DOCKED: ENDBRANCH   1  34
DOCKED: TORSDOF 27
DOCKED: TER
DOCKED: ENDMDL
________________________________________________________________________________


    FINAL DOCKED STATE:
    ________________________


Run:   17 / 20
Time taken for this run:   4.058s

DOCKED: MODEL        17
DOCKED: USER    Run = 17
DOCKED: USER
DOCKED: USER    Estimated Free Energy of Binding    =  +8.05 kcal/mol  [=(1)+(2)+(3)-(4)]
DOCKED: USER
DOCKED: USER    (1) Final Intermolecular Energy     =  +0.00 kcal/mol
DOCKED: USER        vdW + Hbond + desolv Energy     =  +0.00 kcal/mol
DOCKED: USER        Electrostatic Energy            =  +0.00 kcal/mol
DOCKED: USER        Moving Ligand-Fixed Receptor    =  +0.00 kcal/mol
DOCKED: USER        Moving Ligand-Moving Receptor   =  +0.00 kcal/mol
DOCKED: USER    (2) Final Total Internal Energy     = -25.76 kcal/mol
DOCKED: USER    (3) Torsional Free Energy           =  +8.05 kcal/mol
DOCKED: USER    (4) Unbound System's Energy         = -25.76 kcal/mol
DOCKED: USER
DOCKED: USER
DOCKED: REMARK  Name = ligands/ligand_32.pdb
DOCKED: REMARK  32 active torsions:
DOCKED: REMARK  status: ('A' for Active; 'I' for Inactive)
DOCKED: REMARK    1  A    between atoms: C1_1  and  C2_2
DOCKED: REMARK    2  A    between atoms: C2_2  and  C3_3
DOCKED: REMARK    3  A    between atoms: C2_2  and  C4_4
DOCKED: REMARK    4  A    between atoms: C4_4  and  C5_5
DOCKED: REMARK    5  A    between atoms: C5_5  and  N1_6
DOCKED: REMARK    6  A    between atoms: C5_5  and  C10_15
DOCKED: REMARK    7  A    between atoms: C6_7  and  C7_9
DOCKED: REMARK    8  A    between atoms: C7_9  and  N2_10
DOCKED: REMARK    9  A    between atoms: C7_9  and  C8_11
DOCKED: REMARK   10  A    between atoms: C8_11  and  C9_12
DOCKED: REMARK   11  A    between atoms: C10_15  and  O3_16
DOCKED: REMARK   12  A    between atoms: C10_15  and  C11_17
DOCKED: REMARK   13  A    between atoms: C11_17  and  C12_18
DOCKED: REMARK   14  A    between atoms: N4_20  and  C13_21
DOCKED: REMARK   15  A    between atoms: C13_21  and  C14_22
DOCKED: REMARK   16  A    between atoms: C13_21  and  C32_50
DOCKED: REMARK   17  A    between atoms: N5_24  and  C15_25
DOCKED: REMARK   18  A    between atoms: C15_25  and  C16_26
DOCKED: REMARK   19  A    between atoms: C15_25  and  C17_27
DOCKED: REMARK   20  A    between atoms: N6_29  and  C18_30
DOCKED: REMARK   21  A    between atoms: C18_30  and  C19_31
DOCKED: REMARK   22  A    between atoms: C18_30  and  C22_36
DOCKED: REMARK   23  A    between atoms: C19_31  and  C20_32
DOCKED: REMARK   24  A    between atoms: C20_32  and  C21_33
DOCKED: REMARK   25  A    between atoms: C21_33  and  O8_35
DOCKED: REMARK   26  A    between atoms: N7_38  and  C23_39
DOCKED: REMARK   27  A    between atoms: C23_39  and  C24_40
DOCKED: REMARK   28  A    between atoms: C23_39  and  C31_47
DOCKED: REMARK   29  A    between atoms: C24_40  and  C25_41
DOCKED: REMARK   30  A    between atoms: C31_47  and  O11_49
DOCKED: REMARK   31  A    between atoms: C32_50  and  C33_51
DOCKED: REMARK   32  A    between atoms: C32_50  and  C34_52
DOCKED: REMARK                            x       y       z     vdW  Elec       q    Type
DOCKED: REMARK                         _______ _______ _______ _____ _____    ______ ____
DOCKED: USER                              x       y       z     vdW  Elec       q    Type
DOCKED: USER                           _______ _______ _______ _____ _____    ______ ____
DOCKED: ROOT
DOCKED: ATOM      1  C14 UNL     1      15.252  -7.265   1.734 +0.00 +0.00    +0.234 C  
DOCKED: ATOM      2  O5  UNL     1      14.720  -7.445   2.827 +0.00 -0.00    -0.274 OA 
DOCKED: ATOM      3  N5  UNL     1      14.932  -8.001   0.610 +0.00 -0.00    -0.303 N  
DOCKED: ATOM      4  H25 UNL     1      15.220  -7.585  -0.277 +0.00 +0.00    +0.149 HD 
DOCKED: ENDROOT
DOCKED: BRANCH   3   5
DOCKED: ATOM      5  C15 UNL     1      13.760  -8.869   0.523 +0.00 +0.00    +0.156 C  
DOCKED: ATOM      6  C16 UNL     1      13.691  -9.953   1.606 +0.00 +0.00    +0.038 C  
DOCKED: BRANCH   5   7
DOCKED: ATOM      7  C17 UNL     1      12.491  -7.993   0.428 +0.00 +0.00    +0.234 C  
DOCKED: ATOM      8  O6  UNL     1      11.945  -7.747  -0.650 +0.00 -0.00    -0.274 OA 
DOCKED: ATOM      9  N6  UNL     1      11.946  -7.584   1.624 +0.00 -0.00    -0.302 N  
DOCKED: ATOM     10  H30 UNL     1      12.574  -7.575   2.425 +0.00 +0.00    +0.150 HD 
DOCKED: BRANCH   9  11
DOCKED: ATOM     11  C18 UNL     1      10.924  -6.546   1.671 +0.00 +0.00    +0.159 C  
DOCKED: BRANCH  11  12
DOCKED: ATOM     12  C22 UNL     1      11.589  -5.253   2.152 +0.00 +0.00    +0.234 C  
DOCKED: ATOM     13  O9  UNL     1      11.184  -4.145   1.800 +0.00 -0.00    -0.274 OA 
DOCKED: ATOM     14  N7  UNL     1      12.700  -5.436   2.948 +0.00 -0.00    -0.301 N  
DOCKED: ATOM     15  H37 UNL     1      12.880  -6.357   3.340 +0.00 +0.00    +0.150 HD 
DOCKED: BRANCH  14  16
DOCKED: ATOM     16  C23 UNL     1      13.431  -4.294   3.514 +0.00 +0.00    +0.186 C  
DOCKED: BRANCH  16  17
DOCKED: ATOM     17  C31 UNL     1      14.573  -4.847   4.352 +0.00 +0.00    +0.326 C  
DOCKED: ATOM     18  O10 UNL     1      15.546  -4.226   4.753 +0.00 -0.00    -0.249 OA 
DOCKED: BRANCH  17  19
DOCKED: ATOM     19  O11 UNL     1      14.375  -6.114   4.749 +0.00 -0.00    -0.479 OA 
DOCKED: ATOM     20  H46 UNL     1      13.407  -6.222   4.710 +0.00 +0.00    +0.295 HD 
DOCKED: ENDBRANCH  17  19
DOCKED: ENDBRANCH  16  17
DOCKED: BRANCH  16  21
DOCKED: ATOM     21  C24 UNL     1      12.525  -3.433   4.405 +0.00 +0.00    +0.069 C  
DOCKED: BRANCH  21  22
DOCKED: ATOM     22  C25 UNL     1      13.016  -3.332   5.828 +0.00 -0.00    -0.045 A  
DOCKED: ATOM     23  C26 UNL     1      12.610  -4.289   6.768 +0.00 +0.00    +0.004 A  
DOCKED: ATOM     24  C27 UNL     1      13.054  -4.220   8.087 +0.00 +0.00    +0.000 A  
DOCKED: ATOM     25  C28 UNL     1      13.923  -3.200   8.475 +0.00 +0.00    +0.000 A  
DOCKED: ATOM     26  C29 UNL     1      14.318  -2.234   7.555 +0.00 +0.00    +0.000 A  
DOCKED: ATOM     27  C30 UNL     1      13.858  -2.293   6.235 +0.00 +0.00    +0.004 A  
DOCKED: ENDBRANCH  21  22
DOCKED: ENDBRANCH  16  21
DOCKED: ENDBRANCH  14  16
DOCKED: ENDBRANCH  11  12
DOCKED: BRANCH  11  28
DOCKED: ATOM     28  C19 UNL     1       9.797  -6.914   2.642 +0.00 +0.00    +0.043 C  
DOCKED: BRANCH  28  29
DOCKED: ATOM     29  C20 UNL     1      10.237  -7.922   3.706 +0.00 +0.00    +0.123 C  
DOCKED: BRANCH  29  30
DOCKED: ATOM     30  C21 UNL     1      11.425  -7.419   4.487 +0.00 +0.00    +0.305 C  
DOCKED: ATOM     31  O7  UNL     1      11.487  -6.380   5.120 +0.00 -0.00    -0.251 OA 
DOCKED: BRANCH  30  32
DOCKED: ATOM     32  O8  UNL     1      12.490  -8.232   4.370 +0.00 -0.00    -0.481 OA 
DOCKED: ATOM     33  H36 UNL     1      13.273  -7.650   4.442 +0.00 +0.00    +0.295 HD 
DOCKED: ENDBRANCH  30  32
DOCKED: ENDBRANCH  29  30
DOCKED: ENDBRANCH  28  29
DOCKED: ENDBRANCH  11  28
DOCKED: ENDBRANCH   9  11
DOCKED: ENDBRANCH   5   7
DOCKED: ENDBRANCH   3   5
DOCKED: BRANCH   1  34
DOCKED: ATOM     34  C13 UNL     1      16.273  -6.121   1.498 +0.00 +0.00    +0.161 C  
DOCKED: BRANCH  34  37
DOCKED: ATOM     35  C12 UNL     1      18.099  -5.516   3.165 +0.00 +0.00    +0.216 C  
DOCKED: ATOM     36  O4  UNL     1      19.013  -5.420   2.367 +0.00 -0.00    -0.276 OA 
DOCKED: ATOM     37  N4  UNL     1      16.761  -5.699   2.829 +0.00 -0.00    -0.304 N  
DOCKED: ATOM     38  H23 UNL     1      16.165  -6.027   3.585 +0.00 +0.00    +0.149 HD 
DOCKED: BRANCH  35  39
DOCKED: ATOM     39  C11 UNL     1      18.281  -5.317   4.650 +0.00 +0.00    +0.129 C  
DOCKED: BRANCH  39  40
DOCKED: ATOM     40  C10 UNL     1      17.696  -6.397   5.583 +0.00 +0.00    +0.143 C  
DOCKED: BRANCH  40  41
DOCKED: ATOM     41  O3  UNL     1      16.748  -7.280   4.981 +0.00 -0.00    -0.389 OA 
DOCKED: ATOM     42  H20 UNL     1      15.976  -6.735   4.724 +0.00 +0.00    +0.210 HD 
DOCKED: ENDBRANCH  40  41
DOCKED: BRANCH  40  43
DOCKED: ATOM     43  C5  UNL     1      17.157  -5.902   6.955 +0.00 +0.00    +0.102 C  
DOCKED: BRANCH  43  44
DOCKED: ATOM     44  N1  UNL     1      15.802  -6.448   7.105 +0.00 -0.00    -0.309 N  
DOCKED: ATOM     45  C6  UNL     1      15.531  -7.610   7.779 +0.00 +0.00    +0.231 C  
DOCKED: ATOM     46  O1  UNL     1      16.310  -8.113   8.590 +0.00 -0.00    -0.274 OA 
DOCKED: ATOM     47  H11 UNL     1      15.075  -6.047   6.519 +0.00 +0.00    +0.149 HD 
DOCKED: BRANCH  45  48
DOCKED: ATOM     48  C7  UNL     1      14.127  -8.204   7.539 +0.00 +0.00    +0.146 C  
DOCKED: BRANCH  48  49
DOCKED: ATOM     49  N2  UNL     1      13.375  -7.294   6.632 +0.00 -0.00    -0.320 NA 
DOCKED: ATOM     50  H13 UNL     1      13.823  -7.290   5.715 +0.00 +0.00    +0.119 HD 
DOCKED: ATOM     51  H14 UNL     1      12.452  -7.707   6.485 +0.00 +0.00    +0.119 HD 
DOCKED: ENDBRANCH  48  49
DOCKED: BRANCH  48  52
DOCKED: ATOM     52  C8  UNL     1      14.144  -9.634   6.990 +0.00 +0.00    +0.123 C  
DOCKED: BRANCH  52  53
DOCKED: ATOM     53  C9  UNL     1      15.165  -9.745   5.871 +0.00 +0.00    +0.212 C  
DOCKED: ATOM     54  N3  UNL     1      14.940  -8.960   4.775 +0.00 -0.00    -0.329 N  
DOCKED: ATOM     55  O2  UNL     1      16.139 -10.495   5.903 +0.00 -0.00    -0.276 OA 
DOCKED: ATOM     56  H17 UNL     1      15.717  -8.955   4.121 +0.00 +0.00    +0.145 HD 
DOCKED: ATOM     57  H18 UNL     1      14.578  -8.015   4.937 +0.00 +0.00    +0.145 HD 
DOCKED: ENDBRANCH  52  53
DOCKED: ENDBRANCH  48  52
DOCKED: ENDBRANCH  45  48
DOCKED: ENDBRANCH  43  44
DOCKED: BRANCH  43  58
DOCKED: ATOM     58  C4  UNL     1      17.077  -4.370   7.128 +0.00 +0.00    +0.028 C  
DOCKED: BRANCH  58  60
DOCKED: ATOM     59  C1  UNL     1      17.650  -2.363   8.571 +0.00 +0.00    +0.007 C  
DOCKED: ATOM     60  C2  UNL     1      17.665  -3.891   8.471 +0.00 -0.00    -0.015 C  
DOCKED: ATOM     61  C3  UNL     1      16.882  -4.489   9.640 +0.00 +0.00    +0.007 C  
DOCKED: ENDBRANCH  58  60
DOCKED: ENDBRANCH  43  58
DOCKED: ENDBRANCH  40  43
DOCKED: ENDBRANCH  39  40
DOCKED: ENDBRANCH  35  39
DOCKED: ENDBRANCH  34  37
DOCKED: BRANCH  34  62
DOCKED: ATOM     62  C32 UNL     1      17.367  -6.400   0.439 +0.00 +0.00    +0.012 C  
DOCKED: ATOM     63  C33 UNL     1      16.851  -6.101  -0.979 +0.00 +0.00    +0.009 C  
DOCKED: ATOM     64  C34 UNL     1      17.883  -7.845   0.426 +0.00 +0.00    +0.009 C  
DOCKED: ENDBRANCH  34  62
DOCKED: ENDBRANCH   1  34
DOCKED: TORSDOF 27
DOCKED: TER
DOCKED: ENDMDL
________________________________________________________________________________


    FINAL DOCKED STATE:
    ________________________


Run:   18 / 20
Time taken for this run:   4.058s

DOCKED: MODEL        18
DOCKED: USER    Run = 18
DOCKED: USER
DOCKED: USER    Estimated Free Energy of Binding    =  +8.05 kcal/mol  [=(1)+(2)+(3)-(4)]
DOCKED: USER
DOCKED: USER    (1) Final Intermolecular Energy     =  +0.00 kcal/mol
DOCKED: USER        vdW + Hbond + desolv Energy     =  +0.00 kcal/mol
DOCKED: USER        Electrostatic Energy            =  +0.00 kcal/mol
DOCKED: USER        Moving Ligand-Fixed Receptor    =  +0.00 kcal/mol
DOCKED: USER        Moving Ligand-Moving Receptor   =  +0.00 kcal/mol
DOCKED: USER    (2) Final Total Internal Energy     = -25.73 kcal/mol
DOCKED: USER    (3) Torsional Free Energy           =  +8.05 kcal/mol
DOCKED: USER    (4) Unbound System's Energy         = -25.73 kcal/mol
DOCKED: USER
DOCKED: USER
DOCKED: REMARK  Name = ligands/ligand_32.pdb
DOCKED: REMARK  32 active torsions:
DOCKED: REMARK  status: ('A' for Active; 'I' for Inactive)
DOCKED: REMARK    1  A    between atoms: C1_1  and  C2_2
DOCKED: REMARK    2  A    between atoms: C2_2  and  C3_3
DOCKED: REMARK    3  A    between atoms: C2_2  and  C4_4
DOCKED: REMARK    4  A    between atoms: C4_4  and  C5_5
DOCKED: REMARK    5  A    between atoms: C5_5  and  N1_6
DOCKED: REMARK    6  A    between atoms: C5_5  and  C10_15
DOCKED: REMARK    7  A    between atoms: C6_7  and  C7_9
DOCKED: REMARK    8  A    between atoms: C7_9  and  N2_10
DOCKED: REMARK    9  A    between atoms: C7_9  and  C8_11
DOCKED: REMARK   10  A    between atoms: C8_11  and  C9_12
DOCKED: REMARK   11  A    between atoms: C10_15  and  O3_16
DOCKED: REMARK   12  A    between atoms: C10_15  and  C11_17
DOCKED: REMARK   13  A    between atoms: C11_17  and  C12_18
DOCKED: REMARK   14  A    between atoms: N4_20  and  C13_21
DOCKED: REMARK   15  A    between atoms: C13_21  and  C14_22
DOCKED: REMARK   16  A    between atoms: C13_21  and  C32_50
DOCKED: REMARK   17  A    between atoms: N5_24  and  C15_25
DOCKED: REMARK   18  A    between atoms: C15_25  and  C16_26
DOCKED: REMARK   19  A    between atoms: C15_25  and  C17_27
DOCKED: REMARK   20  A    between atoms: N6_29  and  C18_30
DOCKED: REMARK   21  A    between atoms: C18_30  and  C19_31
DOCKED: REMARK   22  A    between atoms: C18_30  and  C22_36
DOCKED: REMARK   23  A    between atoms: C19_31  and  C20_32
DOCKED: REMARK   24  A    between atoms: C20_32  and  C21_33
DOCKED: REMARK   25  A    between atoms: C21_33  and  O8_35
DOCKED: REMARK   26  A    between atoms: N7_38  and  C23_39
DOCKED: REMARK   27  A    between atoms: C23_39  and  C24_40
DOCKED: REMARK   28  A    between atoms: C23_39  and  C31_47
DOCKED: REMARK   29  A    between atoms: C24_40  and  C25_41
DOCKED: REMARK   30  A    between atoms: C31_47  and  O11_49
DOCKED: REMARK   31  A    between atoms: C32_50  and  C33_51
DOCKED: REMARK   32  A    between atoms: C32_50  and  C34_52
DOCKED: REMARK                            x       y       z     vdW  Elec       q    Type
DOCKED: REMARK                         _______ _______ _______ _____ _____    ______ ____
DOCKED: USER                              x       y       z     vdW  Elec       q    Type
DOCKED: USER                           _______ _______ _______ _____ _____    ______ ____
DOCKED: ROOT
DOCKED: ATOM      1  C14 UNL     1      11.896  -5.707  -2.503 +0.00 +0.00    +0.234 C  
DOCKED: ATOM      2  O5  UNL     1      11.797  -4.720  -3.229 +0.00 -0.00    -0.274 OA 
DOCKED: ATOM      3  N5  UNL     1      11.342  -5.771  -1.239 +0.00 -0.00    -0.303 N  
DOCKED: ATOM      4  H25 UNL     1      11.245  -6.712  -0.856 +0.00 +0.00    +0.149 HD 
DOCKED: ENDROOT
DOCKED: BRANCH   3   5
DOCKED: ATOM      5  C15 UNL     1      10.365  -4.806  -0.739 +0.00 +0.00    +0.156 C  
DOCKED: ATOM      6  C16 UNL     1      10.839  -3.348  -0.769 +0.00 +0.00    +0.038 C  
DOCKED: BRANCH   5   7
DOCKED: ATOM      7  C17 UNL     1       9.014  -5.043  -1.452 +0.00 +0.00    +0.234 C  
DOCKED: ATOM      8  O6  UNL     1       8.103  -5.690  -0.929 +0.00 -0.00    -0.274 OA 
DOCKED: ATOM      9  N6  UNL     1       8.848  -4.407  -2.661 +0.00 -0.00    -0.302 N  
DOCKED: ATOM     10  H30 UNL     1       9.699  -4.140  -3.151 +0.00 +0.00    +0.150 HD 
DOCKED: BRANCH   9  11
DOCKED: ATOM     11  C18 UNL     1       7.748  -4.757  -3.552 +0.00 +0.00    +0.159 C  
DOCKED: BRANCH  11  12
DOCKED: ATOM     12  C22 UNL     1       8.320  -5.597  -4.698 +0.00 +0.00    +0.234 C  
DOCKED: ATOM     13  O9  UNL     1       7.650  -6.457  -5.270 +0.00 -0.00    -0.274 OA 
DOCKED: ATOM     14  N7  UNL     1       9.646  -5.354  -4.987 +0.00 -0.00    -0.301 N  
DOCKED: ATOM     15  H37 UNL     1      10.091  -4.523  -4.603 +0.00 +0.00    +0.150 HD 
DOCKED: BRANCH  14  16
DOCKED: ATOM     16  C23 UNL     1      10.332  -6.056  -6.080 +0.00 +0.00    +0.186 C  
DOCKED: BRANCH  16  17
DOCKED: ATOM     17  C31 UNL     1      11.772  -5.570  -6.109 +0.00 +0.00    +0.326 C  
DOCKED: ATOM     18  O10 UNL     1      12.717  -6.128  -6.646 +0.00 -0.00    -0.249 OA 
DOCKED: BRANCH  17  19
DOCKED: ATOM     19  O11 UNL     1      11.933  -4.350  -5.571 +0.00 -0.00    -0.479 OA 
DOCKED: ATOM     20  H46 UNL     1      11.032  -3.977  -5.569 +0.00 +0.00    +0.295 HD 
DOCKED: ENDBRANCH  17  19
DOCKED: ENDBRANCH  16  17
DOCKED: BRANCH  16  21
DOCKED: ATOM     21  C24 UNL     1       9.676  -5.761  -7.436 +0.00 +0.00    +0.069 C  
DOCKED: BRANCH  21  22
DOCKED: ATOM     22  C25 UNL     1      10.616  -5.114  -8.422 +0.00 -0.00    -0.045 A  
DOCKED: ATOM     23  C26 UNL     1      11.381  -5.918  -9.278 +0.00 +0.00    +0.004 A  
DOCKED: ATOM     24  C27 UNL     1      12.253  -5.344 -10.200 +0.00 +0.00    +0.000 A  
DOCKED: ATOM     25  C28 UNL     1      12.357  -3.955 -10.286 +0.00 +0.00    +0.000 A  
DOCKED: ATOM     26  C29 UNL     1      11.617  -3.147  -9.429 +0.00 +0.00    +0.000 A  
DOCKED: ATOM     27  C30 UNL     1      10.754  -3.725  -8.490 +0.00 +0.00    +0.004 A  
DOCKED: ENDBRANCH  21  22
DOCKED: ENDBRANCH  16  21
DOCKED: ENDBRANCH  14  16
DOCKED: ENDBRANCH  11  12
DOCKED: BRANCH  11  28
DOCKED: ATOM     28  C19 UNL     1       7.082  -3.507  -4.138 +0.00 +0.00    +0.043 C  
DOCKED: BRANCH  28  29
DOCKED: ATOM     29  C20 UNL     1       8.006  -2.287  -4.133 +0.00 +0.00    +0.123 C  
DOCKED: BRANCH  29  30
DOCKED: ATOM     30  C21 UNL     1       9.292  -2.565  -4.871 +0.00 +0.00    +0.305 C  
DOCKED: ATOM     31  O7  UNL     1       9.397  -2.914  -6.034 +0.00 -0.00    -0.251 OA 
DOCKED: BRANCH  30  32
DOCKED: ATOM     32  O8  UNL     1      10.369  -2.443  -4.075 +0.00 -0.00    -0.481 OA 
DOCKED: ATOM     33  H36 UNL     1      11.038  -3.054  -4.446 +0.00 +0.00    +0.295 HD 
DOCKED: ENDBRANCH  30  32
DOCKED: ENDBRANCH  29  30
DOCKED: ENDBRANCH  28  29
DOCKED: ENDBRANCH  11  28
DOCKED: ENDBRANCH   9  11
DOCKED: ENDBRANCH   5   7
DOCKED: ENDBRANCH   3   5
DOCKED: BRANCH   1  34
DOCKED: ATOM     34  C13 UNL     1      12.580  -7.013  -2.984 +0.00 +0.00    +0.161 C  
DOCKED: BRANCH  34  37
DOCKED: ATOM     35  C12 UNL     1      14.796  -7.018  -4.237 +0.00 +0.00    +0.216 C  
DOCKED: ATOM     36  O4  UNL     1      15.341  -7.890  -3.587 +0.00 -0.00    -0.276 OA 
DOCKED: ATOM     37  N4  UNL     1      13.460  -6.646  -4.115 +0.00 -0.00    -0.304 N  
DOCKED: ATOM     38  H23 UNL     1      13.223  -5.743  -4.517 +0.00 +0.00    +0.149 HD 
DOCKED: BRANCH  35  39
DOCKED: ATOM     39  C11 UNL     1      15.477  -6.294  -5.373 +0.00 +0.00    +0.129 C  
DOCKED: BRANCH  39  40
DOCKED: ATOM     40  C10 UNL     1      15.361  -4.755  -5.400 +0.00 +0.00    +0.143 C  
DOCKED: BRANCH  40  41
DOCKED: ATOM     41  O3  UNL     1      14.404  -4.197  -4.498 +0.00 -0.00    -0.389 OA 
DOCKED: ATOM     42  H20 UNL     1      13.520  -4.466  -4.821 +0.00 +0.00    +0.210 HD 
DOCKED: ENDBRANCH  40  41
DOCKED: BRANCH  40  43
DOCKED: ATOM     43  C5  UNL     1      15.210  -4.102  -6.802 +0.00 +0.00    +0.102 C  
DOCKED: BRANCH  43  44
DOCKED: ATOM     44  N1  UNL     1      14.076  -3.172  -6.721 +0.00 -0.00    -0.309 N  
DOCKED: ATOM     45  C6  UNL     1      14.225  -1.818  -6.573 +0.00 +0.00    +0.231 C  
DOCKED: ATOM     46  O1  UNL     1      15.273  -1.225  -6.832 +0.00 -0.00    -0.274 OA 
DOCKED: ATOM     47  H11 UNL     1      13.157  -3.577  -6.572 +0.00 +0.00    +0.149 HD 
DOCKED: BRANCH  45  48
DOCKED: ATOM     48  C7  UNL     1      12.950  -1.052  -6.160 +0.00 +0.00    +0.146 C  
DOCKED: BRANCH  48  49
DOCKED: ATOM     49  N2  UNL     1      11.796  -1.991  -6.207 +0.00 -0.00    -0.320 NA 
DOCKED: ATOM     50  H13 UNL     1      11.925  -2.718  -5.503 +0.00 +0.00    +0.119 HD 
DOCKED: ATOM     51  H14 UNL     1      10.967  -1.468  -5.915 +0.00 +0.00    +0.119 HD 
DOCKED: ENDBRANCH  48  49
DOCKED: BRANCH  48  52
DOCKED: ATOM     52  C8  UNL     1      13.050  -0.375  -4.789 +0.00 +0.00    +0.123 C  
DOCKED: BRANCH  52  53
DOCKED: ATOM     53  C9  UNL     1      13.654  -1.338  -3.781 +0.00 +0.00    +0.212 C  
DOCKED: ATOM     54  N3  UNL     1      12.939  -2.477  -3.538 +0.00 -0.00    -0.329 N  
DOCKED: ATOM     55  O2  UNL     1      14.711  -1.134  -3.187 +0.00 -0.00    -0.276 OA 
DOCKED: ATOM     56  H17 UNL     1      13.446  -3.154  -2.975 +0.00 +0.00    +0.145 HD 
DOCKED: ATOM     57  H18 UNL     1      12.474  -2.922  -4.335 +0.00 +0.00    +0.145 HD 
DOCKED: ENDBRANCH  52  53
DOCKED: ENDBRANCH  48  52
DOCKED: ENDBRANCH  45  48
DOCKED: ENDBRANCH  43  44
DOCKED: BRANCH  43  58
DOCKED: ATOM     58  C4  UNL     1      14.947  -5.077  -7.969 +0.00 +0.00    +0.028 C  
DOCKED: BRANCH  58  60
DOCKED: ATOM     59  C1  UNL     1      16.676  -3.597  -9.090 +0.00 +0.00    +0.007 C  
DOCKED: ATOM     60  C2  UNL     1      15.512  -4.567  -9.310 +0.00 -0.00    -0.015 C  
DOCKED: ATOM     61  C3  UNL     1      15.978  -5.740 -10.173 +0.00 +0.00    +0.007 C  
DOCKED: ENDBRANCH  58  60
DOCKED: ENDBRANCH  43  58
DOCKED: ENDBRANCH  40  43
DOCKED: ENDBRANCH  39  40
DOCKED: ENDBRANCH  35  39
DOCKED: ENDBRANCH  34  37
DOCKED: BRANCH  34  62
DOCKED: ATOM     62  C32 UNL     1      13.232  -7.881  -1.881 +0.00 +0.00    +0.012 C  
DOCKED: ATOM     63  C33 UNL     1      12.186  -8.776  -1.194 +0.00 +0.00    +0.009 C  
DOCKED: ATOM     64  C34 UNL     1      13.923  -7.080  -0.770 +0.00 +0.00    +0.009 C  
DOCKED: ENDBRANCH  34  62
DOCKED: ENDBRANCH   1  34
DOCKED: TORSDOF 27
DOCKED: TER
DOCKED: ENDMDL
________________________________________________________________________________


    FINAL DOCKED STATE:
    ________________________


Run:   19 / 20
Time taken for this run:   4.058s

DOCKED: MODEL        19
DOCKED: USER    Run = 19
DOCKED: USER
DOCKED: USER    Estimated Free Energy of Binding    =  +8.05 kcal/mol  [=(1)+(2)+(3)-(4)]
DOCKED: USER
DOCKED: USER    (1) Final Intermolecular Energy     =  +0.00 kcal/mol
DOCKED: USER        vdW + Hbond + desolv Energy     =  +0.00 kcal/mol
DOCKED: USER        Electrostatic Energy            =  +0.00 kcal/mol
DOCKED: USER        Moving Ligand-Fixed Receptor    =  +0.00 kcal/mol
DOCKED: USER        Moving Ligand-Moving Receptor   =  +0.00 kcal/mol
DOCKED: USER    (2) Final Total Internal Energy     = -25.64 kcal/mol
DOCKED: USER    (3) Torsional Free Energy           =  +8.05 kcal/mol
DOCKED: USER    (4) Unbound System's Energy         = -25.64 kcal/mol
DOCKED: USER
DOCKED: USER
DOCKED: REMARK  Name = ligands/ligand_32.pdb
DOCKED: REMARK  32 active torsions:
DOCKED: REMARK  status: ('A' for Active; 'I' for Inactive)
DOCKED: REMARK    1  A    between atoms: C1_1  and  C2_2
DOCKED: REMARK    2  A    between atoms: C2_2  and  C3_3
DOCKED: REMARK    3  A    between atoms: C2_2  and  C4_4
DOCKED: REMARK    4  A    between atoms: C4_4  and  C5_5
DOCKED: REMARK    5  A    between atoms: C5_5  and  N1_6
DOCKED: REMARK    6  A    between atoms: C5_5  and  C10_15
DOCKED: REMARK    7  A    between atoms: C6_7  and  C7_9
DOCKED: REMARK    8  A    between atoms: C7_9  and  N2_10
DOCKED: REMARK    9  A    between atoms: C7_9  and  C8_11
DOCKED: REMARK   10  A    between atoms: C8_11  and  C9_12
DOCKED: REMARK   11  A    between atoms: C10_15  and  O3_16
DOCKED: REMARK   12  A    between atoms: C10_15  and  C11_17
DOCKED: REMARK   13  A    between atoms: C11_17  and  C12_18
DOCKED: REMARK   14  A    between atoms: N4_20  and  C13_21
DOCKED: REMARK   15  A    between atoms: C13_21  and  C14_22
DOCKED: REMARK   16  A    between atoms: C13_21  and  C32_50
DOCKED: REMARK   17  A    between atoms: N5_24  and  C15_25
DOCKED: REMARK   18  A    between atoms: C15_25  and  C16_26
DOCKED: REMARK   19  A    between atoms: C15_25  and  C17_27
DOCKED: REMARK   20  A    between atoms: N6_29  and  C18_30
DOCKED: REMARK   21  A    between atoms: C18_30  and  C19_31
DOCKED: REMARK   22  A    between atoms: C18_30  and  C22_36
DOCKED: REMARK   23  A    between atoms: C19_31  and  C20_32
DOCKED: REMARK   24  A    between atoms: C20_32  and  C21_33
DOCKED: REMARK   25  A    between atoms: C21_33  and  O8_35
DOCKED: REMARK   26  A    between atoms: N7_38  and  C23_39
DOCKED: REMARK   27  A    between atoms: C23_39  and  C24_40
DOCKED: REMARK   28  A    between atoms: C23_39  and  C31_47
DOCKED: REMARK   29  A    between atoms: C24_40  and  C25_41
DOCKED: REMARK   30  A    between atoms: C31_47  and  O11_49
DOCKED: REMARK   31  A    between atoms: C32_50  and  C33_51
DOCKED: REMARK   32  A    between atoms: C32_50  and  C34_52
DOCKED: REMARK                            x       y       z     vdW  Elec       q    Type
DOCKED: REMARK                         _______ _______ _______ _____ _____    ______ ____
DOCKED: USER                              x       y       z     vdW  Elec       q    Type
DOCKED: USER                           _______ _______ _______ _____ _____    ______ ____
DOCKED: ROOT
DOCKED: ATOM      1  C14 UNL     1      12.677   0.573  -4.025 +0.00 +0.00    +0.234 C  
DOCKED: ATOM      2  O5  UNL     1      12.226  -0.521  -3.691 +0.00 -0.00    -0.274 OA 
DOCKED: ATOM      3  N5  UNL     1      12.509   1.719  -3.273 +0.00 -0.00    -0.303 N  
DOCKED: ATOM      4  H25 UNL     1      13.150   2.481  -3.496 +0.00 +0.00    +0.149 HD 
DOCKED: ENDROOT
DOCKED: BRANCH   3   5
DOCKED: ATOM      5  C15 UNL     1      12.026   1.713  -1.894 +0.00 +0.00    +0.156 C  
DOCKED: ATOM      6  C16 UNL     1      10.631   1.103  -1.712 +0.00 +0.00    +0.038 C  
DOCKED: BRANCH   5   7
DOCKED: ATOM      7  C17 UNL     1      13.109   1.090  -0.985 +0.00 +0.00    +0.234 C  
DOCKED: ATOM      8  O6  UNL     1      13.918   1.781  -0.362 +0.00 -0.00    -0.274 OA 
DOCKED: ATOM      9  N6  UNL     1      13.056  -0.277  -0.831 +0.00 -0.00    -0.302 N  
DOCKED: ATOM     10  H30 UNL     1      12.574  -0.795  -1.562 +0.00 +0.00    +0.150 HD 
DOCKED: BRANCH   9  11
DOCKED: ATOM     11  C18 UNL     1      14.163  -1.011  -0.229 +0.00 +0.00    +0.159 C  
DOCKED: BRANCH  11  12
DOCKED: ATOM     12  C22 UNL     1      15.057  -1.525  -1.361 +0.00 +0.00    +0.234 C  
DOCKED: ATOM     13  O9  UNL     1      16.283  -1.565  -1.254 +0.00 -0.00    -0.274 OA 
DOCKED: ATOM     14  N7  UNL     1      14.385  -1.876  -2.514 +0.00 -0.00    -0.301 N  
DOCKED: ATOM     15  H37 UNL     1      13.375  -1.984  -2.483 +0.00 +0.00    +0.150 HD 
DOCKED: BRANCH  14  16
DOCKED: ATOM     16  C23 UNL     1      15.099  -2.416  -3.679 +0.00 +0.00    +0.186 C  
DOCKED: BRANCH  16  17
DOCKED: ATOM     17  C31 UNL     1      14.064  -3.029  -4.609 +0.00 +0.00    +0.326 C  
DOCKED: ATOM     18  O10 UNL     1      14.284  -3.783  -5.545 +0.00 -0.00    -0.249 OA 
DOCKED: BRANCH  17  19
DOCKED: ATOM     19  O11 UNL     1      12.799  -2.766  -4.244 +0.00 -0.00    -0.479 OA 
DOCKED: ATOM     20  H46 UNL     1      12.734  -3.137  -3.345 +0.00 +0.00    +0.295 HD 
DOCKED: ENDBRANCH  17  19
DOCKED: ENDBRANCH  16  17
DOCKED: BRANCH  16  21
DOCKED: ATOM     21  C24 UNL     1      16.108  -3.498  -3.269 +0.00 +0.00    +0.069 C  
DOCKED: BRANCH  21  22
DOCKED: ATOM     22  C25 UNL     1      15.467  -4.673  -2.572 +0.00 -0.00    -0.045 A  
DOCKED: ATOM     23  C26 UNL     1      15.541  -4.772  -1.176 +0.00 +0.00    +0.004 A  
DOCKED: ATOM     24  C27 UNL     1      14.954  -5.845  -0.509 +0.00 +0.00    +0.000 A  
DOCKED: ATOM     25  C28 UNL     1      14.270  -6.822  -1.232 +0.00 +0.00    +0.000 A  
DOCKED: ATOM     26  C29 UNL     1      14.205  -6.744  -2.620 +0.00 +0.00    +0.000 A  
DOCKED: ATOM     27  C30 UNL     1      14.812  -5.676  -3.291 +0.00 +0.00    +0.004 A  
DOCKED: ENDBRANCH  21  22
DOCKED: ENDBRANCH  16  21
DOCKED: ENDBRANCH  14  16
DOCKED: ENDBRANCH  11  12
DOCKED: BRANCH  11  28
DOCKED: ATOM     28  C19 UNL     1      13.663  -2.206   0.590 +0.00 +0.00    +0.043 C  
DOCKED: BRANCH  28  29
DOCKED: ATOM     29  C20 UNL     1      12.231  -2.611   0.234 +0.00 +0.00    +0.123 C  
DOCKED: BRANCH  29  30
DOCKED: ATOM     30  C21 UNL     1      12.128  -3.078  -1.196 +0.00 +0.00    +0.305 C  
DOCKED: ATOM     31  O7  UNL     1      12.761  -3.984  -1.708 +0.00 -0.00    -0.251 OA 
DOCKED: BRANCH  30  32
DOCKED: ATOM     32  O8  UNL     1      11.271  -2.329  -1.914 +0.00 -0.00    -0.481 OA 
DOCKED: ATOM     33  H36 UNL     1      11.568  -2.411  -2.843 +0.00 +0.00    +0.295 HD 
DOCKED: ENDBRANCH  30  32
DOCKED: ENDBRANCH  29  30
DOCKED: ENDBRANCH  28  29
DOCKED: ENDBRANCH  11  28
DOCKED: ENDBRANCH   9  11
DOCKED: ENDBRANCH   5   7
DOCKED: ENDBRANCH   3   5
DOCKED: BRANCH   1  34
DOCKED: ATOM     34  C13 UNL     1      13.563   0.743  -5.287 +0.00 +0.00    +0.161 C  
DOCKED: BRANCH  34  37
DOCKED: ATOM     35  C12 UNL     1      13.796  -0.681  -7.384 +0.00 +0.00    +0.216 C  
DOCKED: ATOM     36  O4  UNL     1      14.390   0.136  -8.063 +0.00 -0.00    -0.276 OA 
DOCKED: ATOM     37  N4  UNL     1      13.498  -0.533  -6.033 +0.00 -0.00    -0.304 N  
DOCKED: ATOM     38  H23 UNL     1      12.779  -1.157  -5.677 +0.00 +0.00    +0.149 HD 
DOCKED: BRANCH  35  39
DOCKED: ATOM     39  C11 UNL     1      13.407  -2.046  -7.898 +0.00 +0.00    +0.129 C  
DOCKED: BRANCH  39  40
DOCKED: ATOM     40  C10 UNL     1      12.007  -2.571  -7.516 +0.00 +0.00    +0.143 C  
DOCKED: BRANCH  40  41
DOCKED: ATOM     41  O3  UNL     1      11.429  -1.983  -6.350 +0.00 -0.00    -0.389 OA 
DOCKED: ATOM     42  H20 UNL     1      11.953  -2.297  -5.584 +0.00 +0.00    +0.210 HD 
DOCKED: ENDBRANCH  40  41
DOCKED: BRANCH  40  43
DOCKED: ATOM     43  C5  UNL     1      11.842  -4.115  -7.465 +0.00 +0.00    +0.102 C  
DOCKED: BRANCH  43  44
DOCKED: ATOM     44  N1  UNL     1      11.428  -4.458  -6.098 +0.00 -0.00    -0.309 N  
DOCKED: ATOM     45  C6  UNL     1      10.128  -4.709  -5.748 +0.00 +0.00    +0.231 C  
DOCKED: ATOM     46  O1  UNL     1       9.256  -5.004  -6.568 +0.00 -0.00    -0.274 OA 
DOCKED: ATOM     47  H11 UNL     1      12.109  -4.307  -5.359 +0.00 +0.00    +0.149 HD 
DOCKED: BRANCH  45  48
DOCKED: ATOM     48  C7  UNL     1       9.837  -4.704  -4.232 +0.00 +0.00    +0.146 C  
DOCKED: BRANCH  48  49
DOCKED: ATOM     49  N2  UNL     1      11.111  -4.450  -3.505 +0.00 -0.00    -0.320 NA 
DOCKED: ATOM     50  H13 UNL     1      11.447  -3.514  -3.735 +0.00 +0.00    +0.119 HD 
DOCKED: ATOM     51  H14 UNL     1      10.891  -4.426  -2.507 +0.00 +0.00    +0.119 HD 
DOCKED: ENDBRANCH  48  49
DOCKED: BRANCH  48  52
DOCKED: ATOM     52  C8  UNL     1       8.756  -3.703  -3.811 +0.00 +0.00    +0.123 C  
DOCKED: BRANCH  52  53
DOCKED: ATOM     53  C9  UNL     1       8.985  -2.372  -4.508 +0.00 +0.00    +0.212 C  
DOCKED: ATOM     54  N3  UNL     1      10.156  -1.734  -4.209 +0.00 -0.00    -0.329 N  
DOCKED: ATOM     55  O2  UNL     1       8.184  -1.860  -5.286 +0.00 -0.00    -0.276 OA 
DOCKED: ATOM     56  H17 UNL     1      10.335  -0.929  -4.803 +0.00 +0.00    +0.145 HD 
DOCKED: ATOM     57  H18 UNL     1      10.994  -2.313  -4.097 +0.00 +0.00    +0.145 HD 
DOCKED: ENDBRANCH  52  53
DOCKED: ENDBRANCH  48  52
DOCKED: ENDBRANCH  45  48
DOCKED: ENDBRANCH  43  44
DOCKED: BRANCH  43  58
DOCKED: ATOM     58  C4  UNL     1      13.107  -4.934  -7.802 +0.00 +0.00    +0.028 C  
DOCKED: BRANCH  58  60
DOCKED: ATOM     59  C1  UNL     1      12.418  -7.326  -7.307 +0.00 +0.00    +0.007 C  
DOCKED: ATOM     60  C2  UNL     1      13.295  -6.148  -6.871 +0.00 -0.00    -0.015 C  
DOCKED: ATOM     61  C3  UNL     1      14.761  -6.583  -6.851 +0.00 +0.00    +0.007 C  
DOCKED: ENDBRANCH  58  60
DOCKED: ENDBRANCH  43  58
DOCKED: ENDBRANCH  40  43
DOCKED: ENDBRANCH  39  40
DOCKED: ENDBRANCH  35  39
DOCKED: ENDBRANCH  34  37
DOCKED: BRANCH  34  62
DOCKED: ATOM     62  C32 UNL     1      13.312   2.022  -6.122 +0.00 +0.00    +0.012 C  
DOCKED: ATOM     63  C33 UNL     1      14.082   3.220  -5.539 +0.00 +0.00    +0.009 C  
DOCKED: ATOM     64  C34 UNL     1      11.840   2.444  -6.208 +0.00 +0.00    +0.009 C  
DOCKED: ENDBRANCH  34  62
DOCKED: ENDBRANCH   1  34
DOCKED: TORSDOF 27
DOCKED: TER
DOCKED: ENDMDL
________________________________________________________________________________


    FINAL DOCKED STATE:
    ________________________


Run:   20 / 20
Time taken for this run:   4.058s

DOCKED: MODEL        20
DOCKED: USER    Run = 20
DOCKED: USER
DOCKED: USER    Estimated Free Energy of Binding    =  +8.05 kcal/mol  [=(1)+(2)+(3)-(4)]
DOCKED: USER
DOCKED: USER    (1) Final Intermolecular Energy     =  +0.00 kcal/mol
DOCKED: USER        vdW + Hbond + desolv Energy     =  +0.00 kcal/mol
DOCKED: USER        Electrostatic Energy            =  +0.00 kcal/mol
DOCKED: USER        Moving Ligand-Fixed Receptor    =  +0.00 kcal/mol
DOCKED: USER        Moving Ligand-Moving Receptor   =  +0.00 kcal/mol
DOCKED: USER    (2) Final Total Internal Energy     = -25.77 kcal/mol
DOCKED: USER    (3) Torsional Free Energy           =  +8.05 kcal/mol
DOCKED: USER    (4) Unbound System's Energy         = -25.77 kcal/mol
DOCKED: USER
DOCKED: USER
DOCKED: REMARK  Name = ligands/ligand_32.pdb
DOCKED: REMARK  32 active torsions:
DOCKED: REMARK  status: ('A' for Active; 'I' for Inactive)
DOCKED: REMARK    1  A    between atoms: C1_1  and  C2_2
DOCKED: REMARK    2  A    between atoms: C2_2  and  C3_3
DOCKED: REMARK    3  A    between atoms: C2_2  and  C4_4
DOCKED: REMARK    4  A    between atoms: C4_4  and  C5_5
DOCKED: REMARK    5  A    between atoms: C5_5  and  N1_6
DOCKED: REMARK    6  A    between atoms: C5_5  and  C10_15
DOCKED: REMARK    7  A    between atoms: C6_7  and  C7_9
DOCKED: REMARK    8  A    between atoms: C7_9  and  N2_10
DOCKED: REMARK    9  A    between atoms: C7_9  and  C8_11
DOCKED: REMARK   10  A    between atoms: C8_11  and  C9_12
DOCKED: REMARK   11  A    between atoms: C10_15  and  O3_16
DOCKED: REMARK   12  A    between atoms: C10_15  and  C11_17
DOCKED: REMARK   13  A    between atoms: C11_17  and  C12_18
DOCKED: REMARK   14  A    between atoms: N4_20  and  C13_21
DOCKED: REMARK   15  A    between atoms: C13_21  and  C14_22
DOCKED: REMARK   16  A    between atoms: C13_21  and  C32_50
DOCKED: REMARK   17  A    between atoms: N5_24  and  C15_25
DOCKED: REMARK   18  A    between atoms: C15_25  and  C16_26
DOCKED: REMARK   19  A    between atoms: C15_25  and  C17_27
DOCKED: REMARK   20  A    between atoms: N6_29  and  C18_30
DOCKED: REMARK   21  A    between atoms: C18_30  and  C19_31
DOCKED: REMARK   22  A    between atoms: C18_30  and  C22_36
DOCKED: REMARK   23  A    between atoms: C19_31  and  C20_32
DOCKED: REMARK   24  A    between atoms: C20_32  and  C21_33
DOCKED: REMARK   25  A    between atoms: C21_33  and  O8_35
DOCKED: REMARK   26  A    between atoms: N7_38  and  C23_39
DOCKED: REMARK   27  A    between atoms: C23_39  and  C24_40
DOCKED: REMARK   28  A    between atoms: C23_39  and  C31_47
DOCKED: REMARK   29  A    between atoms: C24_40  and  C25_41
DOCKED: REMARK   30  A    between atoms: C31_47  and  O11_49
DOCKED: REMARK   31  A    between atoms: C32_50  and  C33_51
DOCKED: REMARK   32  A    between atoms: C32_50  and  C34_52
DOCKED: REMARK                            x       y       z     vdW  Elec       q    Type
DOCKED: REMARK                         _______ _______ _______ _____ _____    ______ ____
DOCKED: USER                              x       y       z     vdW  Elec       q    Type
DOCKED: USER                           _______ _______ _______ _____ _____    ______ ____
DOCKED: ROOT
DOCKED: ATOM      1  C14 UNL     1       7.001  -1.480   2.547 +0.00 +0.00    +0.234 C  
DOCKED: ATOM      2  O5  UNL     1       6.377  -2.246   3.279 +0.00 -0.00    -0.274 OA 
DOCKED: ATOM      3  N5  UNL     1       7.340  -0.193   2.917 +0.00 -0.00    -0.303 N  
DOCKED: ATOM      4  H25 UNL     1       8.081   0.237   2.362 +0.00 +0.00    +0.149 HD 
DOCKED: ENDROOT
DOCKED: BRANCH   3   5
DOCKED: ATOM      5  C15 UNL     1       7.241   0.303   4.288 +0.00 +0.00    +0.156 C  
DOCKED: ATOM      6  C16 UNL     1       5.838   0.203   4.900 +0.00 +0.00    +0.038 C  
DOCKED: BRANCH   5   7
DOCKED: ATOM      7  C17 UNL     1       8.348  -0.355   5.142 +0.00 +0.00    +0.234 C  
DOCKED: ATOM      8  O6  UNL     1       9.411   0.219   5.390 +0.00 -0.00    -0.274 OA 
DOCKED: ATOM      9  N6  UNL     1       8.041  -1.578   5.693 +0.00 -0.00    -0.302 N  
DOCKED: ATOM     10  H30 UNL     1       7.299  -2.105   5.237 +0.00 +0.00    +0.150 HD 
DOCKED: BRANCH   9  11
DOCKED: ATOM     11  C18 UNL     1       9.074  -2.419   6.286 +0.00 +0.00    +0.159 C  
DOCKED: BRANCH  11  12
DOCKED: ATOM     12  C22 UNL     1       9.398  -3.537   5.290 +0.00 +0.00    +0.234 C  
DOCKED: ATOM     13  O9  UNL     1      10.519  -4.043   5.223 +0.00 -0.00    -0.274 OA 
DOCKED: ATOM     14  N7  UNL     1       8.361  -3.879   4.447 +0.00 -0.00    -0.301 N  
DOCKED: ATOM     15  H37 UNL     1       7.422  -3.553   4.662 +0.00 +0.00    +0.150 HD 
DOCKED: BRANCH  14  16
DOCKED: ATOM     16  C23 UNL     1       8.505  -4.955   3.457 +0.00 +0.00    +0.186 C  
DOCKED: BRANCH  16  17
DOCKED: ATOM     17  C31 UNL     1       7.177  -5.090   2.728 +0.00 +0.00    +0.326 C  
DOCKED: ATOM     18  O10 UNL     1       6.987  -5.661   1.664 +0.00 -0.00    -0.249 OA 
DOCKED: BRANCH  17  19
DOCKED: ATOM     19  O11 UNL     1       6.135  -4.612   3.427 +0.00 -0.00    -0.479 OA 
DOCKED: ATOM     20  H46 UNL     1       6.436  -4.660   4.353 +0.00 +0.00    +0.295 HD 
DOCKED: ENDBRANCH  17  19
DOCKED: ENDBRANCH  16  17
DOCKED: BRANCH  16  21
DOCKED: ATOM     21  C24 UNL     1       8.848  -6.293   4.126 +0.00 +0.00    +0.069 C  
DOCKED: BRANCH  21  22
DOCKED: ATOM     22  C25 UNL     1       7.818  -7.365   3.871 +0.00 -0.00    -0.045 A  
DOCKED: ATOM     23  C26 UNL     1       7.961  -8.209   2.761 +0.00 +0.00    +0.004 A  
DOCKED: ATOM     24  C27 UNL     1       7.026  -9.210   2.506 +0.00 +0.00    +0.000 A  
DOCKED: ATOM     25  C28 UNL     1       5.945  -9.388   3.371 +0.00 +0.00    +0.000 A  
DOCKED: ATOM     26  C29 UNL     1       5.783  -8.544   4.465 +0.00 +0.00    +0.000 A  
DOCKED: ATOM     27  C30 UNL     1       6.713  -7.527   4.710 +0.00 +0.00    +0.004 A  
DOCKED: ENDBRANCH  21  22
DOCKED: ENDBRANCH  16  21
DOCKED: ENDBRANCH  14  16
DOCKED: ENDBRANCH  11  12
DOCKED: BRANCH  11  28
DOCKED: ATOM     28  C19 UNL     1       8.599  -3.048   7.600 +0.00 +0.00    +0.043 C  
DOCKED: BRANCH  28  29
DOCKED: ATOM     29  C20 UNL     1       7.074  -3.131   7.700 +0.00 +0.00    +0.123 C  
DOCKED: BRANCH  29  30
DOCKED: ATOM     30  C21 UNL     1       6.486  -3.908   6.549 +0.00 +0.00    +0.305 C  
DOCKED: ATOM     31  O7  UNL     1       6.757  -5.054   6.238 +0.00 -0.00    -0.251 OA 
DOCKED: BRANCH  30  32
DOCKED: ATOM     32  O8  UNL     1       5.632  -3.168   5.821 +0.00 -0.00    -0.481 OA 
DOCKED: ATOM     33  H36 UNL     1       5.678  -3.532   4.914 +0.00 +0.00    +0.295 HD 
DOCKED: ENDBRANCH  30  32
DOCKED: ENDBRANCH  29  30
DOCKED: ENDBRANCH  28  29
DOCKED: ENDBRANCH  11  28
DOCKED: ENDBRANCH   9  11
DOCKED: ENDBRANCH   5   7
DOCKED: ENDBRANCH   3   5
DOCKED: BRANCH   1  34
DOCKED: ATOM     34  C13 UNL     1       7.548  -1.929   1.167 +0.00 +0.00    +0.161 C  
DOCKED: BRANCH  34  37
DOCKED: ATOM     35  C12 UNL     1       6.281  -3.394  -0.484 +0.00 +0.00    +0.216 C  
DOCKED: ATOM     36  O4  UNL     1       6.587  -2.791  -1.495 +0.00 -0.00    -0.276 OA 
DOCKED: ATOM     37  N4  UNL     1       6.799  -3.146   0.783 +0.00 -0.00    -0.304 N  
DOCKED: ATOM     38  H23 UNL     1       6.262  -3.534   1.555 +0.00 +0.00    +0.149 HD 
DOCKED: BRANCH  35  39
DOCKED: ATOM     39  C11 UNL     1       5.373  -4.601  -0.491 +0.00 +0.00    +0.129 C  
DOCKED: BRANCH  39  40
DOCKED: ATOM     40  C10 UNL     1       4.255  -4.649   0.571 +0.00 +0.00    +0.143 C  
DOCKED: BRANCH  40  41
DOCKED: ATOM     41  O3  UNL     1       4.396  -3.727   1.652 +0.00 -0.00    -0.389 OA 
DOCKED: ATOM     42  H20 UNL     1       5.171  -4.020   2.175 +0.00 +0.00    +0.210 HD 
DOCKED: ENDBRANCH  40  41
DOCKED: BRANCH  40  43
DOCKED: ATOM     43  C5  UNL     1       3.891  -6.056   1.121 +0.00 +0.00    +0.102 C  
DOCKED: BRANCH  43  44
DOCKED: ATOM     44  N1  UNL     1       3.906  -5.960   2.587 +0.00 -0.00    -0.309 N  
DOCKED: ATOM     45  C6  UNL     1       2.774  -5.800   3.341 +0.00 +0.00    +0.231 C  
DOCKED: ATOM     46  O1  UNL     1       1.645  -6.059   2.921 +0.00 -0.00    -0.274 OA 
DOCKED: ATOM     47  H11 UNL     1       4.808  -5.811   3.029 +0.00 +0.00    +0.149 HD 
DOCKED: BRANCH  45  48
DOCKED: ATOM     48  C7  UNL     1       3.007  -5.373   4.806 +0.00 +0.00    +0.146 C  
DOCKED: BRANCH  48  49
DOCKED: ATOM     49  N2  UNL     1       4.473  -5.354   5.066 +0.00 -0.00    -0.320 NA 
DOCKED: ATOM     50  H13 UNL     1       4.907  -4.633   4.489 +0.00 +0.00    +0.119 HD 
DOCKED: ATOM     51  H14 UNL     1       4.605  -5.049   6.033 +0.00 +0.00    +0.119 HD 
DOCKED: ENDBRANCH  48  49
DOCKED: BRANCH  48  52
DOCKED: ATOM     52  C8  UNL     1       2.368  -4.030   5.169 +0.00 +0.00    +0.123 C  
DOCKED: BRANCH  52  53
DOCKED: ATOM     53  C9  UNL     1       2.647  -3.012   4.076 +0.00 +0.00    +0.212 C  
DOCKED: ATOM     54  N3  UNL     1       3.963  -2.716   3.856 +0.00 -0.00    -0.329 N  
DOCKED: ATOM     55  O2  UNL     1       1.771  -2.455   3.418 +0.00 -0.00    -0.276 OA 
DOCKED: ATOM     56  H17 UNL     1       4.111  -2.149   3.025 +0.00 +0.00    +0.145 HD 
DOCKED: ATOM     57  H18 UNL     1       4.636  -3.486   3.911 +0.00 +0.00    +0.145 HD 
DOCKED: ENDBRANCH  52  53
DOCKED: ENDBRANCH  48  52
DOCKED: ENDBRANCH  45  48
DOCKED: ENDBRANCH  43  44
DOCKED: BRANCH  43  58
DOCKED: ATOM     58  C4  UNL     1       4.837  -7.203   0.706 +0.00 +0.00    +0.028 C  
DOCKED: BRANCH  58  60
DOCKED: ATOM     59  C1  UNL     1       2.973  -8.751   1.459 +0.00 +0.00    +0.007 C  
DOCKED: ATOM     60  C2  UNL     1       4.090  -8.524   0.436 +0.00 -0.00    -0.015 C  
DOCKED: ATOM     61  C3  UNL     1       3.499  -8.524  -0.975 +0.00 +0.00    +0.007 C  
DOCKED: ENDBRANCH  58  60
DOCKED: ENDBRANCH  43  58
DOCKED: ENDBRANCH  40  43
DOCKED: ENDBRANCH  39  40
DOCKED: ENDBRANCH  35  39
DOCKED: ENDBRANCH  34  37
DOCKED: BRANCH  34  62
DOCKED: ATOM     62  C32 UNL     1       7.638  -0.827   0.084 +0.00 +0.00    +0.012 C  
DOCKED: ATOM     63  C33 UNL     1       8.929  -0.005   0.241 +0.00 +0.00    +0.009 C  
DOCKED: ATOM     64  C34 UNL     1       6.475   0.173   0.100 +0.00 +0.00    +0.009 C  
DOCKED: ENDBRANCH  34  62
DOCKED: ENDBRANCH   1  34
DOCKED: TORSDOF 27
DOCKED: TER
DOCKED: ENDMDL
________________________________________________________________________________


    CLUSTERING HISTOGRAM
    ____________________


________________________________________________________________________________
     |           |     |           |     |
Clus | Lowest    | Run | Mean      | Num | Histogram
-ter | Binding   |     | Binding   | in  |
Rank | Energy    |     | Energy    | Clus|    5    10   15   20   25   30   35
_____|___________|_____|___________|_____|____:____|____:____|____:____|____:___
   1 |     +8.05 |   1 |     +8.05 |   1 |#
   2 |     +8.05 |   2 |     +8.05 |   1 |#
   3 |     +8.05 |   3 |     +8.05 |   1 |#
   4 |     +8.05 |   4 |     +8.05 |   1 |#
   5 |     +8.05 |   5 |     +8.05 |   1 |#
   6 |     +8.05 |   6 |     +8.05 |   1 |#
   7 |     +8.05 |   7 |     +8.05 |   1 |#
   8 |     +8.05 |   8 |     +8.05 |   1 |#
   9 |     +8.05 |   9 |     +8.05 |   1 |#
  10 |     +8.05 |  10 |     +8.05 |   1 |#
  11 |     +8.05 |  11 |     +8.05 |   1 |#
  12 |     +8.05 |  12 |     +8.05 |   1 |#
  13 |     +8.05 |  13 |     +8.05 |   1 |#
  14 |     +8.05 |  14 |     +8.05 |   1 |#
  15 |     +8.05 |  15 |     +8.05 |   1 |#
  16 |     +8.05 |  16 |     +8.05 |   1 |#
  17 |     +8.05 |  17 |     +8.05 |   1 |#
  18 |     +8.05 |  18 |     +8.05 |   1 |#
  19 |     +8.05 |  19 |     +8.05 |   1 |#
  20 |     +8.05 |  20 |     +8.05 |   1 |#
_____|___________|_____|___________|_____|______________________________________


    RMSD TABLE
    __________


_______________________________________________________________________
     |      |      |           |         |                 |
Rank | Sub- | Run  | Binding   | Cluster | Reference       | Grep
     | Rank |      | Energy    | RMSD    | RMSD            | Pattern
_____|______|______|___________|_________|_________________|___________
   1      1      1       +8.05      0.00      8.19           RANKING
   2      1      2       +8.05      0.00      6.84           RANKING
   3      1      3       +8.05      0.00      7.88           RANKING
   4      1      4       +8.05      0.00      9.26           RANKING
   5      1      5       +8.05      0.00      6.64           RANKING
   6      1      6       +8.05      0.00      8.62           RANKING
   7      1      7       +8.05      0.00     10.29           RANKING
   8      1      8       +8.05      0.00      7.22           RANKING
   9      1      9       +8.05      0.00     11.33           RANKING
  10      1     10       +8.05      0.00     14.60           RANKING
  11      1     11       +8.05      0.00     11.00           RANKING
  12      1     12       +8.05      0.00      9.96           RANKING
  13      1     13       +8.05      0.00     12.91           RANKING
  14      1     14       +8.05      0.00      8.81           RANKING
  15      1     15       +8.05      0.00      9.65           RANKING
  16      1     16       +8.05      0.00     15.88           RANKING
  17      1     17       +8.05      0.00     13.87           RANKING
  18      1     18       +8.05      0.00     12.11           RANKING
  19      1     19       +8.05      0.00     11.27           RANKING
  20      1     20       +8.05      0.00      7.12           RANKING

Run time 81.848 sec
Idle time 0.298 sec
