REMARK  Name = ligands/ligand_14.pdb
REMARK  29 active torsions:
REMARK  status: ('A' for Active; 'I' for Inactive)
REMARK    1  A    between atoms: C1_1  and  C2_2
REMARK    2  A    between atoms: C2_2  and  C3_3
REMARK    3  A    between atoms: C3_3  and  C4_4
REMARK    4  A    between atoms: C3_3  and  C5_5
REMARK    5  A    between atoms: C5_5  and  O1_6
REMARK    6  A    between atoms: C5_5  and  C6_7
REMARK    7  A    between atoms: N1_9  and  C7_10
REMARK    8  A    between atoms: C7_10  and  C8_11
REMARK    9  A    between atoms: C7_10  and  C11_16
REMARK   10  A    between atoms: C8_11  and  C9_12
REMARK   11  A    between atoms: C9_12  and  C10_13
REMARK   12  A    between atoms: N2_18  and  C12_19
REMARK   13  A    between atoms: C12_19  and  C13_20
REMARK   14  A    between atoms: C12_19  and  C20_27
REMARK   15  A    between atoms: C13_20  and  C14_21
REMARK   16  A    between atoms: C20_27  and  O4_28
REMARK   17  A    between atoms: C20_27  and  C21_29
REMARK   18  A    between atoms: C21_29  and  C22_30
REMARK   19  A    between atoms: C22_30  and  C23_31
REMARK   20  A    between atoms: C22_30  and  C26_36
REMARK   21  A    between atoms: C23_31  and  C24_32
REMARK   22  A    between atoms: C24_32  and  C25_33
REMARK   23  A    between atoms: N3_38  and  C27_39
REMARK   24  A    between atoms: C27_39  and  C28_40
REMARK   25  A    between atoms: C27_39  and  C35_50
REMARK   26  A    between atoms: N4_42  and  C29_43
REMARK   27  A    between atoms: C29_43  and  C30_44
REMARK   28  A    between atoms: C35_50  and  C36_51
REMARK   29  A    between atoms: C35_50  and  C37_52
REMARK                            x       y       z     vdW  Elec       q    Type
REMARK                         _______ _______ _______ _____ _____    ______ ____
ROOT
ATOM      1  C12 UNL     1       1.724  -1.328  -2.063  0.00  0.00    +0.106 C 
ENDROOT
BRANCH   1   4
ATOM      2  C11 UNL     1       3.740  -0.028  -1.348  0.00  0.00    +0.234 C 
ATOM      3  O3  UNL     1       4.472  -0.549  -2.185  0.00  0.00    -0.274 OA
ATOM      4  N2  UNL     1       2.409  -0.347  -1.218  0.00  0.00    -0.308 N 
ATOM      5  H19 UNL     1       1.906  -0.013  -0.391  0.00  0.00    +0.149 HD
BRANCH   2   6
ATOM      6  C7  UNL     1       4.230   1.009  -0.313  0.00  0.00    +0.159 C 
BRANCH   6   9
ATOM      7  C6  UNL     1       3.349   0.057   1.803  0.00  0.00    +0.243 C 
ATOM      8  O2  UNL     1       2.202   0.434   1.582  0.00  0.00    -0.273 OA
ATOM      9  N1  UNL     1       4.410   0.323   0.966  0.00  0.00    -0.302 N 
ATOM     10  H12 UNL     1       5.218  -0.283   1.083  0.00  0.00    +0.150 HD
BRANCH   7  11
ATOM     11  C5  UNL     1       3.734  -0.757   3.049  0.00  0.00    +0.203 C 
BRANCH  11  12
ATOM     12  C3  UNL     1       4.424   0.120   4.114  0.00  0.00    +0.023 C 
ATOM     13  C4  UNL     1       3.477   1.207   4.634  0.00  0.00    +0.010 C 
BRANCH  12  15
ATOM     14  C1  UNL     1       4.013  -1.540   6.058  0.00  0.00    +0.004 C 
ATOM     15  C2  UNL     1       5.019  -0.704   5.279  0.00  0.00    +0.003 C 
ENDBRANCH  12  15
ENDBRANCH  11  12
BRANCH  11  16
ATOM     16  O1  UNL     1       4.627  -1.801   2.639  0.00  0.00    -0.382 OA
ATOM     17  H11 UNL     1       4.093  -2.444   2.134  0.00  0.00    +0.210 HD
ENDBRANCH  11  16
ENDBRANCH   7  11
ENDBRANCH   6   9
BRANCH   6  18
ATOM     18  C8  UNL     1       5.558   1.659  -0.726  0.00  0.00    +0.037 C 
BRANCH  18  19
ATOM     19  C9  UNL     1       5.539   2.453  -2.040  0.00  0.00    +0.074 C 
BRANCH  19  20
ATOM     20  C10 UNL     1       4.507   3.562  -2.089  0.00  0.00    +0.341 C 
ATOM     21  F1  UNL     1       4.628   4.349  -0.992  0.00  0.00    -0.209 F 
ATOM     22  F2  UNL     1       3.256   3.040  -2.071  0.00  0.00    -0.209 F 
ENDBRANCH  19  20
ENDBRANCH  18  19
ENDBRANCH   6  18
ENDBRANCH   2   6
ENDBRANCH   1   4
BRANCH   1  23
ATOM     23  C13 UNL     1       1.967  -2.746  -1.499  0.00  0.00    +0.060 C 
BRANCH  23  24
ATOM     24  C14 UNL     1       1.555  -3.850  -2.440  0.00  0.00    -0.046 A 
ATOM     25  C15 UNL     1       0.327  -4.504  -2.277  0.00  0.00    +0.004 A 
ATOM     26  C16 UNL     1      -0.061  -5.510  -3.163  0.00  0.00    +0.000 A 
ATOM     27  C17 UNL     1       0.775  -5.876  -4.214  0.00  0.00    +0.000 A 
ATOM     28  C18 UNL     1       2.002  -5.233  -4.383  0.00  0.00    +0.000 A 
ATOM     29  C19 UNL     1       2.392  -4.226  -3.501  0.00  0.00    +0.004 A 
ENDBRANCH  23  24
ENDBRANCH   1  23
BRANCH   1  30
ATOM     30  C20 UNL     1       0.213  -0.970  -2.155  0.00  0.00    +0.136 C 
BRANCH  30  31
ATOM     31  O4  UNL     1      -0.341  -1.051  -0.839  0.00  0.00    -0.390 OA
ATOM     32  H29 UNL     1      -1.257  -0.726  -0.858  0.00  0.00    +0.210 HD
ENDBRANCH  30  31
BRANCH  30  33
ATOM     33  C21 UNL     1       0.018   0.435  -2.768  0.00  0.00    +0.046 C 
BRANCH  33  34
ATOM     34  C22 UNL     1      -1.428   0.854  -3.111  0.00  0.00    +0.078 C 
BRANCH  34  35
ATOM     35  C26 UNL     1      -2.162   1.270  -1.832  0.00  0.00    +0.217 C 
ATOM     36  O5  UNL     1      -1.955   2.358  -1.301  0.00  0.00    -0.275 OA
ATOM     37  N3  UNL     1      -2.959   0.317  -1.248  0.00  0.00    -0.304 N 
ATOM     38  H38 UNL     1      -3.325  -0.462  -1.791  0.00  0.00    +0.149 HD
BRANCH  37  39
ATOM     39  C27 UNL     1      -3.650   0.549   0.027  0.00  0.00    +0.161 C 
BRANCH  39  40
ATOM     40  C28 UNL     1      -4.136  -0.842   0.489  0.00  0.00    +0.234 C 
ATOM     41  O6  UNL     1      -4.364  -1.744  -0.321  0.00  0.00    -0.274 OA
ATOM     42  N4  UNL     1      -4.318  -0.985   1.842  0.00  0.00    -0.310 N 
ATOM     43  H40 UNL     1      -4.080  -0.225   2.469  0.00  0.00    +0.149 HD
BRANCH  42  44
ATOM     44  C29 UNL     1      -4.840  -2.199   2.430  0.00  0.00    +0.139 C 
BRANCH  44  45
ATOM     45  C30 UNL     1      -6.116  -1.913   3.174  0.00  0.00    -0.027 A 
ATOM     46  C31 UNL     1      -6.195  -2.063   4.561  0.00  0.00    +0.025 A 
ATOM     47  C32 UNL     1      -7.395  -1.770   5.189  0.00  0.00    +0.111 A 
ATOM     48  N5  UNL     1      -8.501  -1.340   4.541  0.00  0.00    -0.263 NA
ATOM     49  C33 UNL     1      -8.407  -1.208   3.201  0.00  0.00    +0.111 A 
ATOM     50  C34 UNL     1      -7.256  -1.485   2.483  0.00  0.00    +0.025 A 
ENDBRANCH  44  45
ENDBRANCH  42  44
ENDBRANCH  39  40
BRANCH  39  51
ATOM     51  C35 UNL     1      -4.791   1.589  -0.091  0.00  0.00    +0.012 C 
ATOM     52  C36 UNL     1      -5.335   2.020   1.275  0.00  0.00    +0.009 C 
ATOM     53  C37 UNL     1      -5.943   1.120  -0.987  0.00  0.00    +0.009 C 
ENDBRANCH  39  51
ENDBRANCH  37  39
ENDBRANCH  34  35
BRANCH  34  54
ATOM     54  C23 UNL     1      -2.201  -0.140  -3.997  0.00  0.00    +0.018 C 
BRANCH  54  55
ATOM     55  C24 UNL     1      -1.576  -0.463  -5.364  0.00  0.00    +0.073 C 
BRANCH  55  56
ATOM     56  C25 UNL     1      -1.465   0.725  -6.304  0.00  0.00    +0.341 C 
ATOM     57  F3  UNL     1      -2.653   1.377  -6.372  0.00  0.00    -0.209 F 
ATOM     58  F4  UNL     1      -0.549   1.609  -5.844  0.00  0.00    -0.209 F 
ENDBRANCH  55  56
ENDBRANCH  54  55
ENDBRANCH  34  54
ENDBRANCH  33  34
ENDBRANCH  30  33
ENDBRANCH   1  30
TORSDOF 25
