REMARK  Name = ligands/ligand_11.pdb
REMARK  29 active torsions:
REMARK  status: ('A' for Active; 'I' for Inactive)
REMARK    1  A    between atoms: C1_1  and  C2_2
REMARK    2  A    between atoms: C2_2  and  C3_3
REMARK    3  A    between atoms: C3_3  and  C4_4
REMARK    4  A    between atoms: C4_4  and  N1_5
REMARK    5  A    between atoms: C4_4  and  C10_13
REMARK    6  A    between atoms: C5_6  and  O2_8
REMARK    7  A    between atoms: O2_8  and  C6_9
REMARK    8  A    between atoms: C6_9  and  C7_10
REMARK    9  A    between atoms: C6_9  and  C8_11
REMARK   10  A    between atoms: C6_9  and  C9_12
REMARK   11  A    between atoms: N2_15  and  C11_16
REMARK   12  A    between atoms: C11_16  and  C12_17
REMARK   13  A    between atoms: C11_16  and  C13_18
REMARK   14  A    between atoms: N3_20  and  C14_21
REMARK   15  A    between atoms: C14_21  and  C15_22
REMARK   16  A    between atoms: C14_21  and  C22_29
REMARK   17  A    between atoms: C15_22  and  C16_23
REMARK   18  A    between atoms: C22_29  and  O5_30
REMARK   19  A    between atoms: C22_29  and  C23_31
REMARK   20  A    between atoms: C23_31  and  C24_32
REMARK   21  A    between atoms: C24_32  and  C25_33
REMARK   22  A    between atoms: C24_32  and  C26_34
REMARK   23  A    between atoms: N4_36  and  C27_37
REMARK   24  A    between atoms: C27_37  and  C28_38
REMARK   25  A    between atoms: C27_37  and  C35_48
REMARK   26  A    between atoms: N5_40  and  C29_41
REMARK   27  A    between atoms: C29_41  and  C30_42
REMARK   28  A    between atoms: C35_48  and  C36_49
REMARK   29  A    between atoms: C35_48  and  C37_50
REMARK                            x       y       z     vdW  Elec       q    Type
REMARK                         _______ _______ _______ _____ _____    ______ ____
ROOT
ATOM      1  C14 UNL     1      -1.932  -1.830  -1.991  0.00  0.00    +0.106 C 
ENDROOT
BRANCH   1   4
ATOM      2  C13 UNL     1       0.519  -1.525  -1.674  0.00  0.00    +0.233 C 
ATOM      3  O4  UNL     1       0.805  -2.183  -2.674  0.00  0.00    -0.274 OA
ATOM      4  N3  UNL     1      -0.778  -1.258  -1.300  0.00  0.00    -0.308 N 
ATOM      5  H24 UNL     1      -0.943  -0.681  -0.483  0.00  0.00    +0.149 HD
BRANCH   2   6
ATOM      6  C11 UNL     1       1.596  -0.898  -0.770  0.00  0.00    +0.156 C 
ATOM      7  C12 UNL     1       2.041   0.444  -1.331  0.00  0.00    +0.038 C 
BRANCH   6  10
ATOM      8  C10 UNL     1       2.860  -2.702   0.331  0.00  0.00    +0.234 C 
ATOM      9  O3  UNL     1       2.183  -2.631   1.358  0.00  0.00    -0.274 OA
ATOM     10  N2  UNL     1       2.713  -1.832  -0.728  0.00  0.00    -0.303 N 
ATOM     11  H19 UNL     1       3.066  -2.131  -1.630  0.00  0.00    +0.149 HD
BRANCH   8  12
ATOM     12  C4  UNL     1       3.915  -3.804   0.108  0.00  0.00    +0.162 C 
BRANCH  12  13
ATOM     13  N1  UNL     1       4.416  -4.209   1.410  0.00  0.00    -0.270 N 
ATOM     14  C5  UNL     1       5.420  -3.502   2.001  0.00  0.00    +0.401 C 
ATOM     15  O1  UNL     1       6.161  -2.728   1.422  0.00  0.00    -0.226 OA
ATOM     16  H9  UNL     1       3.733  -4.537   2.081  0.00  0.00    +0.153 HD
BRANCH  14  17
ATOM     17  O2  UNL     1       5.428  -3.782   3.323  0.00  0.00    -0.445 OA
BRANCH  17  18
ATOM     18  C6  UNL     1       6.353  -3.109   4.215  0.00  0.00    +0.107 C 
ATOM     19  C7  UNL     1       6.087  -1.598   4.248  0.00  0.00    +0.055 C 
ATOM     20  C8  UNL     1       7.810  -3.422   3.854  0.00  0.00    +0.055 C 
ATOM     21  C9  UNL     1       6.056  -3.697   5.602  0.00  0.00    +0.055 C 
ENDBRANCH  17  18
ENDBRANCH  14  17
ENDBRANCH  12  13
BRANCH  12  22
ATOM     22  C3  UNL     1       3.268  -4.977  -0.634  0.00  0.00    +0.031 C 
BRANCH  22  24
ATOM     23  C1  UNL     1       3.632  -7.173  -1.822  0.00  0.00    +0.004 C 
ATOM     24  C2  UNL     1       4.296  -6.011  -1.097  0.00  0.00    -0.001 C 
ENDBRANCH  22  24
ENDBRANCH  12  22
ENDBRANCH   8  12
ENDBRANCH   6  10
ENDBRANCH   2   6
ENDBRANCH   1   4
BRANCH   1  25
ATOM     25  C15 UNL     1      -3.135  -1.983  -1.027  0.00  0.00    +0.060 C 
BRANCH  25  26
ATOM     26  C16 UNL     1      -2.941  -3.138  -0.063  0.00  0.00    -0.046 A 
ATOM     27  C17 UNL     1      -3.333  -4.434  -0.427  0.00  0.00    +0.004 A 
ATOM     28  C18 UNL     1      -3.119  -5.509   0.438  0.00  0.00    +0.000 A 
ATOM     29  C19 UNL     1      -2.510  -5.300   1.673  0.00  0.00    +0.000 A 
ATOM     30  C20 UNL     1      -2.118  -4.017   2.046  0.00  0.00    +0.000 A 
ATOM     31  C21 UNL     1      -2.333  -2.940   1.184  0.00  0.00    +0.004 A 
ENDBRANCH  25  26
ENDBRANCH   1  25
BRANCH   1  32
ATOM     32  C22 UNL     1      -2.281  -1.059  -3.299  0.00  0.00    +0.136 C 
BRANCH  32  33
ATOM     33  O5  UNL     1      -3.349  -1.735  -3.981  0.00  0.00    -0.390 OA
ATOM     34  H34 UNL     1      -2.994  -2.588  -4.298  0.00  0.00    +0.210 HD
ENDBRANCH  32  33
BRANCH  32  35
ATOM     35  C23 UNL     1      -2.719   0.403  -3.098  0.00  0.00    +0.045 C 
BRANCH  35  36
ATOM     36  C24 UNL     1      -1.535   1.385  -3.122  0.00  0.00    +0.074 C 
ATOM     37  C25 UNL     1      -1.144   1.791  -4.543  0.00  0.00    +0.017 C 
BRANCH  36  38
ATOM     38  C26 UNL     1      -1.830   2.602  -2.259  0.00  0.00    +0.217 C 
ATOM     39  O6  UNL     1      -1.231   2.793  -1.201  0.00  0.00    -0.276 OA
ATOM     40  N4  UNL     1      -2.819   3.435  -2.731  0.00  0.00    -0.304 N 
ATOM     41  H41 UNL     1      -3.509   2.983  -3.320  0.00  0.00    +0.149 HD
BRANCH  40  42
ATOM     42  C27 UNL     1      -3.333   4.504  -1.879  0.00  0.00    +0.161 C 
BRANCH  42  43
ATOM     43  C28 UNL     1      -4.391   3.899  -0.927  0.00  0.00    +0.234 C 
ATOM     44  O7  UNL     1      -4.947   2.825  -1.153  0.00  0.00    -0.274 OA
ATOM     45  N5  UNL     1      -4.679   4.679   0.171  0.00  0.00    -0.310 N 
ATOM     46  H43 UNL     1      -4.086   5.474   0.376  0.00  0.00    +0.149 HD
BRANCH  45  47
ATOM     47  C29 UNL     1      -5.553   4.215   1.227  0.00  0.00    +0.139 C 
BRANCH  47  48
ATOM     48  C30 UNL     1      -4.784   3.929   2.491  0.00  0.00    -0.027 A 
ATOM     49  C31 UNL     1      -5.215   4.443   3.717  0.00  0.00    +0.025 A 
ATOM     50  C32 UNL     1      -4.490   4.138   4.861  0.00  0.00    +0.111 A 
ATOM     51  N6  UNL     1      -3.384   3.366   4.869  0.00  0.00    -0.263 NA
ATOM     52  C33 UNL     1      -2.991   2.868   3.679  0.00  0.00    +0.111 A 
ATOM     53  C34 UNL     1      -3.649   3.110   2.482  0.00  0.00    +0.025 A 
ENDBRANCH  47  48
ENDBRANCH  45  47
ENDBRANCH  42  43
BRANCH  42  54
ATOM     54  C35 UNL     1      -3.913   5.687  -2.689  0.00  0.00    +0.012 C 
ATOM     55  C36 UNL     1      -5.004   5.267  -3.682  0.00  0.00    +0.009 C 
ATOM     56  C37 UNL     1      -2.801   6.443  -3.423  0.00  0.00    +0.009 C 
ENDBRANCH  42  54
ENDBRANCH  40  42
ENDBRANCH  36  38
ENDBRANCH  35  36
ENDBRANCH  32  35
ENDBRANCH   1  32
TORSDOF 21
