AutoDock-GPU version: v1.6

**********************************************************
**    AutoDock-GPU AUTODOCKTOOLS-COMPATIBLE DLG FILE    **
**********************************************************


    DOCKING PARAMETERS
    ________________________


Ligand file:                               ligands/ligand_26.pdbqt
Grid fld file:                             protein.maps.fld

Random seed:                               1770972929, 29172
Number of runs:                            20
Number of energy evaluations:              9755677
Number of generations:                     42000
Size of population:                        150
Rate of crossover:                         80.000000%
Tournament selection probability limit:    60.000000%
Rate of mutation:                          2.000000%
Maximal allowed delta movement:            +/- 6.000000A
Maximal allowed delta angle:               +/- 90.000000

Rate of local search:                      100.000000%
Maximal number of local search iterations: 300
Rho lower bound:                           0.010000
Spread of local search delta movement:     2.000000A
Spread of local search delta angle:        74.999999
Limit of consecutive successes/failures:   4

Handle symmetry during clustering:         YES
RMSD tolerance:                            2.000000A

Program call in command line was:          ./autodock-gpu --ffile protein.maps.fld --lfile ligands/ligand_26.pdbqt --nrun 20 


    GRID PARAMETERS
    ________________________


Receptor name:                             #MACROMOLECULE
Number of grid points (x, y, z):           61, 61, 61
Grid center (x, y, z):                     10.261000, -3.492000, -0.127000A
Grid size (x, y, z):                       22.500000, 22.500000, 22.500000A
Grid spacing:                              0.375000A


    LIGAND PARAMETERS
    ________________________


Ligand name:                               ligands/ligand_26
Number of atoms:                           49
Number of rotatable bonds:                 21
Number of atom types:                      5


    DUMMY DATA (only for ADT-compatibility)
    ________________________


DPF> outlev 1
DPF> ga_run 20
DPF> fld protein.maps.fld
DPF> move ligands/ligand_26.pdbqt


    COUNTER STATES
    ________________________


Number of energy evaluations performed:    5004942
Number of generations used:                180


    INPUT LIGAND PDBQT FILE:
    ________________________


INPUT-LIGAND-PDBQT: REMARK  Name = ligands/ligand_26.pdb
INPUT-LIGAND-PDBQT: REMARK  30 active torsions:
INPUT-LIGAND-PDBQT: REMARK  status: ('A' for Active; 'I' for Inactive)
INPUT-LIGAND-PDBQT: REMARK    1  A    between atoms: C1_1  and  S1_2
INPUT-LIGAND-PDBQT: REMARK    2  A    between atoms: S1_2  and  C2_3
INPUT-LIGAND-PDBQT: REMARK    3  A    between atoms: C2_3  and  C3_4
INPUT-LIGAND-PDBQT: REMARK    4  A    between atoms: C3_4  and  C4_5
INPUT-LIGAND-PDBQT: REMARK    5  A    between atoms: C4_5  and  N1_6
INPUT-LIGAND-PDBQT: REMARK    6  A    between atoms: C4_5  and  C12_17
INPUT-LIGAND-PDBQT: REMARK    7  A    between atoms: C5_7  and  C6_9
INPUT-LIGAND-PDBQT: REMARK    8  A    between atoms: C6_9  and  N2_10
INPUT-LIGAND-PDBQT: REMARK    9  A    between atoms: C6_9  and  C9_14
INPUT-LIGAND-PDBQT: REMARK   10  A    between atoms: C7_11  and  C8_12
INPUT-LIGAND-PDBQT: REMARK   11  A    between atoms: C9_14  and  C10_15
INPUT-LIGAND-PDBQT: REMARK   12  A    between atoms: C9_14  and  C11_16
INPUT-LIGAND-PDBQT: REMARK   13  A    between atoms: N3_19  and  C13_20
INPUT-LIGAND-PDBQT: REMARK   14  A    between atoms: C13_20  and  C14_21
INPUT-LIGAND-PDBQT: REMARK   15  A    between atoms: C13_20  and  C18_25
INPUT-LIGAND-PDBQT: REMARK   16  A    between atoms: C14_21  and  C15_22
INPUT-LIGAND-PDBQT: REMARK   17  A    between atoms: C15_22  and  C16_23
INPUT-LIGAND-PDBQT: REMARK   18  A    between atoms: C15_22  and  C17_24
INPUT-LIGAND-PDBQT: REMARK   19  A    between atoms: C18_25  and  O4_26
INPUT-LIGAND-PDBQT: REMARK   20  A    between atoms: C18_25  and  C19_27
INPUT-LIGAND-PDBQT: REMARK   21  A    between atoms: C19_27  and  C20_28
INPUT-LIGAND-PDBQT: REMARK   22  A    between atoms: N4_30  and  C21_31
INPUT-LIGAND-PDBQT: REMARK   23  A    between atoms: C21_31  and  C22_32
INPUT-LIGAND-PDBQT: REMARK   24  A    between atoms: C21_31  and  C26_40
INPUT-LIGAND-PDBQT: REMARK   25  A    between atoms: N5_34  and  C23_35
INPUT-LIGAND-PDBQT: REMARK   26  A    between atoms: C23_35  and  C24_36
INPUT-LIGAND-PDBQT: REMARK   27  A    between atoms: C23_35  and  C25_37
INPUT-LIGAND-PDBQT: REMARK   28  A    between atoms: C25_37  and  O8_39
INPUT-LIGAND-PDBQT: REMARK   29  A    between atoms: C26_40  and  C27_41
INPUT-LIGAND-PDBQT: REMARK   30  A    between atoms: C26_40  and  C28_42
INPUT-LIGAND-PDBQT: REMARK                            x       y       z     vdW  Elec       q    Type
INPUT-LIGAND-PDBQT: REMARK                         _______ _______ _______ _____ _____    ______ ____
INPUT-LIGAND-PDBQT: ROOT
INPUT-LIGAND-PDBQT: ATOM      1  C13 UNL     1       2.012   1.427  -1.342  0.00  0.00    +0.102 C 
INPUT-LIGAND-PDBQT: ENDROOT
INPUT-LIGAND-PDBQT: BRANCH   1   4
INPUT-LIGAND-PDBQT: ATOM      2  C12 UNL     1       0.450   1.792   0.569  0.00  0.00    +0.234 C 
INPUT-LIGAND-PDBQT: ATOM      3  O3  UNL     1       0.856   2.923   0.840  0.00  0.00    -0.274 OA
INPUT-LIGAND-PDBQT: ATOM      4  N3  UNL     1       1.040   0.959  -0.355  0.00  0.00    -0.308 N 
INPUT-LIGAND-PDBQT: ATOM      5  H22 UNL     1       0.506   0.131  -0.632  0.00  0.00    +0.149 HD
INPUT-LIGAND-PDBQT: BRANCH   2   6
INPUT-LIGAND-PDBQT: ATOM      6  C4  UNL     1      -0.793   1.186   1.257  0.00  0.00    +0.160 C 
INPUT-LIGAND-PDBQT: BRANCH   6   7
INPUT-LIGAND-PDBQT: ATOM      7  N1  UNL     1      -1.019   1.966   2.475  0.00  0.00    -0.302 N 
INPUT-LIGAND-PDBQT: ATOM      8  C5  UNL     1      -0.721   1.463   3.722  0.00  0.00    +0.234 C 
INPUT-LIGAND-PDBQT: ATOM      9  O1  UNL     1      -0.511   0.268   3.935  0.00  0.00    -0.274 OA
INPUT-LIGAND-PDBQT: ATOM     10  H9  UNL     1      -0.912   2.970   2.344  0.00  0.00    +0.150 HD
INPUT-LIGAND-PDBQT: BRANCH   8  11
INPUT-LIGAND-PDBQT: ATOM     11  C6  UNL     1      -0.633   2.528   4.840  0.00  0.00    +0.161 C 
INPUT-LIGAND-PDBQT: BRANCH  11  12
INPUT-LIGAND-PDBQT: ATOM     12  N2  UNL     1      -0.749   1.845   6.127  0.00  0.00    -0.304 N 
INPUT-LIGAND-PDBQT: ATOM     13  C7  UNL     1      -1.956   1.789   6.784  0.00  0.00    +0.211 C 
INPUT-LIGAND-PDBQT: ATOM     14  C8  UNL     1      -1.966   0.850   7.960  0.00  0.00    +0.109 C 
INPUT-LIGAND-PDBQT: ATOM     15  O2  UNL     1      -2.945   2.436   6.458  0.00  0.00    -0.276 OA
INPUT-LIGAND-PDBQT: ATOM     16  H11 UNL     1      -0.154   1.029   6.225  0.00  0.00    +0.149 HD
INPUT-LIGAND-PDBQT: ENDBRANCH  11  12
INPUT-LIGAND-PDBQT: BRANCH  11  17
INPUT-LIGAND-PDBQT: ATOM     17  C9  UNL     1       0.670   3.354   4.729  0.00  0.00    +0.012 C 
INPUT-LIGAND-PDBQT: ATOM     18  C10 UNL     1       1.939   2.513   4.910  0.00  0.00    +0.009 C 
INPUT-LIGAND-PDBQT: ATOM     19  C11 UNL     1       0.665   4.517   5.726  0.00  0.00    +0.009 C 
INPUT-LIGAND-PDBQT: ENDBRANCH  11  17
INPUT-LIGAND-PDBQT: ENDBRANCH   8  11
INPUT-LIGAND-PDBQT: ENDBRANCH   6   7
INPUT-LIGAND-PDBQT: BRANCH   6  20
INPUT-LIGAND-PDBQT: ATOM     20  C3  UNL     1      -2.008   1.269   0.331  0.00  0.00    +0.042 C 
INPUT-LIGAND-PDBQT: BRANCH  20  21
INPUT-LIGAND-PDBQT: ATOM     21  C2  UNL     1      -3.210   0.456   0.813  0.00  0.00    +0.071 C 
INPUT-LIGAND-PDBQT: BRANCH  21  23
INPUT-LIGAND-PDBQT: ATOM     22  C1  UNL     1      -2.589  -1.961   2.051  0.00  0.00    +0.084 C 
INPUT-LIGAND-PDBQT: ATOM     23  S1  UNL     1      -3.077  -1.328   0.426  0.00  0.00    -0.164 S 
INPUT-LIGAND-PDBQT: ENDBRANCH  21  23
INPUT-LIGAND-PDBQT: ENDBRANCH  20  21
INPUT-LIGAND-PDBQT: ENDBRANCH   6  20
INPUT-LIGAND-PDBQT: ENDBRANCH   2   6
INPUT-LIGAND-PDBQT: ENDBRANCH   1   4
INPUT-LIGAND-PDBQT: BRANCH   1  24
INPUT-LIGAND-PDBQT: ATOM     24  C14 UNL     1       3.152   0.396  -1.455  0.00  0.00    +0.028 C 
INPUT-LIGAND-PDBQT: BRANCH  24  25
INPUT-LIGAND-PDBQT: ATOM     25  C15 UNL     1       4.340   0.810  -2.345  0.00  0.00    -0.015 C 
INPUT-LIGAND-PDBQT: ATOM     26  C16 UNL     1       5.327  -0.355  -2.454  0.00  0.00    +0.007 C 
INPUT-LIGAND-PDBQT: ATOM     27  C17 UNL     1       5.060   2.050  -1.814  0.00  0.00    +0.007 C 
INPUT-LIGAND-PDBQT: ENDBRANCH  24  25
INPUT-LIGAND-PDBQT: ENDBRANCH   1  24
INPUT-LIGAND-PDBQT: BRANCH   1  28
INPUT-LIGAND-PDBQT: ATOM     28  C18 UNL     1       1.330   1.784  -2.701  0.00  0.00    +0.143 C 
INPUT-LIGAND-PDBQT: BRANCH  28  29
INPUT-LIGAND-PDBQT: ATOM     29  O4  UNL     1       0.190   2.629  -2.485  0.00  0.00    -0.389 OA
INPUT-LIGAND-PDBQT: ATOM     30  H34 UNL     1       0.027   3.129  -3.303  0.00  0.00    +0.210 HD
INPUT-LIGAND-PDBQT: ENDBRANCH  28  29
INPUT-LIGAND-PDBQT: BRANCH  28  31
INPUT-LIGAND-PDBQT: ATOM     31  C19 UNL     1       0.935   0.640  -3.648  0.00  0.00    +0.129 C 
INPUT-LIGAND-PDBQT: BRANCH  31  32
INPUT-LIGAND-PDBQT: ATOM     32  C20 UNL     1      -0.049  -0.376  -3.099  0.00  0.00    +0.216 C 
INPUT-LIGAND-PDBQT: ATOM     33  O5  UNL     1      -0.130  -0.689  -1.917  0.00  0.00    -0.276 OA
INPUT-LIGAND-PDBQT: ATOM     34  N4  UNL     1      -0.814  -0.983  -4.076  0.00  0.00    -0.304 N 
INPUT-LIGAND-PDBQT: ATOM     35  H37 UNL     1      -0.367  -1.068  -4.984  0.00  0.00    +0.149 HD
INPUT-LIGAND-PDBQT: BRANCH  34  36
INPUT-LIGAND-PDBQT: ATOM     36  C21 UNL     1      -1.671  -2.114  -3.703  0.00  0.00    +0.161 C 
INPUT-LIGAND-PDBQT: BRANCH  36  37
INPUT-LIGAND-PDBQT: ATOM     37  C22 UNL     1      -0.770  -3.368  -3.671  0.00  0.00    +0.234 C 
INPUT-LIGAND-PDBQT: ATOM     38  O6  UNL     1       0.184  -3.505  -4.437  0.00  0.00    -0.274 OA
INPUT-LIGAND-PDBQT: ATOM     39  N5  UNL     1      -1.125  -4.319  -2.742  0.00  0.00    -0.301 N 
INPUT-LIGAND-PDBQT: ATOM     40  H39 UNL     1      -2.028  -4.240  -2.292  0.00  0.00    +0.150 HD
INPUT-LIGAND-PDBQT: BRANCH  39  41
INPUT-LIGAND-PDBQT: ATOM     41  C23 UNL     1      -0.446  -5.611  -2.696  0.00  0.00    +0.179 C 
INPUT-LIGAND-PDBQT: ATOM     42  C24 UNL     1      -0.560  -6.219  -1.307  0.00  0.00    +0.040 C 
INPUT-LIGAND-PDBQT: BRANCH  41  43
INPUT-LIGAND-PDBQT: ATOM     43  C25 UNL     1      -1.052  -6.554  -3.738  0.00  0.00    +0.325 C 
INPUT-LIGAND-PDBQT: ATOM     44  O7  UNL     1      -2.102  -6.401  -4.347  0.00  0.00    -0.249 OA
INPUT-LIGAND-PDBQT: BRANCH  43  45
INPUT-LIGAND-PDBQT: ATOM     45  O8  UNL     1      -0.299  -7.653  -3.951  0.00  0.00    -0.479 OA
INPUT-LIGAND-PDBQT: ATOM     46  H44 UNL     1      -0.771  -8.132  -4.665  0.00  0.00    +0.295 HD
INPUT-LIGAND-PDBQT: ENDBRANCH  43  45
INPUT-LIGAND-PDBQT: ENDBRANCH  41  43
INPUT-LIGAND-PDBQT: ENDBRANCH  39  41
INPUT-LIGAND-PDBQT: ENDBRANCH  36  37
INPUT-LIGAND-PDBQT: BRANCH  36  47
INPUT-LIGAND-PDBQT: ATOM     47  C26 UNL     1      -2.872  -2.238  -4.668  0.00  0.00    +0.012 C 
INPUT-LIGAND-PDBQT: ATOM     48  C27 UNL     1      -2.492  -2.740  -6.065  0.00  0.00    +0.009 C 
INPUT-LIGAND-PDBQT: ATOM     49  C28 UNL     1      -3.985  -3.113  -4.085  0.00  0.00    +0.009 C 
INPUT-LIGAND-PDBQT: ENDBRANCH  36  47
INPUT-LIGAND-PDBQT: ENDBRANCH  34  36
INPUT-LIGAND-PDBQT: ENDBRANCH  31  32
INPUT-LIGAND-PDBQT: ENDBRANCH  28  31
INPUT-LIGAND-PDBQT: ENDBRANCH   1  28
INPUT-LIGAND-PDBQT: TORSDOF 21


    FINAL DOCKED STATE:
    ________________________


Run:   1 / 20
Time taken for this run:   1.141s

DOCKED: MODEL        1
DOCKED: USER    Run = 1
DOCKED: USER
DOCKED: USER    Estimated Free Energy of Binding    =  +6.26 kcal/mol  [=(1)+(2)+(3)-(4)]
DOCKED: USER
DOCKED: USER    (1) Final Intermolecular Energy     =  +0.00 kcal/mol
DOCKED: USER        vdW + Hbond + desolv Energy     =  +0.00 kcal/mol
DOCKED: USER        Electrostatic Energy            =  +0.00 kcal/mol
DOCKED: USER        Moving Ligand-Fixed Receptor    =  +0.00 kcal/mol
DOCKED: USER        Moving Ligand-Moving Receptor   =  +0.00 kcal/mol
DOCKED: USER    (2) Final Total Internal Energy     = -15.11 kcal/mol
DOCKED: USER    (3) Torsional Free Energy           =  +6.26 kcal/mol
DOCKED: USER    (4) Unbound System's Energy         = -15.11 kcal/mol
DOCKED: USER
DOCKED: USER
DOCKED: REMARK  Name = ligands/ligand_26.pdb
DOCKED: REMARK  30 active torsions:
DOCKED: REMARK  status: ('A' for Active; 'I' for Inactive)
DOCKED: REMARK    1  A    between atoms: C1_1  and  S1_2
DOCKED: REMARK    2  A    between atoms: S1_2  and  C2_3
DOCKED: REMARK    3  A    between atoms: C2_3  and  C3_4
DOCKED: REMARK    4  A    between atoms: C3_4  and  C4_5
DOCKED: REMARK    5  A    between atoms: C4_5  and  N1_6
DOCKED: REMARK    6  A    between atoms: C4_5  and  C12_17
DOCKED: REMARK    7  A    between atoms: C5_7  and  C6_9
DOCKED: REMARK    8  A    between atoms: C6_9  and  N2_10
DOCKED: REMARK    9  A    between atoms: C6_9  and  C9_14
DOCKED: REMARK   10  A    between atoms: C7_11  and  C8_12
DOCKED: REMARK   11  A    between atoms: C9_14  and  C10_15
DOCKED: REMARK   12  A    between atoms: C9_14  and  C11_16
DOCKED: REMARK   13  A    between atoms: N3_19  and  C13_20
DOCKED: REMARK   14  A    between atoms: C13_20  and  C14_21
DOCKED: REMARK   15  A    between atoms: C13_20  and  C18_25
DOCKED: REMARK   16  A    between atoms: C14_21  and  C15_22
DOCKED: REMARK   17  A    between atoms: C15_22  and  C16_23
DOCKED: REMARK   18  A    between atoms: C15_22  and  C17_24
DOCKED: REMARK   19  A    between atoms: C18_25  and  O4_26
DOCKED: REMARK   20  A    between atoms: C18_25  and  C19_27
DOCKED: REMARK   21  A    between atoms: C19_27  and  C20_28
DOCKED: REMARK   22  A    between atoms: N4_30  and  C21_31
DOCKED: REMARK   23  A    between atoms: C21_31  and  C22_32
DOCKED: REMARK   24  A    between atoms: C21_31  and  C26_40
DOCKED: REMARK   25  A    between atoms: N5_34  and  C23_35
DOCKED: REMARK   26  A    between atoms: C23_35  and  C24_36
DOCKED: REMARK   27  A    between atoms: C23_35  and  C25_37
DOCKED: REMARK   28  A    between atoms: C25_37  and  O8_39
DOCKED: REMARK   29  A    between atoms: C26_40  and  C27_41
DOCKED: REMARK   30  A    between atoms: C26_40  and  C28_42
DOCKED: REMARK                            x       y       z     vdW  Elec       q    Type
DOCKED: REMARK                         _______ _______ _______ _____ _____    ______ ____
DOCKED: USER                              x       y       z     vdW  Elec       q    Type
DOCKED: USER                           _______ _______ _______ _____ _____    ______ ____
DOCKED: ROOT
DOCKED: ATOM      1  C13 UNL     1       8.236  -7.830  -0.292 +0.00 +0.00    +0.102 C  
DOCKED: ENDROOT
DOCKED: BRANCH   1   4
DOCKED: ATOM      2  C12 UNL     1      10.716  -7.579  -0.393 +0.00 +0.00    +0.234 C  
DOCKED: ATOM      3  O3  UNL     1      10.750  -6.495   0.192 +0.00 -0.00    -0.274 OA 
DOCKED: ATOM      4  N3  UNL     1       9.557  -8.208  -0.790 +0.00 -0.00    -0.308 N  
DOCKED: ATOM      5  H22 UNL     1       9.645  -9.183  -1.090 +0.00 +0.00    +0.149 HD 
DOCKED: BRANCH   2   6
DOCKED: ATOM      6  C4  UNL     1      12.004  -8.355  -0.745 +0.00 +0.00    +0.160 C  
DOCKED: BRANCH   6   7
DOCKED: ATOM      7  N1  UNL     1      11.980  -8.572  -2.192 +0.00 -0.00    -0.302 N  
DOCKED: ATOM      8  C5  UNL     1      11.330  -9.650  -2.752 +0.00 +0.00    +0.234 C  
DOCKED: ATOM      9  O1  UNL     1      10.969 -10.632  -2.101 +0.00 -0.00    -0.274 OA 
DOCKED: ATOM     10  H9  UNL     1      11.998  -7.711  -2.736 +0.00 +0.00    +0.150 HD 
DOCKED: BRANCH   8  11
DOCKED: ATOM     11  C6  UNL     1      11.054  -9.519  -4.268 +0.00 +0.00    +0.161 C  
DOCKED: BRANCH  11  12
DOCKED: ATOM     12  N2  UNL     1       9.668  -9.088  -4.440 +0.00 -0.00    -0.304 N  
DOCKED: ATOM     13  C7  UNL     1       9.262  -7.846  -4.011 +0.00 +0.00    +0.211 C  
DOCKED: ATOM     14  C8  UNL     1       7.884  -7.461  -4.479 +0.00 +0.00    +0.109 C  
DOCKED: ATOM     15  O2  UNL     1       9.944  -7.105  -3.312 +0.00 -0.00    -0.276 OA 
DOCKED: ATOM     16  H11 UNL     1       9.224  -9.431  -5.285 +0.00 +0.00    +0.149 HD 
DOCKED: ENDBRANCH  11  12
DOCKED: BRANCH  11  17
DOCKED: ATOM     17  C9  UNL     1      12.057  -8.552  -4.940 +0.00 +0.00    +0.012 C  
DOCKED: ATOM     18  C10 UNL     1      11.671  -8.180  -6.376 +0.00 +0.00    +0.009 C  
DOCKED: ATOM     19  C11 UNL     1      13.475  -9.132  -4.912 +0.00 +0.00    +0.009 C  
DOCKED: ENDBRANCH  11  17
DOCKED: ENDBRANCH   8  11
DOCKED: ENDBRANCH   6   7
DOCKED: BRANCH   6  20
DOCKED: ATOM     20  C3  UNL     1      13.239  -7.548  -0.342 +0.00 +0.00    +0.042 C  
DOCKED: BRANCH  20  21
DOCKED: ATOM     21  C2  UNL     1      14.292  -7.434  -1.446 +0.00 +0.00    +0.071 C  
DOCKED: BRANCH  21  23
DOCKED: ATOM     22  C1  UNL     1      14.626  -4.945  -0.241 +0.00 +0.00    +0.084 C  
DOCKED: ATOM     23  S1  UNL     1      14.695  -5.704  -1.884 +0.00 -0.00    -0.164 S  
DOCKED: ENDBRANCH  21  23
DOCKED: ENDBRANCH  20  21
DOCKED: ENDBRANCH   6  20
DOCKED: ENDBRANCH   2   6
DOCKED: ENDBRANCH   1   4
DOCKED: BRANCH   1  24
DOCKED: ATOM     24  C14 UNL     1       8.249  -7.868   1.249 +0.00 +0.00    +0.028 C  
DOCKED: BRANCH  24  25
DOCKED: ATOM     25  C15 UNL     1       8.516  -9.248   1.880 +0.00 -0.00    -0.015 C  
DOCKED: ATOM     26  C16 UNL     1       9.965  -9.315   2.369 +0.00 +0.00    +0.007 C  
DOCKED: ATOM     27  C17 UNL     1       8.245 -10.395   0.907 +0.00 +0.00    +0.007 C  
DOCKED: ENDBRANCH  24  25
DOCKED: ENDBRANCH   1  24
DOCKED: BRANCH   1  28
DOCKED: ATOM     28  C18 UNL     1       7.754  -6.474  -0.898 +0.00 +0.00    +0.143 C  
DOCKED: BRANCH  28  29
DOCKED: ATOM     29  O4  UNL     1       8.867  -5.735  -1.424 +0.00 -0.00    -0.389 OA 
DOCKED: ATOM     30  H34 UNL     1       9.557  -6.371  -1.679 +0.00 +0.00    +0.210 HD 
DOCKED: ENDBRANCH  28  29
DOCKED: BRANCH  28  31
DOCKED: ATOM     31  C19 UNL     1       6.899  -5.541  -0.027 +0.00 +0.00    +0.129 C  
DOCKED: BRANCH  31  32
DOCKED: ATOM     32  C20 UNL     1       7.636  -4.419   0.679 +0.00 +0.00    +0.216 C  
DOCKED: ATOM     33  O5  UNL     1       7.215  -3.272   0.779 +0.00 -0.00    -0.276 OA 
DOCKED: ATOM     34  N4  UNL     1       8.882  -4.789   1.148 +0.00 -0.00    -0.304 N  
DOCKED: ATOM     35  H37 UNL     1       9.346  -5.517   0.612 +0.00 +0.00    +0.149 HD 
DOCKED: BRANCH  34  36
DOCKED: ATOM     36  C21 UNL     1       9.773  -3.754   1.683 +0.00 +0.00    +0.161 C  
DOCKED: BRANCH  36  37
DOCKED: ATOM     37  C22 UNL     1      10.393  -3.025   0.471 +0.00 +0.00    +0.234 C  
DOCKED: ATOM     38  O6  UNL     1      10.484  -1.798   0.425 +0.00 -0.00    -0.274 OA 
DOCKED: ATOM     39  N5  UNL     1      10.812  -3.844  -0.552 +0.00 -0.00    -0.301 N  
DOCKED: ATOM     40  H39 UNL     1      10.524  -4.814  -0.542 +0.00 +0.00    +0.150 HD 
DOCKED: BRANCH  39  41
DOCKED: ATOM     41  C23 UNL     1      11.289  -3.283  -1.813 +0.00 +0.00    +0.179 C  
DOCKED: ATOM     42  C24 UNL     1      12.597  -2.537  -1.598 +0.00 +0.00    +0.040 C  
DOCKED: BRANCH  41  43
DOCKED: ATOM     43  C25 UNL     1      11.481  -4.401  -2.840 +0.00 +0.00    +0.325 C  
DOCKED: ATOM     44  O7  UNL     1      11.543  -4.281  -4.056 +0.00 -0.00    -0.249 OA 
DOCKED: BRANCH  43  45
DOCKED: ATOM     45  O8  UNL     1      11.574  -5.622  -2.274 +0.00 -0.00    -0.479 OA 
DOCKED: ATOM     46  H44 UNL     1      10.704  -5.753  -1.841 +0.00 +0.00    +0.295 HD 
DOCKED: ENDBRANCH  43  45
DOCKED: ENDBRANCH  41  43
DOCKED: ENDBRANCH  39  41
DOCKED: ENDBRANCH  36  37
DOCKED: BRANCH  36  47
DOCKED: ATOM     47  C26 UNL     1      10.821  -4.369   2.639 +0.00 +0.00    +0.012 C  
DOCKED: ATOM     48  C27 UNL     1      10.483  -5.793   3.092 +0.00 +0.00    +0.009 C  
DOCKED: ATOM     49  C28 UNL     1      12.230  -4.333   2.040 +0.00 +0.00    +0.009 C  
DOCKED: ENDBRANCH  36  47
DOCKED: ENDBRANCH  34  36
DOCKED: ENDBRANCH  31  32
DOCKED: ENDBRANCH  28  31
DOCKED: ENDBRANCH   1  28
DOCKED: TORSDOF 21
DOCKED: TER
DOCKED: ENDMDL
________________________________________________________________________________


    FINAL DOCKED STATE:
    ________________________


Run:   2 / 20
Time taken for this run:   1.141s

DOCKED: MODEL        2
DOCKED: USER    Run = 2
DOCKED: USER
DOCKED: USER    Estimated Free Energy of Binding    =  +6.26 kcal/mol  [=(1)+(2)+(3)-(4)]
DOCKED: USER
DOCKED: USER    (1) Final Intermolecular Energy     =  +0.00 kcal/mol
DOCKED: USER        vdW + Hbond + desolv Energy     =  +0.00 kcal/mol
DOCKED: USER        Electrostatic Energy            =  +0.00 kcal/mol
DOCKED: USER        Moving Ligand-Fixed Receptor    =  +0.00 kcal/mol
DOCKED: USER        Moving Ligand-Moving Receptor   =  +0.00 kcal/mol
DOCKED: USER    (2) Final Total Internal Energy     = -15.30 kcal/mol
DOCKED: USER    (3) Torsional Free Energy           =  +6.26 kcal/mol
DOCKED: USER    (4) Unbound System's Energy         = -15.30 kcal/mol
DOCKED: USER
DOCKED: USER
DOCKED: REMARK  Name = ligands/ligand_26.pdb
DOCKED: REMARK  30 active torsions:
DOCKED: REMARK  status: ('A' for Active; 'I' for Inactive)
DOCKED: REMARK    1  A    between atoms: C1_1  and  S1_2
DOCKED: REMARK    2  A    between atoms: S1_2  and  C2_3
DOCKED: REMARK    3  A    between atoms: C2_3  and  C3_4
DOCKED: REMARK    4  A    between atoms: C3_4  and  C4_5
DOCKED: REMARK    5  A    between atoms: C4_5  and  N1_6
DOCKED: REMARK    6  A    between atoms: C4_5  and  C12_17
DOCKED: REMARK    7  A    between atoms: C5_7  and  C6_9
DOCKED: REMARK    8  A    between atoms: C6_9  and  N2_10
DOCKED: REMARK    9  A    between atoms: C6_9  and  C9_14
DOCKED: REMARK   10  A    between atoms: C7_11  and  C8_12
DOCKED: REMARK   11  A    between atoms: C9_14  and  C10_15
DOCKED: REMARK   12  A    between atoms: C9_14  and  C11_16
DOCKED: REMARK   13  A    between atoms: N3_19  and  C13_20
DOCKED: REMARK   14  A    between atoms: C13_20  and  C14_21
DOCKED: REMARK   15  A    between atoms: C13_20  and  C18_25
DOCKED: REMARK   16  A    between atoms: C14_21  and  C15_22
DOCKED: REMARK   17  A    between atoms: C15_22  and  C16_23
DOCKED: REMARK   18  A    between atoms: C15_22  and  C17_24
DOCKED: REMARK   19  A    between atoms: C18_25  and  O4_26
DOCKED: REMARK   20  A    between atoms: C18_25  and  C19_27
DOCKED: REMARK   21  A    between atoms: C19_27  and  C20_28
DOCKED: REMARK   22  A    between atoms: N4_30  and  C21_31
DOCKED: REMARK   23  A    between atoms: C21_31  and  C22_32
DOCKED: REMARK   24  A    between atoms: C21_31  and  C26_40
DOCKED: REMARK   25  A    between atoms: N5_34  and  C23_35
DOCKED: REMARK   26  A    between atoms: C23_35  and  C24_36
DOCKED: REMARK   27  A    between atoms: C23_35  and  C25_37
DOCKED: REMARK   28  A    between atoms: C25_37  and  O8_39
DOCKED: REMARK   29  A    between atoms: C26_40  and  C27_41
DOCKED: REMARK   30  A    between atoms: C26_40  and  C28_42
DOCKED: REMARK                            x       y       z     vdW  Elec       q    Type
DOCKED: REMARK                         _______ _______ _______ _____ _____    ______ ____
DOCKED: USER                              x       y       z     vdW  Elec       q    Type
DOCKED: USER                           _______ _______ _______ _____ _____    ______ ____
DOCKED: ROOT
DOCKED: ATOM      1  C13 UNL     1       7.502  -6.129  -6.977 +0.00 +0.00    +0.102 C  
DOCKED: ENDROOT
DOCKED: BRANCH   1   4
DOCKED: ATOM      2  C12 UNL     1       6.942  -6.554  -4.583 +0.00 +0.00    +0.234 C  
DOCKED: ATOM      3  O3  UNL     1       7.592  -7.596  -4.492 +0.00 -0.00    -0.274 OA 
DOCKED: ATOM      4  N3  UNL     1       6.729  -5.875  -5.762 +0.00 -0.00    -0.308 N  
DOCKED: ATOM      5  H22 UNL     1       6.344  -4.930  -5.683 +0.00 +0.00    +0.149 HD 
DOCKED: BRANCH   2   6
DOCKED: ATOM      6  C4  UNL     1       6.289  -5.891  -3.350 +0.00 +0.00    +0.160 C  
DOCKED: BRANCH   6   7
DOCKED: ATOM      7  N1  UNL     1       5.197  -5.055  -3.853 +0.00 -0.00    -0.302 N  
DOCKED: ATOM      8  C5  UNL     1       4.455  -4.253  -3.016 +0.00 +0.00    +0.234 C  
DOCKED: ATOM      9  O1  UNL     1       4.457  -4.373  -1.790 +0.00 -0.00    -0.274 OA 
DOCKED: ATOM     10  H9  UNL     1       5.342  -4.721  -4.804 +0.00 +0.00    +0.150 HD 
DOCKED: BRANCH   8  11
DOCKED: ATOM     11  C6  UNL     1       3.636  -3.156  -3.736 +0.00 +0.00    +0.161 C  
DOCKED: BRANCH  11  12
DOCKED: ATOM     12  N2  UNL     1       2.774  -3.807  -4.721 +0.00 -0.00    -0.304 N  
DOCKED: ATOM     13  C7  UNL     1       3.303  -4.321  -5.882 +0.00 +0.00    +0.211 C  
DOCKED: ATOM     14  C8  UNL     1       2.337  -5.167  -6.668 +0.00 +0.00    +0.109 C  
DOCKED: ATOM     15  O2  UNL     1       4.452  -4.122  -6.261 +0.00 -0.00    -0.276 OA 
DOCKED: ATOM     16  H11 UNL     1       1.995  -4.321  -4.324 +0.00 +0.00    +0.149 HD 
DOCKED: ENDBRANCH  11  12
DOCKED: BRANCH  11  17
DOCKED: ATOM     17  C9  UNL     1       2.833  -2.301  -2.728 +0.00 +0.00    +0.012 C  
DOCKED: ATOM     18  C10 UNL     1       1.583  -3.007  -2.192 +0.00 +0.00    +0.009 C  
DOCKED: ATOM     19  C11 UNL     1       2.450  -0.951  -3.343 +0.00 +0.00    +0.009 C  
DOCKED: ENDBRANCH  11  17
DOCKED: ENDBRANCH   8  11
DOCKED: ENDBRANCH   6   7
DOCKED: BRANCH   6  20
DOCKED: ATOM     20  C3  UNL     1       5.753  -6.957  -2.393 +0.00 +0.00    +0.042 C  
DOCKED: BRANCH  20  21
DOCKED: ATOM     21  C2  UNL     1       5.027  -8.107  -3.091 +0.00 +0.00    +0.071 C  
DOCKED: BRANCH  21  23
DOCKED: ATOM     22  C1  UNL     1       2.524  -7.054  -2.470 +0.00 +0.00    +0.084 C  
DOCKED: ATOM     23  S1  UNL     1       3.477  -7.589  -3.914 +0.00 -0.00    -0.164 S  
DOCKED: ENDBRANCH  21  23
DOCKED: ENDBRANCH  20  21
DOCKED: ENDBRANCH   6  20
DOCKED: ENDBRANCH   2   6
DOCKED: ENDBRANCH   1   4
DOCKED: BRANCH   1  24
DOCKED: ATOM     24  C14 UNL     1       6.685  -7.042  -7.912 +0.00 +0.00    +0.028 C  
DOCKED: BRANCH  24  25
DOCKED: ATOM     25  C15 UNL     1       5.159  -6.826  -7.890 +0.00 -0.00    -0.015 C  
DOCKED: ATOM     26  C16 UNL     1       4.482  -8.026  -7.224 +0.00 +0.00    +0.007 C  
DOCKED: ATOM     27  C17 UNL     1       4.582  -6.618  -9.291 +0.00 +0.00    +0.007 C  
DOCKED: ENDBRANCH  24  25
DOCKED: ENDBRANCH   1  24
DOCKED: BRANCH   1  28
DOCKED: ATOM     28  C18 UNL     1       7.990  -4.802  -7.639 +0.00 +0.00    +0.143 C  
DOCKED: BRANCH  28  29
DOCKED: ATOM     29  O4  UNL     1       7.479  -3.666  -6.926 +0.00 -0.00    -0.389 OA 
DOCKED: ATOM     30  H34 UNL     1       6.539  -3.829  -6.735 +0.00 +0.00    +0.210 HD 
DOCKED: ENDBRANCH  28  29
DOCKED: BRANCH  28  31
DOCKED: ATOM     31  C19 UNL     1       7.752  -4.600  -9.144 +0.00 +0.00    +0.129 C  
DOCKED: BRANCH  31  32
DOCKED: ATOM     32  C20 UNL     1       6.851  -3.442  -9.531 +0.00 +0.00    +0.216 C  
DOCKED: ATOM     33  O5  UNL     1       7.184  -2.527 -10.273 +0.00 -0.00    -0.276 OA 
DOCKED: ATOM     34  N4  UNL     1       5.619  -3.472  -8.905 +0.00 -0.00    -0.304 N  
DOCKED: ATOM     35  H37 UNL     1       5.611  -3.908  -7.988 +0.00 +0.00    +0.149 HD 
DOCKED: BRANCH  34  36
DOCKED: ATOM     36  C21 UNL     1       4.725  -2.318  -9.047 +0.00 +0.00    +0.161 C  
DOCKED: BRANCH  36  37
DOCKED: ATOM     37  C22 UNL     1       5.201  -1.255  -8.032 +0.00 +0.00    +0.234 C  
DOCKED: ATOM     38  O6  UNL     1       5.332  -0.071  -8.342 +0.00 -0.00    -0.274 OA 
DOCKED: ATOM     39  N5  UNL     1       5.483  -1.734  -6.773 +0.00 -0.00    -0.301 N  
DOCKED: ATOM     40  H39 UNL     1       5.552  -2.735  -6.643 +0.00 +0.00    +0.150 HD 
DOCKED: BRANCH  39  41
DOCKED: ATOM     41  C23 UNL     1       6.071  -0.866  -5.757 +0.00 +0.00    +0.179 C  
DOCKED: ATOM     42  C24 UNL     1       5.116   0.264  -5.409 +0.00 +0.00    +0.040 C  
DOCKED: BRANCH  41  43
DOCKED: ATOM     43  C25 UNL     1       6.404  -1.683  -4.506 +0.00 +0.00    +0.325 C  
DOCKED: ATOM     44  O7  UNL     1       6.475  -1.272  -3.356 +0.00 -0.00    -0.249 OA 
DOCKED: BRANCH  43  45
DOCKED: ATOM     45  O8  UNL     1       6.638  -2.984  -4.776 +0.00 -0.00    -0.479 OA 
DOCKED: ATOM     46  H44 UNL     1       5.953  -3.218  -5.437 +0.00 +0.00    +0.295 HD 
DOCKED: ENDBRANCH  43  45
DOCKED: ENDBRANCH  41  43
DOCKED: ENDBRANCH  39  41
DOCKED: ENDBRANCH  36  37
DOCKED: BRANCH  36  47
DOCKED: ATOM     47  C26 UNL     1       3.249  -2.736  -8.860 +0.00 +0.00    +0.012 C  
DOCKED: ATOM     48  C27 UNL     1       2.421  -1.732  -8.051 +0.00 +0.00    +0.009 C  
DOCKED: ATOM     49  C28 UNL     1       2.562  -3.021 -10.198 +0.00 +0.00    +0.009 C  
DOCKED: ENDBRANCH  36  47
DOCKED: ENDBRANCH  34  36
DOCKED: ENDBRANCH  31  32
DOCKED: ENDBRANCH  28  31
DOCKED: ENDBRANCH   1  28
DOCKED: TORSDOF 21
DOCKED: TER
DOCKED: ENDMDL
________________________________________________________________________________


    FINAL DOCKED STATE:
    ________________________


Run:   3 / 20
Time taken for this run:   1.141s

DOCKED: MODEL        3
DOCKED: USER    Run = 3
DOCKED: USER
DOCKED: USER    Estimated Free Energy of Binding    =  +6.26 kcal/mol  [=(1)+(2)+(3)-(4)]
DOCKED: USER
DOCKED: USER    (1) Final Intermolecular Energy     =  +0.00 kcal/mol
DOCKED: USER        vdW + Hbond + desolv Energy     =  +0.00 kcal/mol
DOCKED: USER        Electrostatic Energy            =  +0.00 kcal/mol
DOCKED: USER        Moving Ligand-Fixed Receptor    =  +0.00 kcal/mol
DOCKED: USER        Moving Ligand-Moving Receptor   =  +0.00 kcal/mol
DOCKED: USER    (2) Final Total Internal Energy     = -15.30 kcal/mol
DOCKED: USER    (3) Torsional Free Energy           =  +6.26 kcal/mol
DOCKED: USER    (4) Unbound System's Energy         = -15.30 kcal/mol
DOCKED: USER
DOCKED: USER
DOCKED: REMARK  Name = ligands/ligand_26.pdb
DOCKED: REMARK  30 active torsions:
DOCKED: REMARK  status: ('A' for Active; 'I' for Inactive)
DOCKED: REMARK    1  A    between atoms: C1_1  and  S1_2
DOCKED: REMARK    2  A    between atoms: S1_2  and  C2_3
DOCKED: REMARK    3  A    between atoms: C2_3  and  C3_4
DOCKED: REMARK    4  A    between atoms: C3_4  and  C4_5
DOCKED: REMARK    5  A    between atoms: C4_5  and  N1_6
DOCKED: REMARK    6  A    between atoms: C4_5  and  C12_17
DOCKED: REMARK    7  A    between atoms: C5_7  and  C6_9
DOCKED: REMARK    8  A    between atoms: C6_9  and  N2_10
DOCKED: REMARK    9  A    between atoms: C6_9  and  C9_14
DOCKED: REMARK   10  A    between atoms: C7_11  and  C8_12
DOCKED: REMARK   11  A    between atoms: C9_14  and  C10_15
DOCKED: REMARK   12  A    between atoms: C9_14  and  C11_16
DOCKED: REMARK   13  A    between atoms: N3_19  and  C13_20
DOCKED: REMARK   14  A    between atoms: C13_20  and  C14_21
DOCKED: REMARK   15  A    between atoms: C13_20  and  C18_25
DOCKED: REMARK   16  A    between atoms: C14_21  and  C15_22
DOCKED: REMARK   17  A    between atoms: C15_22  and  C16_23
DOCKED: REMARK   18  A    between atoms: C15_22  and  C17_24
DOCKED: REMARK   19  A    between atoms: C18_25  and  O4_26
DOCKED: REMARK   20  A    between atoms: C18_25  and  C19_27
DOCKED: REMARK   21  A    between atoms: C19_27  and  C20_28
DOCKED: REMARK   22  A    between atoms: N4_30  and  C21_31
DOCKED: REMARK   23  A    between atoms: C21_31  and  C22_32
DOCKED: REMARK   24  A    between atoms: C21_31  and  C26_40
DOCKED: REMARK   25  A    between atoms: N5_34  and  C23_35
DOCKED: REMARK   26  A    between atoms: C23_35  and  C24_36
DOCKED: REMARK   27  A    between atoms: C23_35  and  C25_37
DOCKED: REMARK   28  A    between atoms: C25_37  and  O8_39
DOCKED: REMARK   29  A    between atoms: C26_40  and  C27_41
DOCKED: REMARK   30  A    between atoms: C26_40  and  C28_42
DOCKED: REMARK                            x       y       z     vdW  Elec       q    Type
DOCKED: REMARK                         _______ _______ _______ _____ _____    ______ ____
DOCKED: USER                              x       y       z     vdW  Elec       q    Type
DOCKED: USER                           _______ _______ _______ _____ _____    ______ ____
DOCKED: ROOT
DOCKED: ATOM      1  C13 UNL     1       7.324  -6.800  -5.468 +0.00 +0.00    +0.102 C  
DOCKED: ENDROOT
DOCKED: BRANCH   1   4
DOCKED: ATOM      2  C12 UNL     1       9.773  -7.207  -5.223 +0.00 +0.00    +0.234 C  
DOCKED: ATOM      3  O3  UNL     1       9.682  -8.432  -5.136 +0.00 -0.00    -0.274 OA 
DOCKED: ATOM      4  N3  UNL     1       8.695  -6.350  -5.236 +0.00 -0.00    -0.308 N  
DOCKED: ATOM      5  H22 UNL     1       8.884  -5.381  -5.504 +0.00 +0.00    +0.149 HD 
DOCKED: BRANCH   2   6
DOCKED: ATOM      6  C4  UNL     1      11.141  -6.497  -5.329 +0.00 +0.00    +0.160 C  
DOCKED: BRANCH   6   7
DOCKED: ATOM      7  N1  UNL     1      10.935  -5.121  -4.872 +0.00 -0.00    -0.302 N  
DOCKED: ATOM      8  C5  UNL     1      11.937  -4.179  -4.937 +0.00 +0.00    +0.234 C  
DOCKED: ATOM      9  O1  UNL     1      13.122  -4.466  -5.116 +0.00 -0.00    -0.274 OA 
DOCKED: ATOM     10  H9  UNL     1       9.980  -4.789  -4.991 +0.00 +0.00    +0.150 HD 
DOCKED: BRANCH   8  11
DOCKED: ATOM     11  C6  UNL     1      11.453  -2.716  -4.804 +0.00 +0.00    +0.161 C  
DOCKED: BRANCH  11  12
DOCKED: ATOM     12  N2  UNL     1      10.715  -2.595  -3.549 +0.00 -0.00    -0.304 N  
DOCKED: ATOM     13  C7  UNL     1       9.447  -3.115  -3.429 +0.00 +0.00    +0.211 C  
DOCKED: ATOM     14  C8  UNL     1       8.925  -3.128  -2.018 +0.00 +0.00    +0.109 C  
DOCKED: ATOM     15  O2  UNL     1       8.786  -3.535  -4.372 +0.00 -0.00    -0.276 OA 
DOCKED: ATOM     16  H11 UNL     1      11.292  -2.641  -2.716 +0.00 +0.00    +0.149 HD 
DOCKED: ENDBRANCH  11  12
DOCKED: BRANCH  11  17
DOCKED: ATOM     17  C9  UNL     1      12.636  -1.723  -4.888 +0.00 +0.00    +0.012 C  
DOCKED: ATOM     18  C10 UNL     1      13.495  -1.693  -3.619 +0.00 +0.00    +0.009 C  
DOCKED: ATOM     19  C11 UNL     1      12.140  -0.312  -5.219 +0.00 +0.00    +0.009 C  
DOCKED: ENDBRANCH  11  17
DOCKED: ENDBRANCH   8  11
DOCKED: ENDBRANCH   6   7
DOCKED: BRANCH   6  20
DOCKED: ATOM     20  C3  UNL     1      12.178  -7.205  -4.455 +0.00 +0.00    +0.042 C  
DOCKED: BRANCH  20  21
DOCKED: ATOM     21  C2  UNL     1      11.654  -7.607  -3.076 +0.00 +0.00    +0.071 C  
DOCKED: BRANCH  21  23
DOCKED: ATOM     22  C1  UNL     1      12.852  -5.433  -1.813 +0.00 +0.00    +0.084 C  
DOCKED: ATOM     23  S1  UNL     1      11.214  -6.175  -2.025 +0.00 -0.00    -0.164 S  
DOCKED: ENDBRANCH  21  23
DOCKED: ENDBRANCH  20  21
DOCKED: ENDBRANCH   6  20
DOCKED: ENDBRANCH   2   6
DOCKED: ENDBRANCH   1   4
DOCKED: BRANCH   1  24
DOCKED: ATOM     24  C14 UNL     1       6.613  -6.971  -4.112 +0.00 +0.00    +0.028 C  
DOCKED: BRANCH  24  25
DOCKED: ATOM     25  C15 UNL     1       7.013  -5.963  -3.017 +0.00 -0.00    -0.015 C  
DOCKED: ATOM     26  C16 UNL     1       7.757  -6.695  -1.897 +0.00 +0.00    +0.007 C  
DOCKED: ATOM     27  C17 UNL     1       5.807  -5.222  -2.439 +0.00 +0.00    +0.007 C  
DOCKED: ENDBRANCH  24  25
DOCKED: ENDBRANCH   1  24
DOCKED: BRANCH   1  28
DOCKED: ATOM     28  C18 UNL     1       6.573  -5.872  -6.476 +0.00 +0.00    +0.143 C  
DOCKED: BRANCH  28  29
DOCKED: ATOM     29  O4  UNL     1       7.413  -4.778  -6.873 +0.00 -0.00    -0.389 OA 
DOCKED: ATOM     30  H34 UNL     1       7.858  -4.437  -6.078 +0.00 +0.00    +0.210 HD 
DOCKED: ENDBRANCH  28  29
DOCKED: BRANCH  28  31
DOCKED: ATOM     31  C19 UNL     1       5.190  -5.329  -6.085 +0.00 +0.00    +0.129 C  
DOCKED: BRANCH  31  32
DOCKED: ATOM     32  C20 UNL     1       5.056  -3.819  -6.020 +0.00 +0.00    +0.216 C  
DOCKED: ATOM     33  O5  UNL     1       4.262  -3.168  -6.689 +0.00 -0.00    -0.276 OA 
DOCKED: ATOM     34  N4  UNL     1       5.974  -3.222  -5.178 +0.00 -0.00    -0.304 N  
DOCKED: ATOM     35  H37 UNL     1       6.859  -3.711  -5.087 +0.00 +0.00    +0.149 HD 
DOCKED: BRANCH  34  36
DOCKED: ATOM     36  C21 UNL     1       6.076  -1.758  -5.166 +0.00 +0.00    +0.161 C  
DOCKED: BRANCH  36  37
DOCKED: ATOM     37  C22 UNL     1       6.958  -1.360  -6.370 +0.00 +0.00    +0.234 C  
DOCKED: ATOM     38  O6  UNL     1       6.642  -0.449  -7.136 +0.00 -0.00    -0.274 OA 
DOCKED: ATOM     39  N5  UNL     1       8.102  -2.107  -6.528 +0.00 -0.00    -0.301 N  
DOCKED: ATOM     40  H39 UNL     1       8.198  -2.961  -5.995 +0.00 +0.00    +0.150 HD 
DOCKED: BRANCH  39  41
DOCKED: ATOM     41  C23 UNL     1       8.956  -1.930  -7.700 +0.00 +0.00    +0.179 C  
DOCKED: ATOM     42  C24 UNL     1       9.547  -0.529  -7.717 +0.00 +0.00    +0.040 C  
DOCKED: BRANCH  41  43
DOCKED: ATOM     43  C25 UNL     1      10.073  -2.976  -7.692 +0.00 +0.00    +0.325 C  
DOCKED: ATOM     44  O7  UNL     1      11.176  -2.878  -8.212 +0.00 -0.00    -0.249 OA 
DOCKED: BRANCH  43  45
DOCKED: ATOM     45  O8  UNL     1       9.733  -4.101  -7.030 +0.00 -0.00    -0.479 OA 
DOCKED: ATOM     46  H44 UNL     1       9.248  -3.778  -6.241 +0.00 +0.00    +0.295 HD 
DOCKED: ENDBRANCH  43  45
DOCKED: ENDBRANCH  41  43
DOCKED: ENDBRANCH  39  41
DOCKED: ENDBRANCH  36  37
DOCKED: BRANCH  36  47
DOCKED: ATOM     47  C26 UNL     1       6.616  -1.254  -3.808 +0.00 +0.00    +0.012 C  
DOCKED: ATOM     48  C27 UNL     1       7.651  -0.131  -3.934 +0.00 +0.00    +0.009 C  
DOCKED: ATOM     49  C28 UNL     1       5.486  -0.818  -2.871 +0.00 +0.00    +0.009 C  
DOCKED: ENDBRANCH  36  47
DOCKED: ENDBRANCH  34  36
DOCKED: ENDBRANCH  31  32
DOCKED: ENDBRANCH  28  31
DOCKED: ENDBRANCH   1  28
DOCKED: TORSDOF 21
DOCKED: TER
DOCKED: ENDMDL
________________________________________________________________________________


    FINAL DOCKED STATE:
    ________________________


Run:   4 / 20
Time taken for this run:   1.141s

DOCKED: MODEL        4
DOCKED: USER    Run = 4
DOCKED: USER
DOCKED: USER    Estimated Free Energy of Binding    =  +6.26 kcal/mol  [=(1)+(2)+(3)-(4)]
DOCKED: USER
DOCKED: USER    (1) Final Intermolecular Energy     =  +0.00 kcal/mol
DOCKED: USER        vdW + Hbond + desolv Energy     =  +0.00 kcal/mol
DOCKED: USER        Electrostatic Energy            =  +0.00 kcal/mol
DOCKED: USER        Moving Ligand-Fixed Receptor    =  +0.00 kcal/mol
DOCKED: USER        Moving Ligand-Moving Receptor   =  +0.00 kcal/mol
DOCKED: USER    (2) Final Total Internal Energy     = -15.28 kcal/mol
DOCKED: USER    (3) Torsional Free Energy           =  +6.26 kcal/mol
DOCKED: USER    (4) Unbound System's Energy         = -15.28 kcal/mol
DOCKED: USER
DOCKED: USER
DOCKED: REMARK  Name = ligands/ligand_26.pdb
DOCKED: REMARK  30 active torsions:
DOCKED: REMARK  status: ('A' for Active; 'I' for Inactive)
DOCKED: REMARK    1  A    between atoms: C1_1  and  S1_2
DOCKED: REMARK    2  A    between atoms: S1_2  and  C2_3
DOCKED: REMARK    3  A    between atoms: C2_3  and  C3_4
DOCKED: REMARK    4  A    between atoms: C3_4  and  C4_5
DOCKED: REMARK    5  A    between atoms: C4_5  and  N1_6
DOCKED: REMARK    6  A    between atoms: C4_5  and  C12_17
DOCKED: REMARK    7  A    between atoms: C5_7  and  C6_9
DOCKED: REMARK    8  A    between atoms: C6_9  and  N2_10
DOCKED: REMARK    9  A    between atoms: C6_9  and  C9_14
DOCKED: REMARK   10  A    between atoms: C7_11  and  C8_12
DOCKED: REMARK   11  A    between atoms: C9_14  and  C10_15
DOCKED: REMARK   12  A    between atoms: C9_14  and  C11_16
DOCKED: REMARK   13  A    between atoms: N3_19  and  C13_20
DOCKED: REMARK   14  A    between atoms: C13_20  and  C14_21
DOCKED: REMARK   15  A    between atoms: C13_20  and  C18_25
DOCKED: REMARK   16  A    between atoms: C14_21  and  C15_22
DOCKED: REMARK   17  A    between atoms: C15_22  and  C16_23
DOCKED: REMARK   18  A    between atoms: C15_22  and  C17_24
DOCKED: REMARK   19  A    between atoms: C18_25  and  O4_26
DOCKED: REMARK   20  A    between atoms: C18_25  and  C19_27
DOCKED: REMARK   21  A    between atoms: C19_27  and  C20_28
DOCKED: REMARK   22  A    between atoms: N4_30  and  C21_31
DOCKED: REMARK   23  A    between atoms: C21_31  and  C22_32
DOCKED: REMARK   24  A    between atoms: C21_31  and  C26_40
DOCKED: REMARK   25  A    between atoms: N5_34  and  C23_35
DOCKED: REMARK   26  A    between atoms: C23_35  and  C24_36
DOCKED: REMARK   27  A    between atoms: C23_35  and  C25_37
DOCKED: REMARK   28  A    between atoms: C25_37  and  O8_39
DOCKED: REMARK   29  A    between atoms: C26_40  and  C27_41
DOCKED: REMARK   30  A    between atoms: C26_40  and  C28_42
DOCKED: REMARK                            x       y       z     vdW  Elec       q    Type
DOCKED: REMARK                         _______ _______ _______ _____ _____    ______ ____
DOCKED: USER                              x       y       z     vdW  Elec       q    Type
DOCKED: USER                           _______ _______ _______ _____ _____    ______ ____
DOCKED: ROOT
DOCKED: ATOM      1  C13 UNL     1       8.528  -3.093  -1.457 +0.00 +0.00    +0.102 C  
DOCKED: ENDROOT
DOCKED: BRANCH   1   4
DOCKED: ATOM      2  C12 UNL     1       7.489  -4.761   0.081 +0.00 +0.00    +0.234 C  
DOCKED: ATOM      3  O3  UNL     1       7.389  -3.993   1.039 +0.00 -0.00    -0.274 OA 
DOCKED: ATOM      4  N3  UNL     1       8.148  -4.456  -1.089 +0.00 -0.00    -0.308 N  
DOCKED: ATOM      5  H22 UNL     1       7.999  -5.092  -1.877 +0.00 +0.00    +0.149 HD 
DOCKED: BRANCH   2   6
DOCKED: ATOM      6  C4  UNL     1       6.866  -6.174   0.101 +0.00 +0.00    +0.160 C  
DOCKED: BRANCH   6   7
DOCKED: ATOM      7  N1  UNL     1       7.612  -6.974  -0.872 +0.00 -0.00    -0.302 N  
DOCKED: ATOM      8  C5  UNL     1       7.255  -8.270  -1.169 +0.00 +0.00    +0.234 C  
DOCKED: ATOM      9  O1  UNL     1       6.485  -8.934  -0.473 +0.00 -0.00    -0.274 OA 
DOCKED: ATOM     10  H9  UNL     1       8.025  -6.425  -1.623 +0.00 +0.00    +0.150 HD 
DOCKED: BRANCH   8  11
DOCKED: ATOM     11  C6  UNL     1       7.870  -8.823  -2.476 +0.00 +0.00    +0.161 C  
DOCKED: BRANCH  11  12
DOCKED: ATOM     12  N2  UNL     1       9.321  -8.669  -2.394 +0.00 -0.00    -0.304 N  
DOCKED: ATOM     13  C7  UNL     1       9.904  -7.432  -2.547 +0.00 +0.00    +0.211 C  
DOCKED: ATOM     14  C8  UNL     1      11.366  -7.400  -2.194 +0.00 +0.00    +0.109 C  
DOCKED: ATOM     15  O2  UNL     1       9.305  -6.435  -2.934 +0.00 -0.00    -0.276 OA 
DOCKED: ATOM     16  H11 UNL     1       9.774  -9.292  -1.734 +0.00 +0.00    +0.149 HD 
DOCKED: ENDBRANCH  11  12
DOCKED: BRANCH  11  17
DOCKED: ATOM     17  C9  UNL     1       7.448 -10.291  -2.719 +0.00 +0.00    +0.012 C  
DOCKED: ATOM     18  C10 UNL     1       8.406 -11.310  -2.091 +0.00 +0.00    +0.009 C  
DOCKED: ATOM     19  C11 UNL     1       7.293 -10.572  -4.217 +0.00 +0.00    +0.009 C  
DOCKED: ENDBRANCH  11  17
DOCKED: ENDBRANCH   8  11
DOCKED: ENDBRANCH   6   7
DOCKED: BRANCH   6  20
DOCKED: ATOM     20  C3  UNL     1       6.977  -6.785   1.499 +0.00 +0.00    +0.042 C  
DOCKED: BRANCH  20  21
DOCKED: ATOM     21  C2  UNL     1       8.337  -6.566   2.164 +0.00 +0.00    +0.071 C  
DOCKED: BRANCH  21  23
DOCKED: ATOM     22  C1  UNL     1       9.225  -9.125   1.513 +0.00 +0.00    +0.084 C  
DOCKED: ATOM     23  S1  UNL     1       9.712  -7.395   1.285 +0.00 -0.00    -0.164 S  
DOCKED: ENDBRANCH  21  23
DOCKED: ENDBRANCH  20  21
DOCKED: ENDBRANCH   6  20
DOCKED: ENDBRANCH   2   6
DOCKED: ENDBRANCH   1   4
DOCKED: BRANCH   1  24
DOCKED: ATOM     24  C14 UNL     1      10.012  -2.871  -1.102 +0.00 +0.00    +0.028 C  
DOCKED: BRANCH  24  25
DOCKED: ATOM     25  C15 UNL     1      10.933  -4.092  -1.290 +0.00 -0.00    -0.015 C  
DOCKED: ATOM     26  C16 UNL     1      11.428  -4.574   0.076 +0.00 +0.00    +0.007 C  
DOCKED: ATOM     27  C17 UNL     1      12.127  -3.785  -2.194 +0.00 +0.00    +0.007 C  
DOCKED: ENDBRANCH  24  25
DOCKED: ENDBRANCH   1  24
DOCKED: BRANCH   1  28
DOCKED: ATOM     28  C18 UNL     1       8.167  -2.772  -2.942 +0.00 +0.00    +0.143 C  
DOCKED: BRANCH  28  29
DOCKED: ATOM     29  O4  UNL     1       7.620  -3.932  -3.588 +0.00 -0.00    -0.389 OA 
DOCKED: ATOM     30  H34 UNL     1       8.147  -4.703  -3.318 +0.00 +0.00    +0.210 HD 
DOCKED: ENDBRANCH  28  29
DOCKED: BRANCH  28  31
DOCKED: ATOM     31  C19 UNL     1       9.247  -2.156  -3.845 +0.00 +0.00    +0.129 C  
DOCKED: BRANCH  31  32
DOCKED: ATOM     32  C20 UNL     1       9.627  -2.956  -5.077 +0.00 +0.00    +0.216 C  
DOCKED: ATOM     33  O5  UNL     1       9.543  -2.535  -6.225 +0.00 -0.00    -0.276 OA 
DOCKED: ATOM     34  N4  UNL     1      10.018  -4.250  -4.793 +0.00 -0.00    -0.304 N  
DOCKED: ATOM     35  H37 UNL     1       9.590  -4.659  -3.968 +0.00 +0.00    +0.149 HD 
DOCKED: BRANCH  34  36
DOCKED: ATOM     36  C21 UNL     1      10.233  -5.184  -5.904 +0.00 +0.00    +0.161 C  
DOCKED: BRANCH  36  37
DOCKED: ATOM     37  C22 UNL     1       8.846  -5.739  -6.298 +0.00 +0.00    +0.234 C  
DOCKED: ATOM     38  O6  UNL     1       8.486  -5.818  -7.473 +0.00 -0.00    -0.274 OA 
DOCKED: ATOM     39  N5  UNL     1       8.046  -6.115  -5.244 +0.00 -0.00    -0.301 N  
DOCKED: ATOM     40  H39 UNL     1       8.316  -5.835  -4.310 +0.00 +0.00    +0.150 HD 
DOCKED: BRANCH  39  41
DOCKED: ATOM     41  C23 UNL     1       6.662  -6.526  -5.464 +0.00 +0.00    +0.179 C  
DOCKED: ATOM     42  C24 UNL     1       6.615  -7.798  -6.295 +0.00 +0.00    +0.040 C  
DOCKED: BRANCH  41  43
DOCKED: ATOM     43  C25 UNL     1       5.966  -6.747  -4.119 +0.00 +0.00    +0.325 C  
DOCKED: ATOM     44  O7  UNL     1       4.996  -7.460  -3.900 +0.00 -0.00    -0.249 OA 
DOCKED: BRANCH  43  45
DOCKED: ATOM     45  O8  UNL     1       6.529  -6.043  -3.115 +0.00 -0.00    -0.479 OA 
DOCKED: ATOM     46  H44 UNL     1       7.492  -6.103  -3.292 +0.00 +0.00    +0.295 HD 
DOCKED: ENDBRANCH  43  45
DOCKED: ENDBRANCH  41  43
DOCKED: ENDBRANCH  39  41
DOCKED: ENDBRANCH  36  37
DOCKED: BRANCH  36  47
DOCKED: ATOM     47  C26 UNL     1      11.251  -6.280  -5.514 +0.00 +0.00    +0.012 C  
DOCKED: ATOM     48  C27 UNL     1      10.833  -7.691  -5.942 +0.00 +0.00    +0.009 C  
DOCKED: ATOM     49  C28 UNL     1      12.654  -5.970  -6.043 +0.00 +0.00    +0.009 C  
DOCKED: ENDBRANCH  36  47
DOCKED: ENDBRANCH  34  36
DOCKED: ENDBRANCH  31  32
DOCKED: ENDBRANCH  28  31
DOCKED: ENDBRANCH   1  28
DOCKED: TORSDOF 21
DOCKED: TER
DOCKED: ENDMDL
________________________________________________________________________________


    FINAL DOCKED STATE:
    ________________________


Run:   5 / 20
Time taken for this run:   1.141s

DOCKED: MODEL        5
DOCKED: USER    Run = 5
DOCKED: USER
DOCKED: USER    Estimated Free Energy of Binding    =  +6.26 kcal/mol  [=(1)+(2)+(3)-(4)]
DOCKED: USER
DOCKED: USER    (1) Final Intermolecular Energy     =  +0.00 kcal/mol
DOCKED: USER        vdW + Hbond + desolv Energy     =  +0.00 kcal/mol
DOCKED: USER        Electrostatic Energy            =  +0.00 kcal/mol
DOCKED: USER        Moving Ligand-Fixed Receptor    =  +0.00 kcal/mol
DOCKED: USER        Moving Ligand-Moving Receptor   =  +0.00 kcal/mol
DOCKED: USER    (2) Final Total Internal Energy     = -15.27 kcal/mol
DOCKED: USER    (3) Torsional Free Energy           =  +6.26 kcal/mol
DOCKED: USER    (4) Unbound System's Energy         = -15.27 kcal/mol
DOCKED: USER
DOCKED: USER
DOCKED: REMARK  Name = ligands/ligand_26.pdb
DOCKED: REMARK  30 active torsions:
DOCKED: REMARK  status: ('A' for Active; 'I' for Inactive)
DOCKED: REMARK    1  A    between atoms: C1_1  and  S1_2
DOCKED: REMARK    2  A    between atoms: S1_2  and  C2_3
DOCKED: REMARK    3  A    between atoms: C2_3  and  C3_4
DOCKED: REMARK    4  A    between atoms: C3_4  and  C4_5
DOCKED: REMARK    5  A    between atoms: C4_5  and  N1_6
DOCKED: REMARK    6  A    between atoms: C4_5  and  C12_17
DOCKED: REMARK    7  A    between atoms: C5_7  and  C6_9
DOCKED: REMARK    8  A    between atoms: C6_9  and  N2_10
DOCKED: REMARK    9  A    between atoms: C6_9  and  C9_14
DOCKED: REMARK   10  A    between atoms: C7_11  and  C8_12
DOCKED: REMARK   11  A    between atoms: C9_14  and  C10_15
DOCKED: REMARK   12  A    between atoms: C9_14  and  C11_16
DOCKED: REMARK   13  A    between atoms: N3_19  and  C13_20
DOCKED: REMARK   14  A    between atoms: C13_20  and  C14_21
DOCKED: REMARK   15  A    between atoms: C13_20  and  C18_25
DOCKED: REMARK   16  A    between atoms: C14_21  and  C15_22
DOCKED: REMARK   17  A    between atoms: C15_22  and  C16_23
DOCKED: REMARK   18  A    between atoms: C15_22  and  C17_24
DOCKED: REMARK   19  A    between atoms: C18_25  and  O4_26
DOCKED: REMARK   20  A    between atoms: C18_25  and  C19_27
DOCKED: REMARK   21  A    between atoms: C19_27  and  C20_28
DOCKED: REMARK   22  A    between atoms: N4_30  and  C21_31
DOCKED: REMARK   23  A    between atoms: C21_31  and  C22_32
DOCKED: REMARK   24  A    between atoms: C21_31  and  C26_40
DOCKED: REMARK   25  A    between atoms: N5_34  and  C23_35
DOCKED: REMARK   26  A    between atoms: C23_35  and  C24_36
DOCKED: REMARK   27  A    between atoms: C23_35  and  C25_37
DOCKED: REMARK   28  A    between atoms: C25_37  and  O8_39
DOCKED: REMARK   29  A    between atoms: C26_40  and  C27_41
DOCKED: REMARK   30  A    between atoms: C26_40  and  C28_42
DOCKED: REMARK                            x       y       z     vdW  Elec       q    Type
DOCKED: REMARK                         _______ _______ _______ _____ _____    ______ ____
DOCKED: USER                              x       y       z     vdW  Elec       q    Type
DOCKED: USER                           _______ _______ _______ _____ _____    ______ ____
DOCKED: ROOT
DOCKED: ATOM      1  C13 UNL     1      15.082  -3.993  -1.612 +0.00 +0.00    +0.102 C  
DOCKED: ENDROOT
DOCKED: BRANCH   1   4
DOCKED: ATOM      2  C12 UNL     1      16.940  -3.044  -0.244 +0.00 +0.00    +0.234 C  
DOCKED: ATOM      3  O3  UNL     1      16.976  -3.970   0.567 +0.00 -0.00    -0.274 OA 
DOCKED: ATOM      4  N3  UNL     1      15.979  -2.907  -1.220 +0.00 -0.00    -0.308 N  
DOCKED: ATOM      5  H22 UNL     1      16.162  -2.212  -1.949 +0.00 +0.00    +0.149 HD 
DOCKED: BRANCH   2   6
DOCKED: ATOM      6  C4  UNL     1      18.000  -1.920  -0.245 +0.00 +0.00    +0.160 C  
DOCKED: BRANCH   6   7
DOCKED: ATOM      7  N1  UNL     1      17.390  -0.770  -0.914 +0.00 -0.00    -0.302 N  
DOCKED: ATOM      8  C5  UNL     1      18.107   0.374  -1.184 +0.00 +0.00    +0.234 C  
DOCKED: ATOM      9  O1  UNL     1      19.194   0.628  -0.663 +0.00 -0.00    -0.274 OA 
DOCKED: ATOM     10  H9  UNL     1      16.656  -1.022  -1.574 +0.00 +0.00    +0.150 HD 
DOCKED: BRANCH   8  11
DOCKED: ATOM     11  C6  UNL     1      17.456   1.309  -2.230 +0.00 +0.00    +0.161 C  
DOCKED: BRANCH  11  12
DOCKED: ATOM     12  N2  UNL     1      16.099   1.616  -1.781 +0.00 -0.00    -0.304 N  
DOCKED: ATOM     13  C7  UNL     1      15.098   0.679  -1.885 +0.00 +0.00    +0.211 C  
DOCKED: ATOM     14  C8  UNL     1      13.833   1.056  -1.161 +0.00 +0.00    +0.109 C  
DOCKED: ATOM     15  O2  UNL     1      15.204  -0.373  -2.505 +0.00 -0.00    -0.276 OA 
DOCKED: ATOM     16  H11 UNL     1      16.052   2.225  -0.970 +0.00 +0.00    +0.149 HD 
DOCKED: ENDBRANCH  11  12
DOCKED: BRANCH  11  17
DOCKED: ATOM     17  C9  UNL     1      18.304   2.583  -2.451 +0.00 +0.00    +0.012 C  
DOCKED: ATOM     18  C10 UNL     1      18.191   3.594  -1.304 +0.00 +0.00    +0.009 C  
DOCKED: ATOM     19  C11 UNL     1      17.941   3.256  -3.779 +0.00 +0.00    +0.009 C  
DOCKED: ENDBRANCH  11  17
DOCKED: ENDBRANCH   8  11
DOCKED: ENDBRANCH   6   7
DOCKED: BRANCH   6  20
DOCKED: ATOM     20  C3  UNL     1      18.397  -1.561   1.188 +0.00 +0.00    +0.042 C  
DOCKED: BRANCH  20  21
DOCKED: ATOM     21  C2  UNL     1      17.215  -1.478   2.155 +0.00 +0.00    +0.071 C  
DOCKED: BRANCH  21  23
DOCKED: ATOM     22  C1  UNL     1      17.161   1.302   1.988 +0.00 +0.00    +0.084 C  
DOCKED: ATOM     23  S1  UNL     1      16.057  -0.115   1.763 +0.00 -0.00    -0.164 S  
DOCKED: ENDBRANCH  21  23
DOCKED: ENDBRANCH  20  21
DOCKED: ENDBRANCH   6  20
DOCKED: ENDBRANCH   2   6
DOCKED: ENDBRANCH   1   4
DOCKED: BRANCH   1  24
DOCKED: ATOM     24  C14 UNL     1      13.719  -3.796  -0.920 +0.00 +0.00    +0.028 C  
DOCKED: BRANCH  24  25
DOCKED: ATOM     25  C15 UNL     1      13.261  -2.334  -0.753 +0.00 -0.00    -0.015 C  
DOCKED: ATOM     26  C16 UNL     1      13.247  -1.970   0.734 +0.00 +0.00    +0.007 C  
DOCKED: ATOM     27  C17 UNL     1      11.880  -2.084  -1.359 +0.00 +0.00    +0.007 C  
DOCKED: ENDBRANCH  24  25
DOCKED: ENDBRANCH   1  24
DOCKED: BRANCH   1  28
DOCKED: ATOM     28  C18 UNL     1      15.000  -4.144  -3.164 +0.00 +0.00    +0.143 C  
DOCKED: BRANCH  28  29
DOCKED: ATOM     29  O4  UNL     1      15.774  -3.123  -3.810 +0.00 -0.00    -0.389 OA 
DOCKED: ATOM     30  H34 UNL     1      15.623  -2.287  -3.338 +0.00 +0.00    +0.210 HD 
DOCKED: ENDBRANCH  28  29
DOCKED: BRANCH  28  31
DOCKED: ATOM     31  C19 UNL     1      13.614  -4.217  -3.823 +0.00 +0.00    +0.129 C  
DOCKED: BRANCH  31  32
DOCKED: ATOM     32  C20 UNL     1      13.294  -3.131  -4.834 +0.00 +0.00    +0.216 C  
DOCKED: ATOM     33  O5  UNL     1      12.974  -3.344  -5.998 +0.00 -0.00    -0.276 OA 
DOCKED: ATOM     34  N4  UNL     1      13.466  -1.853  -4.339 +0.00 -0.00    -0.304 N  
DOCKED: ATOM     35  H37 UNL     1      14.179  -1.759  -3.622 +0.00 +0.00    +0.149 HD 
DOCKED: BRANCH  34  36
DOCKED: ATOM     36  C21 UNL     1      13.371  -0.717  -5.264 +0.00 +0.00    +0.161 C  
DOCKED: BRANCH  36  37
DOCKED: ATOM     37  C22 UNL     1      14.757  -0.562  -5.928 +0.00 +0.00    +0.234 C  
DOCKED: ATOM     38  O6  UNL     1      14.883  -0.384  -7.140 +0.00 -0.00    -0.274 OA 
DOCKED: ATOM     39  N5  UNL     1      15.830  -0.657  -5.071 +0.00 -0.00    -0.301 N  
DOCKED: ATOM     40  H39 UNL     1      15.669  -1.005  -4.135 +0.00 +0.00    +0.150 HD 
DOCKED: BRANCH  39  41
DOCKED: ATOM     41  C23 UNL     1      17.198  -0.667  -5.582 +0.00 +0.00    +0.179 C  
DOCKED: ATOM     42  C24 UNL     1      17.524   0.662  -6.244 +0.00 +0.00    +0.040 C  
DOCKED: BRANCH  41  43
DOCKED: ATOM     43  C25 UNL     1      18.177  -0.943  -4.439 +0.00 +0.00    +0.325 C  
DOCKED: ATOM     44  O7  UNL     1      19.360  -0.634  -4.392 +0.00 -0.00    -0.249 OA 
DOCKED: BRANCH  43  45
DOCKED: ATOM     45  O8  UNL     1      17.609  -1.609  -3.412 +0.00 -0.00    -0.479 OA 
DOCKED: ATOM     46  H44 UNL     1      16.721  -1.202  -3.325 +0.00 +0.00    +0.295 HD 
DOCKED: ENDBRANCH  43  45
DOCKED: ENDBRANCH  41  43
DOCKED: ENDBRANCH  39  41
DOCKED: ENDBRANCH  36  37
DOCKED: BRANCH  36  47
DOCKED: ATOM     47  C26 UNL     1      12.891   0.554  -4.529 +0.00 +0.00    +0.012 C  
DOCKED: ATOM     48  C27 UNL     1      13.683   1.815  -4.893 +0.00 +0.00    +0.009 C  
DOCKED: ATOM     49  C28 UNL     1      11.394   0.802  -4.735 +0.00 +0.00    +0.009 C  
DOCKED: ENDBRANCH  36  47
DOCKED: ENDBRANCH  34  36
DOCKED: ENDBRANCH  31  32
DOCKED: ENDBRANCH  28  31
DOCKED: ENDBRANCH   1  28
DOCKED: TORSDOF 21
DOCKED: TER
DOCKED: ENDMDL
________________________________________________________________________________


    FINAL DOCKED STATE:
    ________________________


Run:   6 / 20
Time taken for this run:   1.141s

DOCKED: MODEL        6
DOCKED: USER    Run = 6
DOCKED: USER
DOCKED: USER    Estimated Free Energy of Binding    =  +6.26 kcal/mol  [=(1)+(2)+(3)-(4)]
DOCKED: USER
DOCKED: USER    (1) Final Intermolecular Energy     =  +0.00 kcal/mol
DOCKED: USER        vdW + Hbond + desolv Energy     =  +0.00 kcal/mol
DOCKED: USER        Electrostatic Energy            =  +0.00 kcal/mol
DOCKED: USER        Moving Ligand-Fixed Receptor    =  +0.00 kcal/mol
DOCKED: USER        Moving Ligand-Moving Receptor   =  +0.00 kcal/mol
DOCKED: USER    (2) Final Total Internal Energy     = -15.15 kcal/mol
DOCKED: USER    (3) Torsional Free Energy           =  +6.26 kcal/mol
DOCKED: USER    (4) Unbound System's Energy         = -15.15 kcal/mol
DOCKED: USER
DOCKED: USER
DOCKED: REMARK  Name = ligands/ligand_26.pdb
DOCKED: REMARK  30 active torsions:
DOCKED: REMARK  status: ('A' for Active; 'I' for Inactive)
DOCKED: REMARK    1  A    between atoms: C1_1  and  S1_2
DOCKED: REMARK    2  A    between atoms: S1_2  and  C2_3
DOCKED: REMARK    3  A    between atoms: C2_3  and  C3_4
DOCKED: REMARK    4  A    between atoms: C3_4  and  C4_5
DOCKED: REMARK    5  A    between atoms: C4_5  and  N1_6
DOCKED: REMARK    6  A    between atoms: C4_5  and  C12_17
DOCKED: REMARK    7  A    between atoms: C5_7  and  C6_9
DOCKED: REMARK    8  A    between atoms: C6_9  and  N2_10
DOCKED: REMARK    9  A    between atoms: C6_9  and  C9_14
DOCKED: REMARK   10  A    between atoms: C7_11  and  C8_12
DOCKED: REMARK   11  A    between atoms: C9_14  and  C10_15
DOCKED: REMARK   12  A    between atoms: C9_14  and  C11_16
DOCKED: REMARK   13  A    between atoms: N3_19  and  C13_20
DOCKED: REMARK   14  A    between atoms: C13_20  and  C14_21
DOCKED: REMARK   15  A    between atoms: C13_20  and  C18_25
DOCKED: REMARK   16  A    between atoms: C14_21  and  C15_22
DOCKED: REMARK   17  A    between atoms: C15_22  and  C16_23
DOCKED: REMARK   18  A    between atoms: C15_22  and  C17_24
DOCKED: REMARK   19  A    between atoms: C18_25  and  O4_26
DOCKED: REMARK   20  A    between atoms: C18_25  and  C19_27
DOCKED: REMARK   21  A    between atoms: C19_27  and  C20_28
DOCKED: REMARK   22  A    between atoms: N4_30  and  C21_31
DOCKED: REMARK   23  A    between atoms: C21_31  and  C22_32
DOCKED: REMARK   24  A    between atoms: C21_31  and  C26_40
DOCKED: REMARK   25  A    between atoms: N5_34  and  C23_35
DOCKED: REMARK   26  A    between atoms: C23_35  and  C24_36
DOCKED: REMARK   27  A    between atoms: C23_35  and  C25_37
DOCKED: REMARK   28  A    between atoms: C25_37  and  O8_39
DOCKED: REMARK   29  A    between atoms: C26_40  and  C27_41
DOCKED: REMARK   30  A    between atoms: C26_40  and  C28_42
DOCKED: REMARK                            x       y       z     vdW  Elec       q    Type
DOCKED: REMARK                         _______ _______ _______ _____ _____    ______ ____
DOCKED: USER                              x       y       z     vdW  Elec       q    Type
DOCKED: USER                           _______ _______ _______ _____ _____    ______ ____
DOCKED: ROOT
DOCKED: ATOM      1  C13 UNL     1       7.898  -0.101   4.118 +0.00 +0.00    +0.102 C  
DOCKED: ENDROOT
DOCKED: BRANCH   1   4
DOCKED: ATOM      2  C12 UNL     1       5.461  -0.624   4.231 +0.00 +0.00    +0.234 C  
DOCKED: ATOM      3  O3  UNL     1       5.207   0.186   5.123 +0.00 -0.00    -0.274 OA 
DOCKED: ATOM      4  N3  UNL     1       6.733  -0.925   3.799 +0.00 -0.00    -0.308 N  
DOCKED: ATOM      5  H22 UNL     1       6.807  -1.461   2.930 +0.00 +0.00    +0.149 HD 
DOCKED: BRANCH   2   6
DOCKED: ATOM      6  C4  UNL     1       4.347  -1.398   3.491 +0.00 +0.00    +0.160 C  
DOCKED: BRANCH   6   7
DOCKED: ATOM      7  N1  UNL     1       4.997  -2.523   2.816 +0.00 -0.00    -0.302 N  
DOCKED: ATOM      8  C5  UNL     1       5.432  -3.630   3.511 +0.00 +0.00    +0.234 C  
DOCKED: ATOM      9  O1  UNL     1       5.561  -3.650   4.736 +0.00 -0.00    -0.274 OA 
DOCKED: ATOM     10  H9  UNL     1       4.668  -2.674   1.864 +0.00 +0.00    +0.150 HD 
DOCKED: BRANCH   8  11
DOCKED: ATOM     11  C6  UNL     1       5.715  -4.870   2.631 +0.00 +0.00    +0.161 C  
DOCKED: BRANCH  11  12
DOCKED: ATOM     12  N2  UNL     1       7.093  -5.292   2.872 +0.00 -0.00    -0.304 N  
DOCKED: ATOM     13  C7  UNL     1       8.117  -4.374   2.874 +0.00 +0.00    +0.211 C  
DOCKED: ATOM     14  C8  UNL     1       9.425  -4.922   3.377 +0.00 +0.00    +0.109 C  
DOCKED: ATOM     15  O2  UNL     1       7.996  -3.212   2.504 +0.00 -0.00    -0.276 OA 
DOCKED: ATOM     16  H11 UNL     1       7.188  -6.062   3.526 +0.00 +0.00    +0.149 HD 
DOCKED: ENDBRANCH  11  12
DOCKED: BRANCH  11  17
DOCKED: ATOM     17  C9  UNL     1       4.697  -6.001   2.909 +0.00 +0.00    +0.012 C  
DOCKED: ATOM     18  C10 UNL     1       4.916  -6.697   4.257 +0.00 +0.00    +0.009 C  
DOCKED: ATOM     19  C11 UNL     1       4.706  -7.033   1.778 +0.00 +0.00    +0.009 C  
DOCKED: ENDBRANCH  11  17
DOCKED: ENDBRANCH   8  11
DOCKED: ENDBRANCH   6   7
DOCKED: BRANCH   6  20
DOCKED: ATOM     20  C3  UNL     1       3.297  -1.899   4.484 +0.00 +0.00    +0.042 C  
DOCKED: BRANCH  20  21
DOCKED: ATOM     21  C2  UNL     1       1.962  -2.272   3.838 +0.00 +0.00    +0.071 C  
DOCKED: BRANCH  21  23
DOCKED: ATOM     22  C1  UNL     1       2.187  -3.764   1.496 +0.00 +0.00    +0.084 C  
DOCKED: ATOM     23  S1  UNL     1       1.898  -4.010   3.266 +0.00 -0.00    -0.164 S  
DOCKED: ENDBRANCH  21  23
DOCKED: ENDBRANCH  20  21
DOCKED: ENDBRANCH   6  20
DOCKED: ENDBRANCH   2   6
DOCKED: ENDBRANCH   1   4
DOCKED: BRANCH   1  24
DOCKED: ATOM     24  C14 UNL     1       8.525  -0.603   5.433 +0.00 +0.00    +0.028 C  
DOCKED: BRANCH  24  25
DOCKED: ATOM     25  C15 UNL     1       8.479  -2.127   5.656 +0.00 -0.00    -0.015 C  
DOCKED: ATOM     26  C16 UNL     1       7.499  -2.448   6.787 +0.00 +0.00    +0.007 C  
DOCKED: ATOM     27  C17 UNL     1       9.854  -2.709   5.982 +0.00 +0.00    +0.007 C  
DOCKED: ENDBRANCH  24  25
DOCKED: ENDBRANCH   1  24
DOCKED: BRANCH   1  28
DOCKED: ATOM     28  C18 UNL     1       8.895  -0.021   2.919 +0.00 +0.00    +0.143 C  
DOCKED: BRANCH  28  29
DOCKED: ATOM     29  O4  UNL     1       8.312  -0.594   1.739 +0.00 -0.00    -0.389 OA 
DOCKED: ATOM     30  H34 UNL     1       8.178  -1.544   1.901 +0.00 +0.00    +0.210 HD 
DOCKED: ENDBRANCH  28  29
DOCKED: BRANCH  28  31
DOCKED: ATOM     31  C19 UNL     1      10.313  -0.585   3.103 +0.00 +0.00    +0.129 C  
DOCKED: BRANCH  31  32
DOCKED: ATOM     32  C20 UNL     1      11.003  -1.086   1.848 +0.00 +0.00    +0.216 C  
DOCKED: ATOM     33  O5  UNL     1      11.907  -0.491   1.274 +0.00 -0.00    -0.276 OA 
DOCKED: ATOM     34  N4  UNL     1      10.467  -2.261   1.358 +0.00 -0.00    -0.304 N  
DOCKED: ATOM     35  H37 UNL     1       9.478  -2.396   1.547 +0.00 +0.00    +0.149 HD 
DOCKED: BRANCH  34  36
DOCKED: ATOM     36  C21 UNL     1      10.917  -2.755   0.052 +0.00 +0.00    +0.161 C  
DOCKED: BRANCH  36  37
DOCKED: ATOM     37  C22 UNL     1       9.701  -3.434  -0.615 +0.00 +0.00    +0.234 C  
DOCKED: ATOM     38  O6  UNL     1       9.823  -4.184  -1.583 +0.00 -0.00    -0.274 OA 
DOCKED: ATOM     39  N5  UNL     1       8.481  -3.123  -0.059 +0.00 -0.00    -0.301 N  
DOCKED: ATOM     40  H39 UNL     1       8.431  -2.351   0.593 +0.00 +0.00    +0.150 HD 
DOCKED: BRANCH  39  41
DOCKED: ATOM     41  C23 UNL     1       7.239  -3.585  -0.673 +0.00 +0.00    +0.179 C  
DOCKED: ATOM     42  C24 UNL     1       7.138  -5.099  -0.589 +0.00 +0.00    +0.040 C  
DOCKED: BRANCH  41  43
DOCKED: ATOM     43  C25 UNL     1       6.042  -2.934   0.023 +0.00 +0.00    +0.325 C  
DOCKED: ATOM     44  O7  UNL     1       4.867  -3.262  -0.073 +0.00 -0.00    -0.249 OA 
DOCKED: BRANCH  43  45
DOCKED: ATOM     45  O8  UNL     1       6.393  -1.891   0.803 +0.00 -0.00    -0.479 OA 
DOCKED: ATOM     46  H44 UNL     1       6.964  -2.290   1.494 +0.00 +0.00    +0.295 HD 
DOCKED: ENDBRANCH  43  45
DOCKED: ENDBRANCH  41  43
DOCKED: ENDBRANCH  39  41
DOCKED: ENDBRANCH  36  37
DOCKED: BRANCH  36  47
DOCKED: ATOM     47  C26 UNL     1      12.141  -3.687   0.206 +0.00 +0.00    +0.012 C  
DOCKED: ATOM     48  C27 UNL     1      13.478  -3.006  -0.103 +0.00 +0.00    +0.009 C  
DOCKED: ATOM     49  C28 UNL     1      12.194  -4.334   1.593 +0.00 +0.00    +0.009 C  
DOCKED: ENDBRANCH  36  47
DOCKED: ENDBRANCH  34  36
DOCKED: ENDBRANCH  31  32
DOCKED: ENDBRANCH  28  31
DOCKED: ENDBRANCH   1  28
DOCKED: TORSDOF 21
DOCKED: TER
DOCKED: ENDMDL
________________________________________________________________________________


    FINAL DOCKED STATE:
    ________________________


Run:   7 / 20
Time taken for this run:   1.141s

DOCKED: MODEL        7
DOCKED: USER    Run = 7
DOCKED: USER
DOCKED: USER    Estimated Free Energy of Binding    =  +6.26 kcal/mol  [=(1)+(2)+(3)-(4)]
DOCKED: USER
DOCKED: USER    (1) Final Intermolecular Energy     =  +0.00 kcal/mol
DOCKED: USER        vdW + Hbond + desolv Energy     =  +0.00 kcal/mol
DOCKED: USER        Electrostatic Energy            =  +0.00 kcal/mol
DOCKED: USER        Moving Ligand-Fixed Receptor    =  +0.00 kcal/mol
DOCKED: USER        Moving Ligand-Moving Receptor   =  +0.00 kcal/mol
DOCKED: USER    (2) Final Total Internal Energy     = -15.29 kcal/mol
DOCKED: USER    (3) Torsional Free Energy           =  +6.26 kcal/mol
DOCKED: USER    (4) Unbound System's Energy         = -15.29 kcal/mol
DOCKED: USER
DOCKED: USER
DOCKED: REMARK  Name = ligands/ligand_26.pdb
DOCKED: REMARK  30 active torsions:
DOCKED: REMARK  status: ('A' for Active; 'I' for Inactive)
DOCKED: REMARK    1  A    between atoms: C1_1  and  S1_2
DOCKED: REMARK    2  A    between atoms: S1_2  and  C2_3
DOCKED: REMARK    3  A    between atoms: C2_3  and  C3_4
DOCKED: REMARK    4  A    between atoms: C3_4  and  C4_5
DOCKED: REMARK    5  A    between atoms: C4_5  and  N1_6
DOCKED: REMARK    6  A    between atoms: C4_5  and  C12_17
DOCKED: REMARK    7  A    between atoms: C5_7  and  C6_9
DOCKED: REMARK    8  A    between atoms: C6_9  and  N2_10
DOCKED: REMARK    9  A    between atoms: C6_9  and  C9_14
DOCKED: REMARK   10  A    between atoms: C7_11  and  C8_12
DOCKED: REMARK   11  A    between atoms: C9_14  and  C10_15
DOCKED: REMARK   12  A    between atoms: C9_14  and  C11_16
DOCKED: REMARK   13  A    between atoms: N3_19  and  C13_20
DOCKED: REMARK   14  A    between atoms: C13_20  and  C14_21
DOCKED: REMARK   15  A    between atoms: C13_20  and  C18_25
DOCKED: REMARK   16  A    between atoms: C14_21  and  C15_22
DOCKED: REMARK   17  A    between atoms: C15_22  and  C16_23
DOCKED: REMARK   18  A    between atoms: C15_22  and  C17_24
DOCKED: REMARK   19  A    between atoms: C18_25  and  O4_26
DOCKED: REMARK   20  A    between atoms: C18_25  and  C19_27
DOCKED: REMARK   21  A    between atoms: C19_27  and  C20_28
DOCKED: REMARK   22  A    between atoms: N4_30  and  C21_31
DOCKED: REMARK   23  A    between atoms: C21_31  and  C22_32
DOCKED: REMARK   24  A    between atoms: C21_31  and  C26_40
DOCKED: REMARK   25  A    between atoms: N5_34  and  C23_35
DOCKED: REMARK   26  A    between atoms: C23_35  and  C24_36
DOCKED: REMARK   27  A    between atoms: C23_35  and  C25_37
DOCKED: REMARK   28  A    between atoms: C25_37  and  O8_39
DOCKED: REMARK   29  A    between atoms: C26_40  and  C27_41
DOCKED: REMARK   30  A    between atoms: C26_40  and  C28_42
DOCKED: REMARK                            x       y       z     vdW  Elec       q    Type
DOCKED: REMARK                         _______ _______ _______ _____ _____    ______ ____
DOCKED: USER                              x       y       z     vdW  Elec       q    Type
DOCKED: USER                           _______ _______ _______ _____ _____    ______ ____
DOCKED: ROOT
DOCKED: ATOM      1  C13 UNL     1       6.828  -0.465  -1.359 +0.00 +0.00    +0.102 C  
DOCKED: ENDROOT
DOCKED: BRANCH   1   4
DOCKED: ATOM      2  C12 UNL     1       7.719  -2.758  -0.941 +0.00 +0.00    +0.234 C  
DOCKED: ATOM      3  O3  UNL     1       7.019  -3.314  -1.789 +0.00 -0.00    -0.274 OA 
DOCKED: ATOM      4  N3  UNL     1       7.588  -1.438  -0.574 +0.00 -0.00    -0.308 N  
DOCKED: ATOM      5  H22 UNL     1       8.343  -1.043  -0.008 +0.00 +0.00    +0.149 HD 
DOCKED: BRANCH   2   6
DOCKED: ATOM      6  C4  UNL     1       8.841  -3.510  -0.192 +0.00 +0.00    +0.160 C  
DOCKED: BRANCH   6   7
DOCKED: ATOM      7  N1  UNL     1       9.069  -2.782   1.058 +0.00 -0.00    -0.302 N  
DOCKED: ATOM      8  C5  UNL     1      10.078  -3.135   1.926 +0.00 +0.00    +0.234 C  
DOCKED: ATOM      9  O1  UNL     1      10.672  -4.213   1.869 +0.00 -0.00    -0.274 OA 
DOCKED: ATOM     10  H9  UNL     1       8.828  -1.795   1.007 +0.00 +0.00    +0.150 HD 
DOCKED: BRANCH   8  11
DOCKED: ATOM     11  C6  UNL     1      10.439  -2.049   2.967 +0.00 +0.00    +0.161 C  
DOCKED: BRANCH  11  12
DOCKED: ATOM     12  N2  UNL     1       9.224  -1.704   3.702 +0.00 -0.00    -0.304 N  
DOCKED: ATOM     13  C7  UNL     1       8.238  -0.948   3.111 +0.00 +0.00    +0.211 C  
DOCKED: ATOM     14  C8  UNL     1       6.959  -0.889   3.901 +0.00 +0.00    +0.109 C  
DOCKED: ATOM     15  O2  UNL     1       8.369  -0.368   2.039 +0.00 -0.00    -0.276 OA 
DOCKED: ATOM     16  H11 UNL     1       8.905  -2.419   4.347 +0.00 +0.00    +0.149 HD 
DOCKED: ENDBRANCH  11  12
DOCKED: BRANCH  11  17
DOCKED: ATOM     17  C9  UNL     1      11.576  -2.522   3.903 +0.00 +0.00    +0.012 C  
DOCKED: ATOM     18  C10 UNL     1      11.115  -3.537   4.955 +0.00 +0.00    +0.009 C  
DOCKED: ATOM     19  C11 UNL     1      12.252  -1.328   4.586 +0.00 +0.00    +0.009 C  
DOCKED: ENDBRANCH  11  17
DOCKED: ENDBRANCH   8  11
DOCKED: ENDBRANCH   6   7
DOCKED: BRANCH   6  20
DOCKED: ATOM     20  C3  UNL     1       8.418  -4.952   0.094 +0.00 +0.00    +0.042 C  
DOCKED: BRANCH  20  21
DOCKED: ATOM     21  C2  UNL     1       6.976  -5.088   0.585 +0.00 +0.00    +0.071 C  
DOCKED: BRANCH  21  23
DOCKED: ATOM     22  C1  UNL     1       7.783  -5.358   3.238 +0.00 +0.00    +0.084 C  
DOCKED: ATOM     23  S1  UNL     1       6.697  -4.323   2.224 +0.00 -0.00    -0.164 S  
DOCKED: ENDBRANCH  21  23
DOCKED: ENDBRANCH  20  21
DOCKED: ENDBRANCH   6  20
DOCKED: ENDBRANCH   2   6
DOCKED: ENDBRANCH   1   4
DOCKED: BRANCH   1  24
DOCKED: ATOM     24  C14 UNL     1       5.423  -0.310  -0.746 +0.00 +0.00    +0.028 C  
DOCKED: BRANCH  24  25
DOCKED: ATOM     25  C15 UNL     1       5.349  -0.419   0.790 +0.00 -0.00    -0.015 C  
DOCKED: ATOM     26  C16 UNL     1       4.616  -1.706   1.176 +0.00 +0.00    +0.007 C  
DOCKED: ATOM     27  C17 UNL     1       4.652   0.785   1.425 +0.00 +0.00    +0.007 C  
DOCKED: ENDBRANCH  24  25
DOCKED: ENDBRANCH   1  24
DOCKED: BRANCH   1  28
DOCKED: ATOM     28  C18 UNL     1       7.609   0.877  -1.528 +0.00 +0.00    +0.143 C  
DOCKED: BRANCH  28  29
DOCKED: ATOM     29  O4  UNL     1       8.838   0.840  -0.788 +0.00 -0.00    -0.389 OA 
DOCKED: ATOM     30  H34 UNL     1       8.649   0.472   0.092 +0.00 +0.00    +0.210 HD 
DOCKED: ENDBRANCH  28  29
DOCKED: BRANCH  28  31
DOCKED: ATOM     31  C19 UNL     1       6.879   2.195  -1.225 +0.00 +0.00    +0.129 C  
DOCKED: BRANCH  31  32
DOCKED: ATOM     32  C20 UNL     1       7.459   3.041  -0.108 +0.00 +0.00    +0.216 C  
DOCKED: ATOM     33  O5  UNL     1       7.843   4.197  -0.246 +0.00 -0.00    -0.276 OA 
DOCKED: ATOM     34  N4  UNL     1       7.586   2.361   1.088 +0.00 -0.00    -0.304 N  
DOCKED: ATOM     35  H37 UNL     1       7.743   1.361   1.001 +0.00 +0.00    +0.149 HD 
DOCKED: BRANCH  34  36
DOCKED: ATOM     36  C21 UNL     1       8.302   3.003   2.196 +0.00 +0.00    +0.161 C  
DOCKED: BRANCH  36  37
DOCKED: ATOM     37  C22 UNL     1       9.810   2.805   1.930 +0.00 +0.00    +0.234 C  
DOCKED: ATOM     38  O6  UNL     1      10.618   3.727   2.037 +0.00 -0.00    -0.274 OA 
DOCKED: ATOM     39  N5  UNL     1      10.174   1.534   1.549 +0.00 -0.00    -0.301 N  
DOCKED: ATOM     40  H39 UNL     1       9.446   0.883   1.282 +0.00 +0.00    +0.150 HD 
DOCKED: BRANCH  39  41
DOCKED: ATOM     41  C23 UNL     1      11.543   1.239   1.134 +0.00 +0.00    +0.179 C  
DOCKED: ATOM     42  C24 UNL     1      12.505   1.464   2.289 +0.00 +0.00    +0.040 C  
DOCKED: BRANCH  41  43
DOCKED: ATOM     43  C25 UNL     1      11.636  -0.206   0.640 +0.00 +0.00    +0.325 C  
DOCKED: ATOM     44  O7  UNL     1      12.628  -0.922   0.642 +0.00 -0.00    -0.249 OA 
DOCKED: BRANCH  43  45
DOCKED: ATOM     45  O8  UNL     1      10.466  -0.672   0.157 +0.00 -0.00    -0.479 OA 
DOCKED: ATOM     46  H44 UNL     1       9.795  -0.335   0.789 +0.00 +0.00    +0.295 HD 
DOCKED: ENDBRANCH  43  45
DOCKED: ENDBRANCH  41  43
DOCKED: ENDBRANCH  39  41
DOCKED: ENDBRANCH  36  37
DOCKED: BRANCH  36  47
DOCKED: ATOM     47  C26 UNL     1       7.832   2.440   3.556 +0.00 +0.00    +0.012 C  
DOCKED: ATOM     48  C27 UNL     1       8.975   2.176   4.542 +0.00 +0.00    +0.009 C  
DOCKED: ATOM     49  C28 UNL     1       6.776   3.334   4.211 +0.00 +0.00    +0.009 C  
DOCKED: ENDBRANCH  36  47
DOCKED: ENDBRANCH  34  36
DOCKED: ENDBRANCH  31  32
DOCKED: ENDBRANCH  28  31
DOCKED: ENDBRANCH   1  28
DOCKED: TORSDOF 21
DOCKED: TER
DOCKED: ENDMDL
________________________________________________________________________________


    FINAL DOCKED STATE:
    ________________________


Run:   8 / 20
Time taken for this run:   1.141s

DOCKED: MODEL        8
DOCKED: USER    Run = 8
DOCKED: USER
DOCKED: USER    Estimated Free Energy of Binding    =  +6.26 kcal/mol  [=(1)+(2)+(3)-(4)]
DOCKED: USER
DOCKED: USER    (1) Final Intermolecular Energy     =  +0.00 kcal/mol
DOCKED: USER        vdW + Hbond + desolv Energy     =  +0.00 kcal/mol
DOCKED: USER        Electrostatic Energy            =  +0.00 kcal/mol
DOCKED: USER        Moving Ligand-Fixed Receptor    =  +0.00 kcal/mol
DOCKED: USER        Moving Ligand-Moving Receptor   =  +0.00 kcal/mol
DOCKED: USER    (2) Final Total Internal Energy     = -15.24 kcal/mol
DOCKED: USER    (3) Torsional Free Energy           =  +6.26 kcal/mol
DOCKED: USER    (4) Unbound System's Energy         = -15.24 kcal/mol
DOCKED: USER
DOCKED: USER
DOCKED: REMARK  Name = ligands/ligand_26.pdb
DOCKED: REMARK  30 active torsions:
DOCKED: REMARK  status: ('A' for Active; 'I' for Inactive)
DOCKED: REMARK    1  A    between atoms: C1_1  and  S1_2
DOCKED: REMARK    2  A    between atoms: S1_2  and  C2_3
DOCKED: REMARK    3  A    between atoms: C2_3  and  C3_4
DOCKED: REMARK    4  A    between atoms: C3_4  and  C4_5
DOCKED: REMARK    5  A    between atoms: C4_5  and  N1_6
DOCKED: REMARK    6  A    between atoms: C4_5  and  C12_17
DOCKED: REMARK    7  A    between atoms: C5_7  and  C6_9
DOCKED: REMARK    8  A    between atoms: C6_9  and  N2_10
DOCKED: REMARK    9  A    between atoms: C6_9  and  C9_14
DOCKED: REMARK   10  A    between atoms: C7_11  and  C8_12
DOCKED: REMARK   11  A    between atoms: C9_14  and  C10_15
DOCKED: REMARK   12  A    between atoms: C9_14  and  C11_16
DOCKED: REMARK   13  A    between atoms: N3_19  and  C13_20
DOCKED: REMARK   14  A    between atoms: C13_20  and  C14_21
DOCKED: REMARK   15  A    between atoms: C13_20  and  C18_25
DOCKED: REMARK   16  A    between atoms: C14_21  and  C15_22
DOCKED: REMARK   17  A    between atoms: C15_22  and  C16_23
DOCKED: REMARK   18  A    between atoms: C15_22  and  C17_24
DOCKED: REMARK   19  A    between atoms: C18_25  and  O4_26
DOCKED: REMARK   20  A    between atoms: C18_25  and  C19_27
DOCKED: REMARK   21  A    between atoms: C19_27  and  C20_28
DOCKED: REMARK   22  A    between atoms: N4_30  and  C21_31
DOCKED: REMARK   23  A    between atoms: C21_31  and  C22_32
DOCKED: REMARK   24  A    between atoms: C21_31  and  C26_40
DOCKED: REMARK   25  A    between atoms: N5_34  and  C23_35
DOCKED: REMARK   26  A    between atoms: C23_35  and  C24_36
DOCKED: REMARK   27  A    between atoms: C23_35  and  C25_37
DOCKED: REMARK   28  A    between atoms: C25_37  and  O8_39
DOCKED: REMARK   29  A    between atoms: C26_40  and  C27_41
DOCKED: REMARK   30  A    between atoms: C26_40  and  C28_42
DOCKED: REMARK                            x       y       z     vdW  Elec       q    Type
DOCKED: REMARK                         _______ _______ _______ _____ _____    ______ ____
DOCKED: USER                              x       y       z     vdW  Elec       q    Type
DOCKED: USER                           _______ _______ _______ _____ _____    ______ ____
DOCKED: ROOT
DOCKED: ATOM      1  C13 UNL     1       9.326   5.792  -0.553 +0.00 +0.00    +0.102 C  
DOCKED: ENDROOT
DOCKED: BRANCH   1   4
DOCKED: ATOM      2  C12 UNL     1       9.390   3.928  -2.210 +0.00 +0.00    +0.234 C  
DOCKED: ATOM      3  O3  UNL     1      10.251   4.438  -2.929 +0.00 -0.00    -0.274 OA 
DOCKED: ATOM      4  N3  UNL     1       8.792   4.567  -1.147 +0.00 -0.00    -0.308 N  
DOCKED: ATOM      5  H22 UNL     1       8.240   3.983  -0.513 +0.00 +0.00    +0.149 HD 
DOCKED: BRANCH   2   6
DOCKED: ATOM      6  C4  UNL     1       8.887   2.486  -2.439 +0.00 +0.00    +0.160 C  
DOCKED: BRANCH   6   7
DOCKED: ATOM      7  N1  UNL     1       9.420   1.678  -1.341 +0.00 -0.00    -0.302 N  
DOCKED: ATOM      8  C5  UNL     1       8.840   1.682  -0.092 +0.00 +0.00    +0.234 C  
DOCKED: ATOM      9  O1  UNL     1       8.031   2.536   0.274 +0.00 -0.00    -0.274 OA 
DOCKED: ATOM     10  H9  UNL     1       9.855   0.809  -1.645 +0.00 +0.00    +0.150 HD 
DOCKED: BRANCH   8  11
DOCKED: ATOM     11  C6  UNL     1       9.257   0.500   0.815 +0.00 +0.00    +0.161 C  
DOCKED: BRANCH  11  12
DOCKED: ATOM     12  N2  UNL     1      10.026   1.038   1.936 +0.00 -0.00    -0.304 N  
DOCKED: ATOM     13  C7  UNL     1      10.925   2.061   1.742 +0.00 +0.00    +0.211 C  
DOCKED: ATOM     14  C8  UNL     1      11.447   2.662   3.019 +0.00 +0.00    +0.109 C  
DOCKED: ATOM     15  O2  UNL     1      11.282   2.460   0.639 +0.00 -0.00    -0.276 OA 
DOCKED: ATOM     16  H11 UNL     1       9.528   1.049   2.820 +0.00 +0.00    +0.149 HD 
DOCKED: ENDBRANCH  11  12
DOCKED: BRANCH  11  17
DOCKED: ATOM     17  C9  UNL     1       8.027  -0.312   1.282 +0.00 +0.00    +0.012 C  
DOCKED: ATOM     18  C10 UNL     1       8.368  -1.751   1.687 +0.00 +0.00    +0.009 C  
DOCKED: ATOM     19  C11 UNL     1       6.935  -0.314   0.208 +0.00 +0.00    +0.009 C  
DOCKED: ENDBRANCH  11  17
DOCKED: ENDBRANCH   8  11
DOCKED: ENDBRANCH   6   7
DOCKED: BRANCH   6  20
DOCKED: ATOM     20  C3  UNL     1       7.358   2.449  -2.442 +0.00 +0.00    +0.042 C  
DOCKED: BRANCH  20  21
DOCKED: ATOM     21  C2  UNL     1       6.718   3.368  -3.483 +0.00 +0.00    +0.071 C  
DOCKED: BRANCH  21  23
DOCKED: ATOM     22  C1  UNL     1       5.316   0.966  -3.627 +0.00 +0.00    +0.084 C  
DOCKED: ATOM     23  S1  UNL     1       5.199   2.670  -4.228 +0.00 -0.00    -0.164 S  
DOCKED: ENDBRANCH  21  23
DOCKED: ENDBRANCH  20  21
DOCKED: ENDBRANCH   6  20
DOCKED: ENDBRANCH   2   6
DOCKED: ENDBRANCH   1   4
DOCKED: BRANCH   1  24
DOCKED: ATOM     24  C14 UNL     1       8.639   7.008  -1.204 +0.00 +0.00    +0.028 C  
DOCKED: BRANCH  24  25
DOCKED: ATOM     25  C15 UNL     1       7.337   6.708  -1.971 +0.00 -0.00    -0.015 C  
DOCKED: ATOM     26  C16 UNL     1       7.618   6.709  -3.476 +0.00 +0.00    +0.007 C  
DOCKED: ATOM     27  C17 UNL     1       6.229   7.712  -1.651 +0.00 +0.00    +0.007 C  
DOCKED: ENDBRANCH  24  25
DOCKED: ENDBRANCH   1  24
DOCKED: BRANCH   1  28
DOCKED: ATOM     28  C18 UNL     1       9.240   5.763   1.007 +0.00 +0.00    +0.143 C  
DOCKED: BRANCH  28  29
DOCKED: ATOM     29  O4  UNL     1       9.034   4.422   1.474 +0.00 -0.00    -0.389 OA 
DOCKED: ATOM     30  H34 UNL     1       9.624   3.834   0.972 +0.00 +0.00    +0.210 HD 
DOCKED: ENDBRANCH  28  29
DOCKED: BRANCH  28  31
DOCKED: ATOM     31  C19 UNL     1       8.239   6.697   1.705 +0.00 +0.00    +0.129 C  
DOCKED: BRANCH  31  32
DOCKED: ATOM     32  C20 UNL     1       6.772   6.340   1.558 +0.00 +0.00    +0.216 C  
DOCKED: ATOM     33  O5  UNL     1       5.862   6.902   2.156 +0.00 -0.00    -0.276 OA 
DOCKED: ATOM     34  N4  UNL     1       6.551   5.256   0.730 +0.00 -0.00    -0.304 N  
DOCKED: ATOM     35  H37 UNL     1       7.301   4.572   0.705 +0.00 +0.00    +0.149 HD 
DOCKED: BRANCH  34  36
DOCKED: ATOM     36  C21 UNL     1       5.199   4.692   0.649 +0.00 +0.00    +0.161 C  
DOCKED: BRANCH  36  37
DOCKED: ATOM     37  C22 UNL     1       5.054   3.704   1.827 +0.00 +0.00    +0.234 C  
DOCKED: ATOM     38  O6  UNL     1       3.968   3.483   2.363 +0.00 -0.00    -0.274 OA 
DOCKED: ATOM     39  N5  UNL     1       6.225   3.110   2.239 +0.00 -0.00    -0.301 N  
DOCKED: ATOM     40  H39 UNL     1       7.101   3.484   1.899 +0.00 +0.00    +0.150 HD 
DOCKED: BRANCH  39  41
DOCKED: ATOM     41  C23 UNL     1       6.256   2.262   3.428 +0.00 +0.00    +0.179 C  
DOCKED: ATOM     42  C24 UNL     1       5.483   0.976   3.181 +0.00 +0.00    +0.040 C  
DOCKED: BRANCH  41  43
DOCKED: ATOM     43  C25 UNL     1       7.706   1.944   3.801 +0.00 +0.00    +0.325 C  
DOCKED: ATOM     44  O7  UNL     1       8.108   0.977   4.435 +0.00 -0.00    -0.249 OA 
DOCKED: BRANCH  43  45
DOCKED: ATOM     45  O8  UNL     1       8.577   2.874   3.358 +0.00 -0.00    -0.479 OA 
DOCKED: ATOM     46  H44 UNL     1       8.473   2.855   2.383 +0.00 +0.00    +0.295 HD 
DOCKED: ENDBRANCH  43  45
DOCKED: ENDBRANCH  41  43
DOCKED: ENDBRANCH  39  41
DOCKED: ENDBRANCH  36  37
DOCKED: BRANCH  36  47
DOCKED: ATOM     47  C26 UNL     1       4.953   4.047  -0.734 +0.00 +0.00    +0.012 C  
DOCKED: ATOM     48  C27 UNL     1       4.442   2.604  -0.661 +0.00 +0.00    +0.009 C  
DOCKED: ATOM     49  C28 UNL     1       4.010   4.890  -1.597 +0.00 +0.00    +0.009 C  
DOCKED: ENDBRANCH  36  47
DOCKED: ENDBRANCH  34  36
DOCKED: ENDBRANCH  31  32
DOCKED: ENDBRANCH  28  31
DOCKED: ENDBRANCH   1  28
DOCKED: TORSDOF 21
DOCKED: TER
DOCKED: ENDMDL
________________________________________________________________________________


    FINAL DOCKED STATE:
    ________________________


Run:   9 / 20
Time taken for this run:   1.141s

DOCKED: MODEL        9
DOCKED: USER    Run = 9
DOCKED: USER
DOCKED: USER    Estimated Free Energy of Binding    =  +6.26 kcal/mol  [=(1)+(2)+(3)-(4)]
DOCKED: USER
DOCKED: USER    (1) Final Intermolecular Energy     =  +0.00 kcal/mol
DOCKED: USER        vdW + Hbond + desolv Energy     =  +0.00 kcal/mol
DOCKED: USER        Electrostatic Energy            =  +0.00 kcal/mol
DOCKED: USER        Moving Ligand-Fixed Receptor    =  +0.00 kcal/mol
DOCKED: USER        Moving Ligand-Moving Receptor   =  +0.00 kcal/mol
DOCKED: USER    (2) Final Total Internal Energy     = -15.28 kcal/mol
DOCKED: USER    (3) Torsional Free Energy           =  +6.26 kcal/mol
DOCKED: USER    (4) Unbound System's Energy         = -15.28 kcal/mol
DOCKED: USER
DOCKED: USER
DOCKED: REMARK  Name = ligands/ligand_26.pdb
DOCKED: REMARK  30 active torsions:
DOCKED: REMARK  status: ('A' for Active; 'I' for Inactive)
DOCKED: REMARK    1  A    between atoms: C1_1  and  S1_2
DOCKED: REMARK    2  A    between atoms: S1_2  and  C2_3
DOCKED: REMARK    3  A    between atoms: C2_3  and  C3_4
DOCKED: REMARK    4  A    between atoms: C3_4  and  C4_5
DOCKED: REMARK    5  A    between atoms: C4_5  and  N1_6
DOCKED: REMARK    6  A    between atoms: C4_5  and  C12_17
DOCKED: REMARK    7  A    between atoms: C5_7  and  C6_9
DOCKED: REMARK    8  A    between atoms: C6_9  and  N2_10
DOCKED: REMARK    9  A    between atoms: C6_9  and  C9_14
DOCKED: REMARK   10  A    between atoms: C7_11  and  C8_12
DOCKED: REMARK   11  A    between atoms: C9_14  and  C10_15
DOCKED: REMARK   12  A    between atoms: C9_14  and  C11_16
DOCKED: REMARK   13  A    between atoms: N3_19  and  C13_20
DOCKED: REMARK   14  A    between atoms: C13_20  and  C14_21
DOCKED: REMARK   15  A    between atoms: C13_20  and  C18_25
DOCKED: REMARK   16  A    between atoms: C14_21  and  C15_22
DOCKED: REMARK   17  A    between atoms: C15_22  and  C16_23
DOCKED: REMARK   18  A    between atoms: C15_22  and  C17_24
DOCKED: REMARK   19  A    between atoms: C18_25  and  O4_26
DOCKED: REMARK   20  A    between atoms: C18_25  and  C19_27
DOCKED: REMARK   21  A    between atoms: C19_27  and  C20_28
DOCKED: REMARK   22  A    between atoms: N4_30  and  C21_31
DOCKED: REMARK   23  A    between atoms: C21_31  and  C22_32
DOCKED: REMARK   24  A    between atoms: C21_31  and  C26_40
DOCKED: REMARK   25  A    between atoms: N5_34  and  C23_35
DOCKED: REMARK   26  A    between atoms: C23_35  and  C24_36
DOCKED: REMARK   27  A    between atoms: C23_35  and  C25_37
DOCKED: REMARK   28  A    between atoms: C25_37  and  O8_39
DOCKED: REMARK   29  A    between atoms: C26_40  and  C27_41
DOCKED: REMARK   30  A    between atoms: C26_40  and  C28_42
DOCKED: REMARK                            x       y       z     vdW  Elec       q    Type
DOCKED: REMARK                         _______ _______ _______ _____ _____    ______ ____
DOCKED: USER                              x       y       z     vdW  Elec       q    Type
DOCKED: USER                           _______ _______ _______ _____ _____    ______ ____
DOCKED: ROOT
DOCKED: ATOM      1  C13 UNL     1      12.148 -10.426  -2.327 +0.00 +0.00    +0.102 C  
DOCKED: ENDROOT
DOCKED: BRANCH   1   4
DOCKED: ATOM      2  C12 UNL     1      12.490  -8.916  -4.284 +0.00 +0.00    +0.234 C  
DOCKED: ATOM      3  O3  UNL     1      11.610  -9.423  -4.980 +0.00 -0.00    -0.274 OA 
DOCKED: ATOM      4  N3  UNL     1      12.906  -9.422  -3.073 +0.00 -0.00    -0.308 N  
DOCKED: ATOM      5  H22 UNL     1      13.499  -8.815  -2.502 +0.00 +0.00    +0.149 HD 
DOCKED: BRANCH   2   6
DOCKED: ATOM      6  C4  UNL     1      13.227  -7.628  -4.712 +0.00 +0.00    +0.160 C  
DOCKED: BRANCH   6   7
DOCKED: ATOM      7  N1  UNL     1      14.509  -7.625  -4.005 +0.00 -0.00    -0.302 N  
DOCKED: ATOM      8  C5  UNL     1      15.364  -6.546  -4.061 +0.00 +0.00    +0.234 C  
DOCKED: ATOM      9  O1  UNL     1      15.261  -5.647  -4.897 +0.00 -0.00    -0.274 OA 
DOCKED: ATOM     10  H9  UNL     1      14.500  -8.163  -3.140 +0.00 +0.00    +0.150 HD 
DOCKED: BRANCH   8  11
DOCKED: ATOM     11  C6  UNL     1      16.452  -6.531  -2.963 +0.00 +0.00    +0.161 C  
DOCKED: BRANCH  11  12
DOCKED: ATOM     12  N2  UNL     1      17.175  -7.800  -3.023 +0.00 -0.00    -0.304 N  
DOCKED: ATOM     13  C7  UNL     1      16.600  -8.957  -2.551 +0.00 +0.00    +0.211 C  
DOCKED: ATOM     14  C8  UNL     1      17.362 -10.205  -2.907 +0.00 +0.00    +0.109 C  
DOCKED: ATOM     15  O2  UNL     1      15.562  -8.991  -1.899 +0.00 -0.00    -0.276 OA 
DOCKED: ATOM     16  H11 UNL     1      17.775  -7.904  -3.834 +0.00 +0.00    +0.149 HD 
DOCKED: ENDBRANCH  11  12
DOCKED: BRANCH  11  17
DOCKED: ATOM     17  C9  UNL     1      17.392  -5.313  -3.119 +0.00 +0.00    +0.012 C  
DOCKED: ATOM     18  C10 UNL     1      18.418  -5.478  -4.245 +0.00 +0.00    +0.009 C  
DOCKED: ATOM     19  C11 UNL     1      18.107  -5.003  -1.799 +0.00 +0.00    +0.009 C  
DOCKED: ENDBRANCH  11  17
DOCKED: ENDBRANCH   8  11
DOCKED: ENDBRANCH   6   7
DOCKED: BRANCH   6  20
DOCKED: ATOM     20  C3  UNL     1      13.448  -7.620  -6.226 +0.00 +0.00    +0.042 C  
DOCKED: BRANCH  20  21
DOCKED: ATOM     21  C2  UNL     1      13.921  -8.960  -6.790 +0.00 +0.00    +0.071 C  
DOCKED: BRANCH  21  23
DOCKED: ATOM     22  C1  UNL     1      16.576  -8.124  -6.908 +0.00 +0.00    +0.084 C  
DOCKED: ATOM     23  S1  UNL     1      15.578  -9.453  -6.188 +0.00 -0.00    -0.164 S  
DOCKED: ENDBRANCH  21  23
DOCKED: ENDBRANCH  20  21
DOCKED: ENDBRANCH   6  20
DOCKED: ENDBRANCH   2   6
DOCKED: ENDBRANCH   1   4
DOCKED: BRANCH   1  24
DOCKED: ATOM     24  C14 UNL     1      12.734 -11.821  -2.619 +0.00 +0.00    +0.028 C  
DOCKED: BRANCH  24  25
DOCKED: ATOM     25  C15 UNL     1      14.262 -11.875  -2.810 +0.00 -0.00    -0.015 C  
DOCKED: ATOM     26  C16 UNL     1      14.583 -12.219  -4.267 +0.00 +0.00    +0.007 C  
DOCKED: ATOM     27  C17 UNL     1      14.929 -12.890  -1.881 +0.00 +0.00    +0.007 C  
DOCKED: ENDBRANCH  24  25
DOCKED: ENDBRANCH   1  24
DOCKED: BRANCH   1  28
DOCKED: ATOM     28  C18 UNL     1      12.057 -10.070  -0.809 +0.00 +0.00    +0.143 C  
DOCKED: BRANCH  28  29
DOCKED: ATOM     29  O4  UNL     1      12.831  -8.897  -0.519 +0.00 -0.00    -0.389 OA 
DOCKED: ATOM     30  H34 UNL     1      13.671  -8.964  -1.005 +0.00 +0.00    +0.210 HD 
DOCKED: ENDBRANCH  28  29
DOCKED: BRANCH  28  31
DOCKED: ATOM     31  C19 UNL     1      12.391 -11.160   0.222 +0.00 +0.00    +0.129 C  
DOCKED: BRANCH  31  32
DOCKED: ATOM     32  C20 UNL     1      13.546 -10.864   1.161 +0.00 +0.00    +0.216 C  
DOCKED: ATOM     33  O5  UNL     1      13.452 -10.836   2.382 +0.00 -0.00    -0.276 OA 
DOCKED: ATOM     34  N4  UNL     1      14.720 -10.551   0.504 +0.00 -0.00    -0.304 N  
DOCKED: ATOM     35  H37 UNL     1      14.604 -10.106  -0.401 +0.00 +0.00    +0.149 HD 
DOCKED: BRANCH  34  36
DOCKED: ATOM     36  C21 UNL     1      15.861 -10.065   1.288 +0.00 +0.00    +0.161 C  
DOCKED: BRANCH  36  37
DOCKED: ATOM     37  C22 UNL     1      15.617  -8.563   1.552 +0.00 +0.00    +0.234 C  
DOCKED: ATOM     38  O6  UNL     1      15.768  -8.064   2.667 +0.00 -0.00    -0.274 OA 
DOCKED: ATOM     39  N5  UNL     1      15.202  -7.838   0.458 +0.00 -0.00    -0.301 N  
DOCKED: ATOM     40  H39 UNL     1      14.902  -8.340  -0.368 +0.00 +0.00    +0.150 HD 
DOCKED: BRANCH  39  41
DOCKED: ATOM     41  C23 UNL     1      14.803  -6.440   0.595 +0.00 +0.00    +0.179 C  
DOCKED: ATOM     42  C24 UNL     1      15.985  -5.593   1.038 +0.00 +0.00    +0.040 C  
DOCKED: BRANCH  41  43
DOCKED: ATOM     43  C25 UNL     1      14.253  -5.924  -0.737 +0.00 +0.00    +0.325 C  
DOCKED: ATOM     44  O7  UNL     1      14.222  -4.763  -1.121 +0.00 -0.00    -0.249 OA 
DOCKED: BRANCH  43  45
DOCKED: ATOM     45  O8  UNL     1      13.759  -6.909  -1.516 +0.00 -0.00    -0.479 OA 
DOCKED: ATOM     46  H44 UNL     1      14.391  -7.649  -1.397 +0.00 +0.00    +0.295 HD 
DOCKED: ENDBRANCH  43  45
DOCKED: ENDBRANCH  41  43
DOCKED: ENDBRANCH  39  41
DOCKED: ENDBRANCH  36  37
DOCKED: BRANCH  36  47
DOCKED: ATOM     47  C26 UNL     1      17.194 -10.358   0.563 +0.00 +0.00    +0.012 C  
DOCKED: ATOM     48  C27 UNL     1      18.177  -9.182   0.578 +0.00 +0.00    +0.009 C  
DOCKED: ATOM     49  C28 UNL     1      17.877 -11.615   1.108 +0.00 +0.00    +0.009 C  
DOCKED: ENDBRANCH  36  47
DOCKED: ENDBRANCH  34  36
DOCKED: ENDBRANCH  31  32
DOCKED: ENDBRANCH  28  31
DOCKED: ENDBRANCH   1  28
DOCKED: TORSDOF 21
DOCKED: TER
DOCKED: ENDMDL
________________________________________________________________________________


    FINAL DOCKED STATE:
    ________________________


Run:   10 / 20
Time taken for this run:   1.141s

DOCKED: MODEL        10
DOCKED: USER    Run = 10
DOCKED: USER
DOCKED: USER    Estimated Free Energy of Binding    =  +6.26 kcal/mol  [=(1)+(2)+(3)-(4)]
DOCKED: USER
DOCKED: USER    (1) Final Intermolecular Energy     =  +0.00 kcal/mol
DOCKED: USER        vdW + Hbond + desolv Energy     =  +0.00 kcal/mol
DOCKED: USER        Electrostatic Energy            =  +0.00 kcal/mol
DOCKED: USER        Moving Ligand-Fixed Receptor    =  +0.00 kcal/mol
DOCKED: USER        Moving Ligand-Moving Receptor   =  +0.00 kcal/mol
DOCKED: USER    (2) Final Total Internal Energy     = -15.28 kcal/mol
DOCKED: USER    (3) Torsional Free Energy           =  +6.26 kcal/mol
DOCKED: USER    (4) Unbound System's Energy         = -15.28 kcal/mol
DOCKED: USER
DOCKED: USER
DOCKED: REMARK  Name = ligands/ligand_26.pdb
DOCKED: REMARK  30 active torsions:
DOCKED: REMARK  status: ('A' for Active; 'I' for Inactive)
DOCKED: REMARK    1  A    between atoms: C1_1  and  S1_2
DOCKED: REMARK    2  A    between atoms: S1_2  and  C2_3
DOCKED: REMARK    3  A    between atoms: C2_3  and  C3_4
DOCKED: REMARK    4  A    between atoms: C3_4  and  C4_5
DOCKED: REMARK    5  A    between atoms: C4_5  and  N1_6
DOCKED: REMARK    6  A    between atoms: C4_5  and  C12_17
DOCKED: REMARK    7  A    between atoms: C5_7  and  C6_9
DOCKED: REMARK    8  A    between atoms: C6_9  and  N2_10
DOCKED: REMARK    9  A    between atoms: C6_9  and  C9_14
DOCKED: REMARK   10  A    between atoms: C7_11  and  C8_12
DOCKED: REMARK   11  A    between atoms: C9_14  and  C10_15
DOCKED: REMARK   12  A    between atoms: C9_14  and  C11_16
DOCKED: REMARK   13  A    between atoms: N3_19  and  C13_20
DOCKED: REMARK   14  A    between atoms: C13_20  and  C14_21
DOCKED: REMARK   15  A    between atoms: C13_20  and  C18_25
DOCKED: REMARK   16  A    between atoms: C14_21  and  C15_22
DOCKED: REMARK   17  A    between atoms: C15_22  and  C16_23
DOCKED: REMARK   18  A    between atoms: C15_22  and  C17_24
DOCKED: REMARK   19  A    between atoms: C18_25  and  O4_26
DOCKED: REMARK   20  A    between atoms: C18_25  and  C19_27
DOCKED: REMARK   21  A    between atoms: C19_27  and  C20_28
DOCKED: REMARK   22  A    between atoms: N4_30  and  C21_31
DOCKED: REMARK   23  A    between atoms: C21_31  and  C22_32
DOCKED: REMARK   24  A    between atoms: C21_31  and  C26_40
DOCKED: REMARK   25  A    between atoms: N5_34  and  C23_35
DOCKED: REMARK   26  A    between atoms: C23_35  and  C24_36
DOCKED: REMARK   27  A    between atoms: C23_35  and  C25_37
DOCKED: REMARK   28  A    between atoms: C25_37  and  O8_39
DOCKED: REMARK   29  A    between atoms: C26_40  and  C27_41
DOCKED: REMARK   30  A    between atoms: C26_40  and  C28_42
DOCKED: REMARK                            x       y       z     vdW  Elec       q    Type
DOCKED: REMARK                         _______ _______ _______ _____ _____    ______ ____
DOCKED: USER                              x       y       z     vdW  Elec       q    Type
DOCKED: USER                           _______ _______ _______ _____ _____    ______ ____
DOCKED: ROOT
DOCKED: ATOM      1  C13 UNL     1       5.122   1.083  -2.643 +0.00 +0.00    +0.102 C  
DOCKED: ENDROOT
DOCKED: BRANCH   1   4
DOCKED: ATOM      2  C12 UNL     1       6.509   2.021  -0.793 +0.00 +0.00    +0.234 C  
DOCKED: ATOM      3  O3  UNL     1       5.592   2.650  -0.264 +0.00 -0.00    -0.274 OA 
DOCKED: ATOM      4  N3  UNL     1       6.405   1.371  -2.003 +0.00 -0.00    -0.308 N  
DOCKED: ATOM      5  H22 UNL     1       7.164   0.728  -2.244 +0.00 +0.00    +0.149 HD 
DOCKED: BRANCH   2   6
DOCKED: ATOM      6  C4  UNL     1       7.900   1.897  -0.132 +0.00 +0.00    +0.160 C  
DOCKED: BRANCH   6   7
DOCKED: ATOM      7  N1  UNL     1       8.851   1.617  -1.209 +0.00 -0.00    -0.302 N  
DOCKED: ATOM      8  C5  UNL     1      10.183   1.374  -0.953 +0.00 +0.00    +0.234 C  
DOCKED: ATOM      9  O1  UNL     1      10.721   1.634   0.124 +0.00 -0.00    -0.274 OA 
DOCKED: ATOM     10  H9  UNL     1       8.439   1.136  -2.005 +0.00 +0.00    +0.150 HD 
DOCKED: BRANCH   8  11
DOCKED: ATOM     11  C6  UNL     1      10.950   0.710  -2.120 +0.00 +0.00    +0.161 C  
DOCKED: BRANCH  11  12
DOCKED: ATOM     12  N2  UNL     1      10.800   1.556  -3.302 +0.00 -0.00    -0.304 N  
DOCKED: ATOM     13  C7  UNL     1       9.605   1.603  -3.982 +0.00 +0.00    +0.211 C  
DOCKED: ATOM     14  C8  UNL     1       9.536   2.695  -5.015 +0.00 +0.00    +0.109 C  
DOCKED: ATOM     15  O2  UNL     1       8.671   0.836  -3.780 +0.00 -0.00    -0.276 OA 
DOCKED: ATOM     16  H11 UNL     1      11.323   2.425  -3.266 +0.00 +0.00    +0.149 HD 
DOCKED: ENDBRANCH  11  12
DOCKED: BRANCH  11  17
DOCKED: ATOM     17  C9  UNL     1      12.434   0.471  -1.753 +0.00 +0.00    +0.012 C  
DOCKED: ATOM     18  C10 UNL     1      13.284   1.746  -1.803 +0.00 +0.00    +0.009 C  
DOCKED: ATOM     19  C11 UNL     1      13.051  -0.605  -2.651 +0.00 +0.00    +0.009 C  
DOCKED: ENDBRANCH  11  17
DOCKED: ENDBRANCH   8  11
DOCKED: ENDBRANCH   6   7
DOCKED: BRANCH   6  20
DOCKED: ATOM     20  C3  UNL     1       8.266   3.198   0.586 +0.00 +0.00    +0.042 C  
DOCKED: BRANCH  20  21
DOCKED: ATOM     21  C2  UNL     1       7.922   4.460  -0.206 +0.00 +0.00    +0.071 C  
DOCKED: BRANCH  21  23
DOCKED: ATOM     22  C1  UNL     1      10.551   4.800  -1.064 +0.00 +0.00    +0.084 C  
DOCKED: ATOM     23  S1  UNL     1       8.885   4.626  -1.754 +0.00 -0.00    -0.164 S  
DOCKED: ENDBRANCH  21  23
DOCKED: ENDBRANCH  20  21
DOCKED: ENDBRANCH   6  20
DOCKED: ENDBRANCH   2   6
DOCKED: ENDBRANCH   1   4
DOCKED: BRANCH   1  24
DOCKED: ATOM     24  C14 UNL     1       4.807   2.194  -3.663 +0.00 +0.00    +0.028 C  
DOCKED: BRANCH  24  25
DOCKED: ATOM     25  C15 UNL     1       6.024   2.797  -4.391 +0.00 -0.00    -0.015 C  
DOCKED: ATOM     26  C16 UNL     1       6.166   4.273  -4.012 +0.00 +0.00    +0.007 C  
DOCKED: ATOM     27  C17 UNL     1       5.920   2.660  -5.910 +0.00 +0.00    +0.007 C  
DOCKED: ENDBRANCH  24  25
DOCKED: ENDBRANCH   1  24
DOCKED: BRANCH   1  28
DOCKED: ATOM     28  C18 UNL     1       5.083  -0.363  -3.233 +0.00 +0.00    +0.143 C  
DOCKED: BRANCH  28  29
DOCKED: ATOM     29  O4  UNL     1       6.339  -1.025  -3.027 +0.00 -0.00    -0.389 OA 
DOCKED: ATOM     30  H34 UNL     1       7.049  -0.391  -3.226 +0.00 +0.00    +0.210 HD 
DOCKED: ENDBRANCH  28  29
DOCKED: BRANCH  28  31
DOCKED: ATOM     31  C19 UNL     1       4.652  -0.548  -4.697 +0.00 +0.00    +0.129 C  
DOCKED: BRANCH  31  32
DOCKED: ATOM     32  C20 UNL     1       5.659  -1.217  -5.613 +0.00 +0.00    +0.216 C  
DOCKED: ATOM     33  O5  UNL     1       5.438  -2.241  -6.249 +0.00 -0.00    -0.276 OA 
DOCKED: ATOM     34  N4  UNL     1       6.895  -0.601  -5.614 +0.00 -0.00    -0.304 N  
DOCKED: ATOM     35  H37 UNL     1       7.147  -0.136  -4.747 +0.00 +0.00    +0.149 HD 
DOCKED: BRANCH  34  36
DOCKED: ATOM     36  C21 UNL     1       8.010  -1.252  -6.311 +0.00 +0.00    +0.161 C  
DOCKED: BRANCH  36  37
DOCKED: ATOM     37  C22 UNL     1       8.616  -2.276  -5.327 +0.00 +0.00    +0.234 C  
DOCKED: ATOM     38  O6  UNL     1       8.902  -3.423  -5.673 +0.00 -0.00    -0.274 OA 
DOCKED: ATOM     39  N5  UNL     1       8.792  -1.818  -4.042 +0.00 -0.00    -0.301 N  
DOCKED: ATOM     40  H39 UNL     1       8.352  -0.947  -3.776 +0.00 +0.00    +0.150 HD 
DOCKED: BRANCH  39  41
DOCKED: ATOM     41  C23 UNL     1       9.227  -2.720  -2.978 +0.00 +0.00    +0.179 C  
DOCKED: ATOM     42  C24 UNL     1      10.623  -3.248  -3.271 +0.00 +0.00    +0.040 C  
DOCKED: BRANCH  41  43
DOCKED: ATOM     43  C25 UNL     1       9.209  -1.987  -1.635 +0.00 +0.00    +0.325 C  
DOCKED: ATOM     44  O7  UNL     1       9.886  -2.241  -0.648 +0.00 -0.00    -0.249 OA 
DOCKED: BRANCH  43  45
DOCKED: ATOM     45  O8  UNL     1       8.325  -0.968  -1.606 +0.00 -0.00    -0.479 OA 
DOCKED: ATOM     46  H44 UNL     1       8.405  -0.556  -2.493 +0.00 +0.00    +0.295 HD 
DOCKED: ENDBRANCH  43  45
DOCKED: ENDBRANCH  41  43
DOCKED: ENDBRANCH  39  41
DOCKED: ENDBRANCH  36  37
DOCKED: BRANCH  36  47
DOCKED: ATOM     47  C26 UNL     1       9.027  -0.206  -6.822 +0.00 +0.00    +0.012 C  
DOCKED: ATOM     48  C27 UNL     1      10.488  -0.595  -6.576 +0.00 +0.00    +0.009 C  
DOCKED: ATOM     49  C28 UNL     1       8.817   0.117  -8.304 +0.00 +0.00    +0.009 C  
DOCKED: ENDBRANCH  36  47
DOCKED: ENDBRANCH  34  36
DOCKED: ENDBRANCH  31  32
DOCKED: ENDBRANCH  28  31
DOCKED: ENDBRANCH   1  28
DOCKED: TORSDOF 21
DOCKED: TER
DOCKED: ENDMDL
________________________________________________________________________________


    FINAL DOCKED STATE:
    ________________________


Run:   11 / 20
Time taken for this run:   1.141s

DOCKED: MODEL        11
DOCKED: USER    Run = 11
DOCKED: USER
DOCKED: USER    Estimated Free Energy of Binding    =  +6.26 kcal/mol  [=(1)+(2)+(3)-(4)]
DOCKED: USER
DOCKED: USER    (1) Final Intermolecular Energy     =  +0.00 kcal/mol
DOCKED: USER        vdW + Hbond + desolv Energy     =  +0.00 kcal/mol
DOCKED: USER        Electrostatic Energy            =  +0.00 kcal/mol
DOCKED: USER        Moving Ligand-Fixed Receptor    =  +0.00 kcal/mol
DOCKED: USER        Moving Ligand-Moving Receptor   =  +0.00 kcal/mol
DOCKED: USER    (2) Final Total Internal Energy     = -15.29 kcal/mol
DOCKED: USER    (3) Torsional Free Energy           =  +6.26 kcal/mol
DOCKED: USER    (4) Unbound System's Energy         = -15.29 kcal/mol
DOCKED: USER
DOCKED: USER
DOCKED: REMARK  Name = ligands/ligand_26.pdb
DOCKED: REMARK  30 active torsions:
DOCKED: REMARK  status: ('A' for Active; 'I' for Inactive)
DOCKED: REMARK    1  A    between atoms: C1_1  and  S1_2
DOCKED: REMARK    2  A    between atoms: S1_2  and  C2_3
DOCKED: REMARK    3  A    between atoms: C2_3  and  C3_4
DOCKED: REMARK    4  A    between atoms: C3_4  and  C4_5
DOCKED: REMARK    5  A    between atoms: C4_5  and  N1_6
DOCKED: REMARK    6  A    between atoms: C4_5  and  C12_17
DOCKED: REMARK    7  A    between atoms: C5_7  and  C6_9
DOCKED: REMARK    8  A    between atoms: C6_9  and  N2_10
DOCKED: REMARK    9  A    between atoms: C6_9  and  C9_14
DOCKED: REMARK   10  A    between atoms: C7_11  and  C8_12
DOCKED: REMARK   11  A    between atoms: C9_14  and  C10_15
DOCKED: REMARK   12  A    between atoms: C9_14  and  C11_16
DOCKED: REMARK   13  A    between atoms: N3_19  and  C13_20
DOCKED: REMARK   14  A    between atoms: C13_20  and  C14_21
DOCKED: REMARK   15  A    between atoms: C13_20  and  C18_25
DOCKED: REMARK   16  A    between atoms: C14_21  and  C15_22
DOCKED: REMARK   17  A    between atoms: C15_22  and  C16_23
DOCKED: REMARK   18  A    between atoms: C15_22  and  C17_24
DOCKED: REMARK   19  A    between atoms: C18_25  and  O4_26
DOCKED: REMARK   20  A    between atoms: C18_25  and  C19_27
DOCKED: REMARK   21  A    between atoms: C19_27  and  C20_28
DOCKED: REMARK   22  A    between atoms: N4_30  and  C21_31
DOCKED: REMARK   23  A    between atoms: C21_31  and  C22_32
DOCKED: REMARK   24  A    between atoms: C21_31  and  C26_40
DOCKED: REMARK   25  A    between atoms: N5_34  and  C23_35
DOCKED: REMARK   26  A    between atoms: C23_35  and  C24_36
DOCKED: REMARK   27  A    between atoms: C23_35  and  C25_37
DOCKED: REMARK   28  A    between atoms: C25_37  and  O8_39
DOCKED: REMARK   29  A    between atoms: C26_40  and  C27_41
DOCKED: REMARK   30  A    between atoms: C26_40  and  C28_42
DOCKED: REMARK                            x       y       z     vdW  Elec       q    Type
DOCKED: REMARK                         _______ _______ _______ _____ _____    ______ ____
DOCKED: USER                              x       y       z     vdW  Elec       q    Type
DOCKED: USER                           _______ _______ _______ _____ _____    ______ ____
DOCKED: ROOT
DOCKED: ATOM      1  C13 UNL     1       4.031  -3.192  -0.560 +0.00 +0.00    +0.102 C  
DOCKED: ENDROOT
DOCKED: BRANCH   1   4
DOCKED: ATOM      2  C12 UNL     1       5.166  -1.625   1.015 +0.00 +0.00    +0.234 C  
DOCKED: ATOM      3  O3  UNL     1       4.156  -1.364   1.671 +0.00 -0.00    -0.274 OA 
DOCKED: ATOM      4  N3  UNL     1       5.164  -2.367  -0.145 +0.00 -0.00    -0.308 N  
DOCKED: ATOM      5  H22 UNL     1       6.076  -2.678  -0.491 +0.00 +0.00    +0.149 HD 
DOCKED: BRANCH   2   6
DOCKED: ATOM      6  C4  UNL     1       6.566  -1.133   1.443 +0.00 +0.00    +0.160 C  
DOCKED: BRANCH   6   7
DOCKED: ATOM      7  N1  UNL     1       7.395  -1.127   0.237 +0.00 -0.00    -0.302 N  
DOCKED: ATOM      8  C5  UNL     1       8.738  -0.825   0.283 +0.00 +0.00    +0.234 C  
DOCKED: ATOM      9  O1  UNL     1       9.275  -0.285   1.251 +0.00 -0.00    -0.274 OA 
DOCKED: ATOM     10  H9  UNL     1       7.096  -1.799  -0.468 +0.00 +0.00    +0.150 HD 
DOCKED: BRANCH   8  11
DOCKED: ATOM     11  C6  UNL     1       9.536  -1.252  -0.971 +0.00 +0.00    +0.161 C  
DOCKED: BRANCH  11  12
DOCKED: ATOM     12  N2  UNL     1       8.909  -0.636  -2.139 +0.00 -0.00    -0.304 N  
DOCKED: ATOM     13  C7  UNL     1       7.714  -1.111  -2.625 +0.00 +0.00    +0.211 C  
DOCKED: ATOM     14  C8  UNL     1       7.083  -0.225  -3.666 +0.00 +0.00    +0.109 C  
DOCKED: ATOM     15  O2  UNL     1       7.192  -2.158  -2.259 +0.00 -0.00    -0.276 OA 
DOCKED: ATOM     16  H11 UNL     1       9.047   0.367  -2.211 +0.00 +0.00    +0.149 HD 
DOCKED: ENDBRANCH  11  12
DOCKED: BRANCH  11  17
DOCKED: ATOM     17  C9  UNL     1      11.031  -0.877  -0.841 +0.00 +0.00    +0.012 C  
DOCKED: ATOM     18  C10 UNL     1      11.309   0.608  -1.102 +0.00 +0.00    +0.009 C  
DOCKED: ATOM     19  C11 UNL     1      11.892  -1.743  -1.766 +0.00 +0.00    +0.009 C  
DOCKED: ENDBRANCH  11  17
DOCKED: ENDBRANCH   8  11
DOCKED: ENDBRANCH   6   7
DOCKED: BRANCH   6  20
DOCKED: ATOM     20  C3  UNL     1       6.476   0.273   2.041 +0.00 +0.00    +0.042 C  
DOCKED: BRANCH  20  21
DOCKED: ATOM     21  C2  UNL     1       5.554   1.217   1.269 +0.00 +0.00    +0.071 C  
DOCKED: BRANCH  21  23
DOCKED: ATOM     22  C1  UNL     1       7.714   2.458   0.022 +0.00 +0.00    +0.084 C  
DOCKED: ATOM     23  S1  UNL     1       6.170   1.615  -0.408 +0.00 -0.00    -0.164 S  
DOCKED: ENDBRANCH  21  23
DOCKED: ENDBRANCH  20  21
DOCKED: ENDBRANCH   6  20
DOCKED: ENDBRANCH   2   6
DOCKED: ENDBRANCH   1   4
DOCKED: BRANCH   1  24
DOCKED: ATOM     24  C14 UNL     1       3.175  -2.402  -1.570 +0.00 +0.00    +0.028 C  
DOCKED: BRANCH  24  25
DOCKED: ATOM     25  C15 UNL     1       3.955  -1.482  -2.529 +0.00 -0.00    -0.015 C  
DOCKED: ATOM     26  C16 UNL     1       3.628  -0.020  -2.213 +0.00 +0.00    +0.007 C  
DOCKED: ATOM     27  C17 UNL     1       3.646  -1.776  -3.997 +0.00 +0.00    +0.007 C  
DOCKED: ENDBRANCH  24  25
DOCKED: ENDBRANCH   1  24
DOCKED: BRANCH   1  28
DOCKED: ATOM     28  C18 UNL     1       4.492  -4.596  -1.066 +0.00 +0.00    +0.143 C  
DOCKED: BRANCH  28  29
DOCKED: ATOM     29  O4  UNL     1       5.924  -4.695  -1.040 +0.00 -0.00    -0.389 OA 
DOCKED: ATOM     30  H34 UNL     1       6.289  -3.866  -1.395 +0.00 +0.00    +0.210 HD 
DOCKED: ENDBRANCH  28  29
DOCKED: BRANCH  28  31
DOCKED: ATOM     31  C19 UNL     1       3.980  -5.091  -2.428 +0.00 +0.00    +0.129 C  
DOCKED: BRANCH  31  32
DOCKED: ATOM     32  C20 UNL     1       5.038  -5.408  -3.468 +0.00 +0.00    +0.216 C  
DOCKED: ATOM     33  O5  UNL     1       5.184  -6.506  -3.991 +0.00 -0.00    -0.276 OA 
DOCKED: ATOM     34  N4  UNL     1       5.886  -4.349  -3.729 +0.00 -0.00    -0.304 N  
DOCKED: ATOM     35  H37 UNL     1       6.036  -3.714  -2.951 +0.00 +0.00    +0.149 HD 
DOCKED: BRANCH  34  36
DOCKED: ATOM     36  C21 UNL     1       7.064  -4.577  -4.574 +0.00 +0.00    +0.161 C  
DOCKED: BRANCH  36  37
DOCKED: ATOM     37  C22 UNL     1       8.150  -5.200  -3.670 +0.00 +0.00    +0.234 C  
DOCKED: ATOM     38  O6  UNL     1       8.809  -6.178  -4.022 +0.00 -0.00    -0.274 OA 
DOCKED: ATOM     39  N5  UNL     1       8.310  -4.593  -2.445 +0.00 -0.00    -0.301 N  
DOCKED: ATOM     40  H39 UNL     1       7.606  -3.933  -2.139 +0.00 +0.00    +0.150 HD 
DOCKED: BRANCH  39  41
DOCKED: ATOM     41  C23 UNL     1       9.203  -5.160  -1.439 +0.00 +0.00    +0.179 C  
DOCKED: ATOM     42  C24 UNL     1      10.640  -5.139  -1.935 +0.00 +0.00    +0.040 C  
DOCKED: BRANCH  41  43
DOCKED: ATOM     43  C25 UNL     1       9.082  -4.371  -0.133 +0.00 +0.00    +0.325 C  
DOCKED: ATOM     44  O7  UNL     1       9.926  -4.271   0.747 +0.00 -0.00    -0.249 OA 
DOCKED: BRANCH  43  45
DOCKED: ATOM     45  O8  UNL     1       7.890  -3.754  -0.002 +0.00 -0.00    -0.479 OA 
DOCKED: ATOM     46  H44 UNL     1       7.689  -3.427  -0.905 +0.00 +0.00    +0.295 HD 
DOCKED: ENDBRANCH  43  45
DOCKED: ENDBRANCH  41  43
DOCKED: ENDBRANCH  39  41
DOCKED: ENDBRANCH  36  37
DOCKED: BRANCH  36  47
DOCKED: ATOM     47  C26 UNL     1       7.508  -3.269  -5.266 +0.00 +0.00    +0.012 C  
DOCKED: ATOM     48  C27 UNL     1       9.028  -3.076  -5.305 +0.00 +0.00    +0.009 C  
DOCKED: ATOM     49  C28 UNL     1       6.932  -3.146  -6.679 +0.00 +0.00    +0.009 C  
DOCKED: ENDBRANCH  36  47
DOCKED: ENDBRANCH  34  36
DOCKED: ENDBRANCH  31  32
DOCKED: ENDBRANCH  28  31
DOCKED: ENDBRANCH   1  28
DOCKED: TORSDOF 21
DOCKED: TER
DOCKED: ENDMDL
________________________________________________________________________________


    FINAL DOCKED STATE:
    ________________________


Run:   12 / 20
Time taken for this run:   1.141s

DOCKED: MODEL        12
DOCKED: USER    Run = 12
DOCKED: USER
DOCKED: USER    Estimated Free Energy of Binding    =  +6.26 kcal/mol  [=(1)+(2)+(3)-(4)]
DOCKED: USER
DOCKED: USER    (1) Final Intermolecular Energy     =  +0.00 kcal/mol
DOCKED: USER        vdW + Hbond + desolv Energy     =  +0.00 kcal/mol
DOCKED: USER        Electrostatic Energy            =  +0.00 kcal/mol
DOCKED: USER        Moving Ligand-Fixed Receptor    =  +0.00 kcal/mol
DOCKED: USER        Moving Ligand-Moving Receptor   =  +0.00 kcal/mol
DOCKED: USER    (2) Final Total Internal Energy     = -15.29 kcal/mol
DOCKED: USER    (3) Torsional Free Energy           =  +6.26 kcal/mol
DOCKED: USER    (4) Unbound System's Energy         = -15.29 kcal/mol
DOCKED: USER
DOCKED: USER
DOCKED: REMARK  Name = ligands/ligand_26.pdb
DOCKED: REMARK  30 active torsions:
DOCKED: REMARK  status: ('A' for Active; 'I' for Inactive)
DOCKED: REMARK    1  A    between atoms: C1_1  and  S1_2
DOCKED: REMARK    2  A    between atoms: S1_2  and  C2_3
DOCKED: REMARK    3  A    between atoms: C2_3  and  C3_4
DOCKED: REMARK    4  A    between atoms: C3_4  and  C4_5
DOCKED: REMARK    5  A    between atoms: C4_5  and  N1_6
DOCKED: REMARK    6  A    between atoms: C4_5  and  C12_17
DOCKED: REMARK    7  A    between atoms: C5_7  and  C6_9
DOCKED: REMARK    8  A    between atoms: C6_9  and  N2_10
DOCKED: REMARK    9  A    between atoms: C6_9  and  C9_14
DOCKED: REMARK   10  A    between atoms: C7_11  and  C8_12
DOCKED: REMARK   11  A    between atoms: C9_14  and  C10_15
DOCKED: REMARK   12  A    between atoms: C9_14  and  C11_16
DOCKED: REMARK   13  A    between atoms: N3_19  and  C13_20
DOCKED: REMARK   14  A    between atoms: C13_20  and  C14_21
DOCKED: REMARK   15  A    between atoms: C13_20  and  C18_25
DOCKED: REMARK   16  A    between atoms: C14_21  and  C15_22
DOCKED: REMARK   17  A    between atoms: C15_22  and  C16_23
DOCKED: REMARK   18  A    between atoms: C15_22  and  C17_24
DOCKED: REMARK   19  A    between atoms: C18_25  and  O4_26
DOCKED: REMARK   20  A    between atoms: C18_25  and  C19_27
DOCKED: REMARK   21  A    between atoms: C19_27  and  C20_28
DOCKED: REMARK   22  A    between atoms: N4_30  and  C21_31
DOCKED: REMARK   23  A    between atoms: C21_31  and  C22_32
DOCKED: REMARK   24  A    between atoms: C21_31  and  C26_40
DOCKED: REMARK   25  A    between atoms: N5_34  and  C23_35
DOCKED: REMARK   26  A    between atoms: C23_35  and  C24_36
DOCKED: REMARK   27  A    between atoms: C23_35  and  C25_37
DOCKED: REMARK   28  A    between atoms: C25_37  and  O8_39
DOCKED: REMARK   29  A    between atoms: C26_40  and  C27_41
DOCKED: REMARK   30  A    between atoms: C26_40  and  C28_42
DOCKED: REMARK                            x       y       z     vdW  Elec       q    Type
DOCKED: REMARK                         _______ _______ _______ _____ _____    ______ ____
DOCKED: USER                              x       y       z     vdW  Elec       q    Type
DOCKED: USER                           _______ _______ _______ _____ _____    ______ ____
DOCKED: ROOT
DOCKED: ATOM      1  C13 UNL     1      13.691   0.779  -3.377 +0.00 +0.00    +0.102 C  
DOCKED: ENDROOT
DOCKED: BRANCH   1   4
DOCKED: ATOM      2  C12 UNL     1      12.514  -0.664  -1.715 +0.00 +0.00    +0.234 C  
DOCKED: ATOM      3  O3  UNL     1      13.538  -1.155  -1.238 +0.00 -0.00    -0.274 OA 
DOCKED: ATOM      4  N3  UNL     1      12.491   0.149  -2.826 +0.00 -0.00    -0.308 N  
DOCKED: ATOM      5  H22 UNL     1      11.617   0.648  -3.011 +0.00 +0.00    +0.149 HD 
DOCKED: BRANCH   2   6
DOCKED: ATOM      6  C4  UNL     1      11.123  -0.919  -1.095 +0.00 +0.00    +0.160 C  
DOCKED: BRANCH   6   7
DOCKED: ATOM      7  N1  UNL     1      10.142  -0.678  -2.155 +0.00 -0.00    -0.302 N  
DOCKED: ATOM      8  C5  UNL     1       8.787  -0.730  -1.912 +0.00 +0.00    +0.234 C  
DOCKED: ATOM      9  O1  UNL     1       8.302  -1.234  -0.899 +0.00 -0.00    -0.274 OA 
DOCKED: ATOM     10  H9  UNL     1      10.459  -0.021  -2.865 +0.00 +0.00    +0.150 HD 
DOCKED: BRANCH   8  11
DOCKED: ATOM     11  C6  UNL     1       7.913  -0.068  -3.003 +0.00 +0.00    +0.161 C  
DOCKED: BRANCH  11  12
DOCKED: ATOM     12  N2  UNL     1       8.234  -0.696  -4.284 +0.00 -0.00    -0.304 N  
DOCKED: ATOM     13  C7  UNL     1       9.414  -0.409  -4.929 +0.00 +0.00    +0.211 C  
DOCKED: ATOM     14  C8  UNL     1       9.705  -1.312  -6.097 +0.00 +0.00    +0.109 C  
DOCKED: ATOM     15  O2  UNL     1      10.174   0.494  -4.599 +0.00 -0.00    -0.276 OA 
DOCKED: ATOM     16  H11 UNL     1       7.897  -1.649  -4.381 +0.00 +0.00    +0.149 HD 
DOCKED: ENDBRANCH  11  12
DOCKED: BRANCH  11  17
DOCKED: ATOM     17  C9  UNL     1       6.409  -0.172  -2.659 +0.00 +0.00    +0.012 C  
DOCKED: ATOM     18  C10 UNL     1       5.493   0.034  -3.871 +0.00 +0.00    +0.009 C  
DOCKED: ATOM     19  C11 UNL     1       6.035   0.813  -1.546 +0.00 +0.00    +0.009 C  
DOCKED: ENDBRANCH  11  17
DOCKED: ENDBRANCH   8  11
DOCKED: ENDBRANCH   6   7
DOCKED: BRANCH   6  20
DOCKED: ATOM     20  C3  UNL     1      11.022  -2.358  -0.585 +0.00 +0.00    +0.042 C  
DOCKED: BRANCH  20  21
DOCKED: ATOM     21  C2  UNL     1      11.621  -3.394  -1.536 +0.00 +0.00    +0.071 C  
DOCKED: BRANCH  21  23
DOCKED: ATOM     22  C1  UNL     1       9.146  -4.129  -2.583 +0.00 +0.00    +0.084 C  
DOCKED: ATOM     23  S1  UNL     1      10.746  -3.492  -3.141 +0.00 -0.00    -0.164 S  
DOCKED: ENDBRANCH  21  23
DOCKED: ENDBRANCH  20  21
DOCKED: ENDBRANCH   6  20
DOCKED: ENDBRANCH   2   6
DOCKED: ENDBRANCH   1   4
DOCKED: BRANCH   1  24
DOCKED: ATOM     24  C14 UNL     1      14.211  -0.070  -4.553 +0.00 +0.00    +0.028 C  
DOCKED: BRANCH  24  25
DOCKED: ATOM     25  C15 UNL     1      13.130  -0.771  -5.399 +0.00 -0.00    -0.015 C  
DOCKED: ATOM     26  C16 UNL     1      13.288  -2.289  -5.273 +0.00 +0.00    +0.007 C  
DOCKED: ATOM     27  C17 UNL     1      13.190  -0.365  -6.872 +0.00 +0.00    +0.007 C  
DOCKED: ENDBRANCH  24  25
DOCKED: ENDBRANCH   1  24
DOCKED: BRANCH   1  28
DOCKED: ATOM     28  C18 UNL     1      13.447   2.281  -3.725 +0.00 +0.00    +0.143 C  
DOCKED: BRANCH  28  29
DOCKED: ATOM     29  O4  UNL     1      12.086   2.646  -3.453 +0.00 -0.00    -0.389 OA 
DOCKED: ATOM     30  H34 UNL     1      11.510   1.952  -3.817 +0.00 +0.00    +0.210 HD 
DOCKED: ENDBRANCH  28  29
DOCKED: BRANCH  28  31
DOCKED: ATOM     31  C19 UNL     1      13.831   2.782  -5.127 +0.00 +0.00    +0.129 C  
DOCKED: BRANCH  31  32
DOCKED: ATOM     32  C20 UNL     1      12.710   3.379  -5.956 +0.00 +0.00    +0.216 C  
DOCKED: ATOM     33  O5  UNL     1      12.708   4.524  -6.392 +0.00 -0.00    -0.276 OA 
DOCKED: ATOM     34  N4  UNL     1      11.636   2.526  -6.123 +0.00 -0.00    -0.304 N  
DOCKED: ATOM     35  H37 UNL     1      11.484   1.870  -5.363 +0.00 +0.00    +0.149 HD 
DOCKED: BRANCH  34  36
DOCKED: ATOM     36  C21 UNL     1      10.411   3.043  -6.744 +0.00 +0.00    +0.161 C  
DOCKED: BRANCH  36  37
DOCKED: ATOM     37  C22 UNL     1       9.617   3.769  -5.636 +0.00 +0.00    +0.234 C  
DOCKED: ATOM     38  O6  UNL     1       9.115   4.879  -5.814 +0.00 -0.00    -0.274 OA 
DOCKED: ATOM     39  N5  UNL     1       9.532   3.093  -4.440 +0.00 -0.00    -0.301 N  
DOCKED: ATOM     40  H39 UNL     1      10.133   2.292  -4.296 +0.00 +0.00    +0.150 HD 
DOCKED: BRANCH  39  41
DOCKED: ATOM     41  C23 UNL     1       8.931   3.721  -3.267 +0.00 +0.00    +0.179 C  
DOCKED: ATOM     42  C24 UNL     1       7.454   3.991  -3.510 +0.00 +0.00    +0.040 C  
DOCKED: BRANCH  41  43
DOCKED: ATOM     43  C25 UNL     1       9.110   2.817  -2.045 +0.00 +0.00    +0.325 C  
DOCKED: ATOM     44  O7  UNL     1       8.408   2.786  -1.043 +0.00 -0.00    -0.249 OA 
DOCKED: BRANCH  43  45
DOCKED: ATOM     45  O8  UNL     1      10.179   2.001  -2.149 +0.00 -0.00    -0.479 OA 
DOCKED: ATOM     46  H44 UNL     1      10.155   1.693  -3.080 +0.00 +0.00    +0.295 HD 
DOCKED: ENDBRANCH  43  45
DOCKED: ENDBRANCH  41  43
DOCKED: ENDBRANCH  39  41
DOCKED: ENDBRANCH  36  37
DOCKED: BRANCH  36  47
DOCKED: ATOM     47  C26 UNL     1       9.620   1.907  -7.431 +0.00 +0.00    +0.012 C  
DOCKED: ATOM     48  C27 UNL     1       8.112   1.954  -7.161 +0.00 +0.00    +0.009 C  
DOCKED: ATOM     49  C28 UNL     1       9.877   1.862  -8.940 +0.00 +0.00    +0.009 C  
DOCKED: ENDBRANCH  36  47
DOCKED: ENDBRANCH  34  36
DOCKED: ENDBRANCH  31  32
DOCKED: ENDBRANCH  28  31
DOCKED: ENDBRANCH   1  28
DOCKED: TORSDOF 21
DOCKED: TER
DOCKED: ENDMDL
________________________________________________________________________________


    FINAL DOCKED STATE:
    ________________________


Run:   13 / 20
Time taken for this run:   1.141s

DOCKED: MODEL        13
DOCKED: USER    Run = 13
DOCKED: USER
DOCKED: USER    Estimated Free Energy of Binding    =  +6.26 kcal/mol  [=(1)+(2)+(3)-(4)]
DOCKED: USER
DOCKED: USER    (1) Final Intermolecular Energy     =  +0.00 kcal/mol
DOCKED: USER        vdW + Hbond + desolv Energy     =  +0.00 kcal/mol
DOCKED: USER        Electrostatic Energy            =  +0.00 kcal/mol
DOCKED: USER        Moving Ligand-Fixed Receptor    =  +0.00 kcal/mol
DOCKED: USER        Moving Ligand-Moving Receptor   =  +0.00 kcal/mol
DOCKED: USER    (2) Final Total Internal Energy     = -15.13 kcal/mol
DOCKED: USER    (3) Torsional Free Energy           =  +6.26 kcal/mol
DOCKED: USER    (4) Unbound System's Energy         = -15.13 kcal/mol
DOCKED: USER
DOCKED: USER
DOCKED: REMARK  Name = ligands/ligand_26.pdb
DOCKED: REMARK  30 active torsions:
DOCKED: REMARK  status: ('A' for Active; 'I' for Inactive)
DOCKED: REMARK    1  A    between atoms: C1_1  and  S1_2
DOCKED: REMARK    2  A    between atoms: S1_2  and  C2_3
DOCKED: REMARK    3  A    between atoms: C2_3  and  C3_4
DOCKED: REMARK    4  A    between atoms: C3_4  and  C4_5
DOCKED: REMARK    5  A    between atoms: C4_5  and  N1_6
DOCKED: REMARK    6  A    between atoms: C4_5  and  C12_17
DOCKED: REMARK    7  A    between atoms: C5_7  and  C6_9
DOCKED: REMARK    8  A    between atoms: C6_9  and  N2_10
DOCKED: REMARK    9  A    between atoms: C6_9  and  C9_14
DOCKED: REMARK   10  A    between atoms: C7_11  and  C8_12
DOCKED: REMARK   11  A    between atoms: C9_14  and  C10_15
DOCKED: REMARK   12  A    between atoms: C9_14  and  C11_16
DOCKED: REMARK   13  A    between atoms: N3_19  and  C13_20
DOCKED: REMARK   14  A    between atoms: C13_20  and  C14_21
DOCKED: REMARK   15  A    between atoms: C13_20  and  C18_25
DOCKED: REMARK   16  A    between atoms: C14_21  and  C15_22
DOCKED: REMARK   17  A    between atoms: C15_22  and  C16_23
DOCKED: REMARK   18  A    between atoms: C15_22  and  C17_24
DOCKED: REMARK   19  A    between atoms: C18_25  and  O4_26
DOCKED: REMARK   20  A    between atoms: C18_25  and  C19_27
DOCKED: REMARK   21  A    between atoms: C19_27  and  C20_28
DOCKED: REMARK   22  A    between atoms: N4_30  and  C21_31
DOCKED: REMARK   23  A    between atoms: C21_31  and  C22_32
DOCKED: REMARK   24  A    between atoms: C21_31  and  C26_40
DOCKED: REMARK   25  A    between atoms: N5_34  and  C23_35
DOCKED: REMARK   26  A    between atoms: C23_35  and  C24_36
DOCKED: REMARK   27  A    between atoms: C23_35  and  C25_37
DOCKED: REMARK   28  A    between atoms: C25_37  and  O8_39
DOCKED: REMARK   29  A    between atoms: C26_40  and  C27_41
DOCKED: REMARK   30  A    between atoms: C26_40  and  C28_42
DOCKED: REMARK                            x       y       z     vdW  Elec       q    Type
DOCKED: REMARK                         _______ _______ _______ _____ _____    ______ ____
DOCKED: USER                              x       y       z     vdW  Elec       q    Type
DOCKED: USER                           _______ _______ _______ _____ _____    ______ ____
DOCKED: ROOT
DOCKED: ATOM      1  C13 UNL     1       9.203  -4.521  -2.170 +0.00 +0.00    +0.102 C  
DOCKED: ENDROOT
DOCKED: BRANCH   1   4
DOCKED: ATOM      2  C12 UNL     1       8.655  -3.073  -0.213 +0.00 +0.00    +0.234 C  
DOCKED: ATOM      3  O3  UNL     1       7.434  -3.115  -0.372 +0.00 -0.00    -0.274 OA 
DOCKED: ATOM      4  N3  UNL     1       9.569  -3.591  -1.103 +0.00 -0.00    -0.308 N  
DOCKED: ATOM      5  H22 UNL     1      10.535  -3.668  -0.774 +0.00 +0.00    +0.149 HD 
DOCKED: BRANCH   2   6
DOCKED: ATOM      6  C4  UNL     1       9.292  -2.419   1.032 +0.00 +0.00    +0.160 C  
DOCKED: BRANCH   6   7
DOCKED: ATOM      7  N1  UNL     1      10.233  -1.411   0.541 +0.00 -0.00    -0.302 N  
DOCKED: ATOM      8  C5  UNL     1      11.528  -1.734   0.204 +0.00 +0.00    +0.234 C  
DOCKED: ATOM      9  O1  UNL     1      12.068  -2.791   0.533 +0.00 -0.00    -0.274 OA 
DOCKED: ATOM     10  H9  UNL     1       9.790  -0.661   0.013 +0.00 +0.00    +0.150 HD 
DOCKED: BRANCH   8  11
DOCKED: ATOM     11  C6  UNL     1      12.250  -0.673  -0.661 +0.00 +0.00    +0.161 C  
DOCKED: BRANCH  11  12
DOCKED: ATOM     12  N2  UNL     1      12.174  -1.099  -2.057 +0.00 -0.00    -0.304 N  
DOCKED: ATOM     13  C7  UNL     1      10.965  -1.143  -2.711 +0.00 +0.00    +0.211 C  
DOCKED: ATOM     14  C8  UNL     1      11.083  -1.360  -4.195 +0.00 +0.00    +0.109 C  
DOCKED: ATOM     15  O2  UNL     1       9.879  -1.020  -2.155 +0.00 -0.00    -0.276 OA 
DOCKED: ATOM     16  H11 UNL     1      12.973  -0.830  -2.622 +0.00 +0.00    +0.149 HD 
DOCKED: ENDBRANCH  11  12
DOCKED: BRANCH  11  17
DOCKED: ATOM     17  C9  UNL     1      11.649   0.735  -0.442 +0.00 +0.00    +0.012 C  
DOCKED: ATOM     18  C10 UNL     1      12.139   1.769  -1.463 +0.00 +0.00    +0.009 C  
DOCKED: ATOM     19  C11 UNL     1      11.924   1.231   0.981 +0.00 +0.00    +0.009 C  
DOCKED: ENDBRANCH  11  17
DOCKED: ENDBRANCH   8  11
DOCKED: ENDBRANCH   6   7
DOCKED: BRANCH   6  20
DOCKED: ATOM     20  C3  UNL     1       8.215  -1.771   1.904 +0.00 +0.00    +0.042 C  
DOCKED: BRANCH  20  21
DOCKED: ATOM     21  C2  UNL     1       8.559  -0.354   2.362 +0.00 +0.00    +0.071 C  
DOCKED: BRANCH  21  23
DOCKED: ATOM     22  C1  UNL     1       8.470   2.053   0.962 +0.00 +0.00    +0.084 C  
DOCKED: ATOM     23  S1  UNL     1       7.351   0.900   1.798 +0.00 -0.00    -0.164 S  
DOCKED: ENDBRANCH  21  23
DOCKED: ENDBRANCH  20  21
DOCKED: ENDBRANCH   6  20
DOCKED: ENDBRANCH   2   6
DOCKED: ENDBRANCH   1   4
DOCKED: BRANCH   1  24
DOCKED: ATOM     24  C14 UNL     1       8.458  -5.723  -1.557 +0.00 +0.00    +0.028 C  
DOCKED: BRANCH  24  25
DOCKED: ATOM     25  C15 UNL     1       9.277  -6.587  -0.579 +0.00 -0.00    -0.015 C  
DOCKED: ATOM     26  C16 UNL     1       8.870  -6.256   0.859 +0.00 +0.00    +0.007 C  
DOCKED: ATOM     27  C17 UNL     1      10.784  -6.387  -0.748 +0.00 +0.00    +0.007 C  
DOCKED: ENDBRANCH  24  25
DOCKED: ENDBRANCH   1  24
DOCKED: BRANCH   1  28
DOCKED: ATOM     28  C18 UNL     1       8.429  -3.804  -3.322 +0.00 +0.00    +0.143 C  
DOCKED: BRANCH  28  29
DOCKED: ATOM     29  O4  UNL     1       7.907  -2.545  -2.870 +0.00 -0.00    -0.389 OA 
DOCKED: ATOM     30  H34 UNL     1       8.457  -2.241  -2.128 +0.00 +0.00    +0.210 HD 
DOCKED: ENDBRANCH  28  29
DOCKED: BRANCH  28  31
DOCKED: ATOM     31  C19 UNL     1       7.319  -4.575  -4.053 +0.00 +0.00    +0.129 C  
DOCKED: BRANCH  31  32
DOCKED: ATOM     32  C20 UNL     1       5.899  -4.304  -3.592 +0.00 +0.00    +0.216 C  
DOCKED: ATOM     33  O5  UNL     1       4.948  -4.137  -4.347 +0.00 -0.00    -0.276 OA 
DOCKED: ATOM     34  N4  UNL     1       5.779  -4.190  -2.220 +0.00 -0.00    -0.304 N  
DOCKED: ATOM     35  H37 UNL     1       6.602  -3.834  -1.743 +0.00 +0.00    +0.149 HD 
DOCKED: BRANCH  34  36
DOCKED: ATOM     36  C21 UNL     1       4.500  -3.746  -1.656 +0.00 +0.00    +0.161 C  
DOCKED: BRANCH  36  37
DOCKED: ATOM     37  C22 UNL     1       4.414  -2.221  -1.884 +0.00 +0.00    +0.234 C  
DOCKED: ATOM     38  O6  UNL     1       3.392  -1.682  -2.311 +0.00 -0.00    -0.274 OA 
DOCKED: ATOM     39  N5  UNL     1       5.562  -1.521  -1.593 +0.00 -0.00    -0.301 N  
DOCKED: ATOM     40  H39 UNL     1       6.419  -2.040  -1.446 +0.00 +0.00    +0.150 HD 
DOCKED: BRANCH  39  41
DOCKED: ATOM     41  C23 UNL     1       5.666  -0.096  -1.892 +0.00 +0.00    +0.179 C  
DOCKED: ATOM     42  C24 UNL     1       4.731   0.701  -0.997 +0.00 +0.00    +0.040 C  
DOCKED: BRANCH  41  43
DOCKED: ATOM     43  C25 UNL     1       7.111   0.372  -1.698 +0.00 +0.00    +0.325 C  
DOCKED: ATOM     44  O7  UNL     1       7.626   1.380  -2.161 +0.00 -0.00    -0.249 OA 
DOCKED: BRANCH  43  45
DOCKED: ATOM     45  O8  UNL     1       7.836  -0.470  -0.932 +0.00 -0.00    -0.479 OA 
DOCKED: ATOM     46  H44 UNL     1       7.860  -1.303  -1.449 +0.00 +0.00    +0.295 HD 
DOCKED: ENDBRANCH  43  45
DOCKED: ENDBRANCH  41  43
DOCKED: ENDBRANCH  39  41
DOCKED: ENDBRANCH  36  37
DOCKED: BRANCH  36  47
DOCKED: ATOM     47  C26 UNL     1       4.379  -4.159  -0.171 +0.00 +0.00    +0.012 C  
DOCKED: ATOM     48  C27 UNL     1       5.368  -5.251   0.248 +0.00 +0.00    +0.009 C  
DOCKED: ATOM     49  C28 UNL     1       4.501  -2.956   0.768 +0.00 +0.00    +0.009 C  
DOCKED: ENDBRANCH  36  47
DOCKED: ENDBRANCH  34  36
DOCKED: ENDBRANCH  31  32
DOCKED: ENDBRANCH  28  31
DOCKED: ENDBRANCH   1  28
DOCKED: TORSDOF 21
DOCKED: TER
DOCKED: ENDMDL
________________________________________________________________________________


    FINAL DOCKED STATE:
    ________________________


Run:   14 / 20
Time taken for this run:   1.141s

DOCKED: MODEL        14
DOCKED: USER    Run = 14
DOCKED: USER
DOCKED: USER    Estimated Free Energy of Binding    =  +6.26 kcal/mol  [=(1)+(2)+(3)-(4)]
DOCKED: USER
DOCKED: USER    (1) Final Intermolecular Energy     =  +0.00 kcal/mol
DOCKED: USER        vdW + Hbond + desolv Energy     =  +0.00 kcal/mol
DOCKED: USER        Electrostatic Energy            =  +0.00 kcal/mol
DOCKED: USER        Moving Ligand-Fixed Receptor    =  +0.00 kcal/mol
DOCKED: USER        Moving Ligand-Moving Receptor   =  +0.00 kcal/mol
DOCKED: USER    (2) Final Total Internal Energy     = -15.27 kcal/mol
DOCKED: USER    (3) Torsional Free Energy           =  +6.26 kcal/mol
DOCKED: USER    (4) Unbound System's Energy         = -15.27 kcal/mol
DOCKED: USER
DOCKED: USER
DOCKED: REMARK  Name = ligands/ligand_26.pdb
DOCKED: REMARK  30 active torsions:
DOCKED: REMARK  status: ('A' for Active; 'I' for Inactive)
DOCKED: REMARK    1  A    between atoms: C1_1  and  S1_2
DOCKED: REMARK    2  A    between atoms: S1_2  and  C2_3
DOCKED: REMARK    3  A    between atoms: C2_3  and  C3_4
DOCKED: REMARK    4  A    between atoms: C3_4  and  C4_5
DOCKED: REMARK    5  A    between atoms: C4_5  and  N1_6
DOCKED: REMARK    6  A    between atoms: C4_5  and  C12_17
DOCKED: REMARK    7  A    between atoms: C5_7  and  C6_9
DOCKED: REMARK    8  A    between atoms: C6_9  and  N2_10
DOCKED: REMARK    9  A    between atoms: C6_9  and  C9_14
DOCKED: REMARK   10  A    between atoms: C7_11  and  C8_12
DOCKED: REMARK   11  A    between atoms: C9_14  and  C10_15
DOCKED: REMARK   12  A    between atoms: C9_14  and  C11_16
DOCKED: REMARK   13  A    between atoms: N3_19  and  C13_20
DOCKED: REMARK   14  A    between atoms: C13_20  and  C14_21
DOCKED: REMARK   15  A    between atoms: C13_20  and  C18_25
DOCKED: REMARK   16  A    between atoms: C14_21  and  C15_22
DOCKED: REMARK   17  A    between atoms: C15_22  and  C16_23
DOCKED: REMARK   18  A    between atoms: C15_22  and  C17_24
DOCKED: REMARK   19  A    between atoms: C18_25  and  O4_26
DOCKED: REMARK   20  A    between atoms: C18_25  and  C19_27
DOCKED: REMARK   21  A    between atoms: C19_27  and  C20_28
DOCKED: REMARK   22  A    between atoms: N4_30  and  C21_31
DOCKED: REMARK   23  A    between atoms: C21_31  and  C22_32
DOCKED: REMARK   24  A    between atoms: C21_31  and  C26_40
DOCKED: REMARK   25  A    between atoms: N5_34  and  C23_35
DOCKED: REMARK   26  A    between atoms: C23_35  and  C24_36
DOCKED: REMARK   27  A    between atoms: C23_35  and  C25_37
DOCKED: REMARK   28  A    between atoms: C25_37  and  O8_39
DOCKED: REMARK   29  A    between atoms: C26_40  and  C27_41
DOCKED: REMARK   30  A    between atoms: C26_40  and  C28_42
DOCKED: REMARK                            x       y       z     vdW  Elec       q    Type
DOCKED: REMARK                         _______ _______ _______ _____ _____    ______ ____
DOCKED: USER                              x       y       z     vdW  Elec       q    Type
DOCKED: USER                           _______ _______ _______ _____ _____    ______ ____
DOCKED: ROOT
DOCKED: ATOM      1  C13 UNL     1       7.891   0.962   0.252 +0.00 +0.00    +0.102 C  
DOCKED: ENDROOT
DOCKED: BRANCH   1   4
DOCKED: ATOM      2  C12 UNL     1       7.996  -1.337  -0.712 +0.00 +0.00    +0.234 C  
DOCKED: ATOM      3  O3  UNL     1       7.364  -1.066  -1.734 +0.00 -0.00    -0.274 OA 
DOCKED: ATOM      4  N3  UNL     1       8.165  -0.471   0.346 +0.00 -0.00    -0.308 N  
DOCKED: ATOM      5  H22 UNL     1       8.864  -0.734   1.045 +0.00 +0.00    +0.149 HD 
DOCKED: BRANCH   2   6
DOCKED: ATOM      6  C4  UNL     1       8.679  -2.708  -0.515 +0.00 +0.00    +0.160 C  
DOCKED: BRANCH   6   7
DOCKED: ATOM      7  N1  UNL     1       8.853  -2.886   0.927 +0.00 -0.00    -0.302 N  
DOCKED: ATOM      8  C5  UNL     1       9.487  -3.992   1.448 +0.00 +0.00    +0.234 C  
DOCKED: ATOM      9  O1  UNL     1       9.706  -5.014   0.797 +0.00 -0.00    -0.274 OA 
DOCKED: ATOM     10  H9  UNL     1       8.954  -2.012   1.438 +0.00 +0.00    +0.150 HD 
DOCKED: BRANCH   8  11
DOCKED: ATOM     11  C6  UNL     1       9.942  -3.838   2.919 +0.00 +0.00    +0.161 C  
DOCKED: BRANCH  11  12
DOCKED: ATOM     12  N2  UNL     1       8.766  -3.516   3.725 +0.00 -0.00    -0.304 N  
DOCKED: ATOM     13  C7  UNL     1       8.200  -2.264   3.669 +0.00 +0.00    +0.211 C  
DOCKED: ATOM     14  C8  UNL     1       6.867  -2.167   4.360 +0.00 +0.00    +0.109 C  
DOCKED: ATOM     15  O2  UNL     1       8.716  -1.302   3.112 +0.00 -0.00    -0.276 OA 
DOCKED: ATOM     16  H11 UNL     1       8.121  -4.288   3.855 +0.00 +0.00    +0.149 HD 
DOCKED: ENDBRANCH  11  12
DOCKED: BRANCH  11  17
DOCKED: ATOM     17  C9  UNL     1      10.667  -5.109   3.419 +0.00 +0.00    +0.012 C  
DOCKED: ATOM     18  C10 UNL     1      10.747  -5.200   4.948 +0.00 +0.00    +0.009 C  
DOCKED: ATOM     19  C11 UNL     1      12.071  -5.210   2.814 +0.00 +0.00    +0.009 C  
DOCKED: ENDBRANCH  11  17
DOCKED: ENDBRANCH   8  11
DOCKED: ENDBRANCH   6   7
DOCKED: BRANCH   6  20
DOCKED: ATOM     20  C3  UNL     1       7.809  -3.825  -1.095 +0.00 +0.00    +0.042 C  
DOCKED: BRANCH  20  21
DOCKED: ATOM     21  C2  UNL     1       6.318  -3.669  -0.790 +0.00 +0.00    +0.071 C  
DOCKED: BRANCH  21  23
DOCKED: ATOM     22  C1  UNL     1       6.387  -5.526   1.285 +0.00 +0.00    +0.084 C  
DOCKED: ATOM     23  S1  UNL     1       5.929  -3.798   0.994 +0.00 -0.00    -0.164 S  
DOCKED: ENDBRANCH  21  23
DOCKED: ENDBRANCH  20  21
DOCKED: ENDBRANCH   6  20
DOCKED: ENDBRANCH   2   6
DOCKED: ENDBRANCH   1   4
DOCKED: BRANCH   1  24
DOCKED: ATOM     24  C14 UNL     1       6.488   1.246   0.824 +0.00 +0.00    +0.028 C  
DOCKED: BRANCH  24  25
DOCKED: ATOM     25  C15 UNL     1       6.062   0.364   2.013 +0.00 -0.00    -0.015 C  
DOCKED: ATOM     26  C16 UNL     1       4.877  -0.513   1.600 +0.00 +0.00    +0.007 C  
DOCKED: ATOM     27  C17 UNL     1       5.689   1.189   3.245 +0.00 +0.00    +0.007 C  
DOCKED: ENDBRANCH  24  25
DOCKED: ENDBRANCH   1  24
DOCKED: BRANCH   1  28
DOCKED: ATOM     28  C18 UNL     1       9.033   1.812   0.896 +0.00 +0.00    +0.143 C  
DOCKED: BRANCH  28  29
DOCKED: ATOM     29  O4  UNL     1      10.050   0.958   1.439 +0.00 -0.00    -0.389 OA 
DOCKED: ATOM     30  H34 UNL     1       9.611   0.227   1.907 +0.00 +0.00    +0.210 HD 
DOCKED: ENDBRANCH  28  29
DOCKED: BRANCH  28  31
DOCKED: ATOM     31  C19 UNL     1       8.658   2.875   1.940 +0.00 +0.00    +0.129 C  
DOCKED: BRANCH  31  32
DOCKED: ATOM     32  C20 UNL     1       9.281   2.714   3.314 +0.00 +0.00    +0.216 C  
DOCKED: ATOM     33  O5  UNL     1       9.958   3.571   3.870 +0.00 -0.00    -0.276 OA 
DOCKED: ATOM     34  N4  UNL     1       9.074   1.465   3.868 +0.00 -0.00    -0.304 N  
DOCKED: ATOM     35  H37 UNL     1       8.984   0.706   3.200 +0.00 +0.00    +0.149 HD 
DOCKED: BRANCH  34  36
DOCKED: ATOM     36  C21 UNL     1       9.777   1.115   5.107 +0.00 +0.00    +0.161 C  
DOCKED: BRANCH  36  37
DOCKED: ATOM     37  C22 UNL     1      11.162   0.568   4.698 +0.00 +0.00    +0.234 C  
DOCKED: ATOM     38  O6  UNL     1      12.196   0.920   5.266 +0.00 -0.00    -0.274 OA 
DOCKED: ATOM     39  N5  UNL     1      11.153  -0.319   3.646 +0.00 -0.00    -0.301 N  
DOCKED: ATOM     40  H39 UNL     1      10.307  -0.406   3.096 +0.00 +0.00    +0.150 HD 
DOCKED: BRANCH  39  41
DOCKED: ATOM     41  C23 UNL     1      12.401  -0.807   3.067 +0.00 +0.00    +0.179 C  
DOCKED: ATOM     42  C24 UNL     1      13.161  -1.648   4.080 +0.00 +0.00    +0.040 C  
DOCKED: BRANCH  41  43
DOCKED: ATOM     43  C25 UNL     1      12.104  -1.632   1.812 +0.00 +0.00    +0.325 C  
DOCKED: ATOM     44  O7  UNL     1      12.791  -2.527   1.339 +0.00 -0.00    -0.249 OA 
DOCKED: BRANCH  43  45
DOCKED: ATOM     45  O8  UNL     1      10.951  -1.274   1.210 +0.00 -0.00    -0.479 OA 
DOCKED: ATOM     46  H44 UNL     1      10.324  -1.141   1.953 +0.00 +0.00    +0.295 HD 
DOCKED: ENDBRANCH  43  45
DOCKED: ENDBRANCH  41  43
DOCKED: ENDBRANCH  39  41
DOCKED: ENDBRANCH  36  37
DOCKED: BRANCH  36  47
DOCKED: ATOM     47  C26 UNL     1       8.945   0.125   5.953 +0.00 +0.00    +0.012 C  
DOCKED: ATOM     48  C27 UNL     1       9.774  -1.005   6.574 +0.00 +0.00    +0.009 C  
DOCKED: ATOM     49  C28 UNL     1       8.141   0.840   7.043 +0.00 +0.00    +0.009 C  
DOCKED: ENDBRANCH  36  47
DOCKED: ENDBRANCH  34  36
DOCKED: ENDBRANCH  31  32
DOCKED: ENDBRANCH  28  31
DOCKED: ENDBRANCH   1  28
DOCKED: TORSDOF 21
DOCKED: TER
DOCKED: ENDMDL
________________________________________________________________________________


    FINAL DOCKED STATE:
    ________________________


Run:   15 / 20
Time taken for this run:   1.141s

DOCKED: MODEL        15
DOCKED: USER    Run = 15
DOCKED: USER
DOCKED: USER    Estimated Free Energy of Binding    =  +6.26 kcal/mol  [=(1)+(2)+(3)-(4)]
DOCKED: USER
DOCKED: USER    (1) Final Intermolecular Energy     =  +0.00 kcal/mol
DOCKED: USER        vdW + Hbond + desolv Energy     =  +0.00 kcal/mol
DOCKED: USER        Electrostatic Energy            =  +0.00 kcal/mol
DOCKED: USER        Moving Ligand-Fixed Receptor    =  +0.00 kcal/mol
DOCKED: USER        Moving Ligand-Moving Receptor   =  +0.00 kcal/mol
DOCKED: USER    (2) Final Total Internal Energy     = -15.29 kcal/mol
DOCKED: USER    (3) Torsional Free Energy           =  +6.26 kcal/mol
DOCKED: USER    (4) Unbound System's Energy         = -15.29 kcal/mol
DOCKED: USER
DOCKED: USER
DOCKED: REMARK  Name = ligands/ligand_26.pdb
DOCKED: REMARK  30 active torsions:
DOCKED: REMARK  status: ('A' for Active; 'I' for Inactive)
DOCKED: REMARK    1  A    between atoms: C1_1  and  S1_2
DOCKED: REMARK    2  A    between atoms: S1_2  and  C2_3
DOCKED: REMARK    3  A    between atoms: C2_3  and  C3_4
DOCKED: REMARK    4  A    between atoms: C3_4  and  C4_5
DOCKED: REMARK    5  A    between atoms: C4_5  and  N1_6
DOCKED: REMARK    6  A    between atoms: C4_5  and  C12_17
DOCKED: REMARK    7  A    between atoms: C5_7  and  C6_9
DOCKED: REMARK    8  A    between atoms: C6_9  and  N2_10
DOCKED: REMARK    9  A    between atoms: C6_9  and  C9_14
DOCKED: REMARK   10  A    between atoms: C7_11  and  C8_12
DOCKED: REMARK   11  A    between atoms: C9_14  and  C10_15
DOCKED: REMARK   12  A    between atoms: C9_14  and  C11_16
DOCKED: REMARK   13  A    between atoms: N3_19  and  C13_20
DOCKED: REMARK   14  A    between atoms: C13_20  and  C14_21
DOCKED: REMARK   15  A    between atoms: C13_20  and  C18_25
DOCKED: REMARK   16  A    between atoms: C14_21  and  C15_22
DOCKED: REMARK   17  A    between atoms: C15_22  and  C16_23
DOCKED: REMARK   18  A    between atoms: C15_22  and  C17_24
DOCKED: REMARK   19  A    between atoms: C18_25  and  O4_26
DOCKED: REMARK   20  A    between atoms: C18_25  and  C19_27
DOCKED: REMARK   21  A    between atoms: C19_27  and  C20_28
DOCKED: REMARK   22  A    between atoms: N4_30  and  C21_31
DOCKED: REMARK   23  A    between atoms: C21_31  and  C22_32
DOCKED: REMARK   24  A    between atoms: C21_31  and  C26_40
DOCKED: REMARK   25  A    between atoms: N5_34  and  C23_35
DOCKED: REMARK   26  A    between atoms: C23_35  and  C24_36
DOCKED: REMARK   27  A    between atoms: C23_35  and  C25_37
DOCKED: REMARK   28  A    between atoms: C25_37  and  O8_39
DOCKED: REMARK   29  A    between atoms: C26_40  and  C27_41
DOCKED: REMARK   30  A    between atoms: C26_40  and  C28_42
DOCKED: REMARK                            x       y       z     vdW  Elec       q    Type
DOCKED: REMARK                         _______ _______ _______ _____ _____    ______ ____
DOCKED: USER                              x       y       z     vdW  Elec       q    Type
DOCKED: USER                           _______ _______ _______ _____ _____    ______ ____
DOCKED: ROOT
DOCKED: ATOM      1  C13 UNL     1      11.021   3.393  -2.291 +0.00 +0.00    +0.102 C  
DOCKED: ENDROOT
DOCKED: BRANCH   1   4
DOCKED: ATOM      2  C12 UNL     1       8.637   3.148  -2.985 +0.00 +0.00    +0.234 C  
DOCKED: ATOM      3  O3  UNL     1       8.762   3.749  -4.053 +0.00 -0.00    -0.274 OA 
DOCKED: ATOM      4  N3  UNL     1       9.622   3.061  -2.027 +0.00 -0.00    -0.308 N  
DOCKED: ATOM      5  H22 UNL     1       9.473   2.380  -1.277 +0.00 +0.00    +0.149 HD 
DOCKED: BRANCH   2   6
DOCKED: ATOM      6  C4  UNL     1       7.331   2.414  -2.610 +0.00 +0.00    +0.160 C  
DOCKED: BRANCH   6   7
DOCKED: ATOM      7  N1  UNL     1       7.324   2.289  -1.152 +0.00 -0.00    -0.302 N  
DOCKED: ATOM      8  C5  UNL     1       6.327   1.609  -0.488 +0.00 +0.00    +0.234 C  
DOCKED: ATOM      9  O1  UNL     1       5.256   1.302  -1.013 +0.00 -0.00    -0.274 OA 
DOCKED: ATOM     10  H9  UNL     1       8.255   2.263  -0.739 +0.00 +0.00    +0.150 HD 
DOCKED: BRANCH   8  11
DOCKED: ATOM     11  C6  UNL     1       6.672   1.225   0.970 +0.00 +0.00    +0.161 C  
DOCKED: BRANCH  11  12
DOCKED: ATOM     12  N2  UNL     1       7.005   2.450   1.694 +0.00 -0.00    -0.304 N  
DOCKED: ATOM     13  C7  UNL     1       8.206   3.086   1.479 +0.00 +0.00    +0.211 C  
DOCKED: ATOM     14  C8  UNL     1       8.293   4.450   2.109 +0.00 +0.00    +0.109 C  
DOCKED: ATOM     15  O2  UNL     1       9.132   2.604   0.837 +0.00 -0.00    -0.276 OA 
DOCKED: ATOM     16  H11 UNL     1       6.213   3.054   1.886 +0.00 +0.00    +0.149 HD 
DOCKED: ENDBRANCH  11  12
DOCKED: BRANCH  11  17
DOCKED: ATOM     17  C9  UNL     1       5.513   0.446   1.635 +0.00 +0.00    +0.012 C  
DOCKED: ATOM     18  C10 UNL     1       5.574   0.460   3.167 +0.00 +0.00    +0.009 C  
DOCKED: ATOM     19  C11 UNL     1       5.463  -0.998   1.125 +0.00 +0.00    +0.009 C  
DOCKED: ENDBRANCH  11  17
DOCKED: ENDBRANCH   8  11
DOCKED: ENDBRANCH   6   7
DOCKED: BRANCH   6  20
DOCKED: ATOM     20  C3  UNL     1       6.116   3.213  -3.087 +0.00 +0.00    +0.042 C  
DOCKED: BRANCH  20  21
DOCKED: ATOM     21  C2  UNL     1       6.235   4.719  -2.854 +0.00 +0.00    +0.071 C  
DOCKED: BRANCH  21  23
DOCKED: ATOM     22  C1  UNL     1       4.633   4.595  -0.579 +0.00 +0.00    +0.084 C  
DOCKED: ATOM     23  S1  UNL     1       6.273   5.175  -1.082 +0.00 -0.00    -0.164 S  
DOCKED: ENDBRANCH  21  23
DOCKED: ENDBRANCH  20  21
DOCKED: ENDBRANCH   6  20
DOCKED: ENDBRANCH   2   6
DOCKED: ENDBRANCH   1   4
DOCKED: BRANCH   1  24
DOCKED: ATOM     24  C14 UNL     1      11.290   4.842  -1.840 +0.00 +0.00    +0.028 C  
DOCKED: BRANCH  24  25
DOCKED: ATOM     25  C15 UNL     1      10.506   5.310  -0.599 +0.00 -0.00    -0.015 C  
DOCKED: ATOM     26  C16 UNL     1       9.570   6.458  -0.988 +0.00 +0.00    +0.007 C  
DOCKED: ATOM     27  C17 UNL     1      11.427   5.756   0.537 +0.00 +0.00    +0.007 C  
DOCKED: ENDBRANCH  24  25
DOCKED: ENDBRANCH   1  24
DOCKED: BRANCH   1  28
DOCKED: ATOM     28  C18 UNL     1      11.993   2.336  -1.675 +0.00 +0.00    +0.143 C  
DOCKED: BRANCH  28  29
DOCKED: ATOM     29  O4  UNL     1      11.254   1.313  -0.991 +0.00 -0.00    -0.389 OA 
DOCKED: ATOM     30  H34 UNL     1      10.568   1.744  -0.455 +0.00 +0.00    +0.210 HD 
DOCKED: ENDBRANCH  28  29
DOCKED: BRANCH  28  31
DOCKED: ATOM     31  C19 UNL     1      13.131   2.827  -0.766 +0.00 +0.00    +0.129 C  
DOCKED: BRANCH  31  32
DOCKED: ATOM     32  C20 UNL     1      13.156   2.261   0.642 +0.00 +0.00    +0.216 C  
DOCKED: ATOM     33  O5  UNL     1      14.092   1.624   1.112 +0.00 -0.00    -0.276 OA 
DOCKED: ATOM     34  N4  UNL     1      11.982   2.468   1.338 +0.00 -0.00    -0.304 N  
DOCKED: ATOM     35  H37 UNL     1      11.143   2.515   0.767 +0.00 +0.00    +0.149 HD 
DOCKED: BRANCH  34  36
DOCKED: ATOM     36  C21 UNL     1      11.805   1.813   2.639 +0.00 +0.00    +0.161 C  
DOCKED: BRANCH  36  37
DOCKED: ATOM     37  C22 UNL     1      11.323   0.374   2.354 +0.00 +0.00    +0.234 C  
DOCKED: ATOM     38  O6  UNL     1      11.809  -0.602   2.926 +0.00 -0.00    -0.274 OA 
DOCKED: ATOM     39  N5  UNL     1      10.330   0.267   1.407 +0.00 -0.00    -0.301 N  
DOCKED: ATOM     40  H39 UNL     1      10.122   1.075   0.834 +0.00 +0.00    +0.150 HD 
DOCKED: BRANCH  39  41
DOCKED: ATOM     41  C23 UNL     1       9.877  -1.041   0.942 +0.00 +0.00    +0.179 C  
DOCKED: ATOM     42  C24 UNL     1       9.218  -1.807   2.077 +0.00 +0.00    +0.040 C  
DOCKED: BRANCH  41  43
DOCKED: ATOM     43  C25 UNL     1       8.895  -0.867  -0.219 +0.00 +0.00    +0.325 C  
DOCKED: ATOM     44  O7  UNL     1       8.023  -1.651  -0.569 +0.00 -0.00    -0.249 OA 
DOCKED: BRANCH  43  45
DOCKED: ATOM     45  O8  UNL     1       9.073   0.291  -0.888 +0.00 -0.00    -0.479 OA 
DOCKED: ATOM     46  H44 UNL     1       9.256   0.948  -0.183 +0.00 +0.00    +0.295 HD 
DOCKED: ENDBRANCH  43  45
DOCKED: ENDBRANCH  41  43
DOCKED: ENDBRANCH  39  41
DOCKED: ENDBRANCH  36  37
DOCKED: BRANCH  36  47
DOCKED: ATOM     47  C26 UNL     1      10.844   2.623   3.539 +0.00 +0.00    +0.012 C  
DOCKED: ATOM     48  C27 UNL     1       9.889   1.752   4.363 +0.00 +0.00    +0.009 C  
DOCKED: ATOM     49  C28 UNL     1      11.599   3.584   4.461 +0.00 +0.00    +0.009 C  
DOCKED: ENDBRANCH  36  47
DOCKED: ENDBRANCH  34  36
DOCKED: ENDBRANCH  31  32
DOCKED: ENDBRANCH  28  31
DOCKED: ENDBRANCH   1  28
DOCKED: TORSDOF 21
DOCKED: TER
DOCKED: ENDMDL
________________________________________________________________________________


    FINAL DOCKED STATE:
    ________________________


Run:   16 / 20
Time taken for this run:   1.141s

DOCKED: MODEL        16
DOCKED: USER    Run = 16
DOCKED: USER
DOCKED: USER    Estimated Free Energy of Binding    =  +6.26 kcal/mol  [=(1)+(2)+(3)-(4)]
DOCKED: USER
DOCKED: USER    (1) Final Intermolecular Energy     =  +0.00 kcal/mol
DOCKED: USER        vdW + Hbond + desolv Energy     =  +0.00 kcal/mol
DOCKED: USER        Electrostatic Energy            =  +0.00 kcal/mol
DOCKED: USER        Moving Ligand-Fixed Receptor    =  +0.00 kcal/mol
DOCKED: USER        Moving Ligand-Moving Receptor   =  +0.00 kcal/mol
DOCKED: USER    (2) Final Total Internal Energy     = -15.28 kcal/mol
DOCKED: USER    (3) Torsional Free Energy           =  +6.26 kcal/mol
DOCKED: USER    (4) Unbound System's Energy         = -15.28 kcal/mol
DOCKED: USER
DOCKED: USER
DOCKED: REMARK  Name = ligands/ligand_26.pdb
DOCKED: REMARK  30 active torsions:
DOCKED: REMARK  status: ('A' for Active; 'I' for Inactive)
DOCKED: REMARK    1  A    between atoms: C1_1  and  S1_2
DOCKED: REMARK    2  A    between atoms: S1_2  and  C2_3
DOCKED: REMARK    3  A    between atoms: C2_3  and  C3_4
DOCKED: REMARK    4  A    between atoms: C3_4  and  C4_5
DOCKED: REMARK    5  A    between atoms: C4_5  and  N1_6
DOCKED: REMARK    6  A    between atoms: C4_5  and  C12_17
DOCKED: REMARK    7  A    between atoms: C5_7  and  C6_9
DOCKED: REMARK    8  A    between atoms: C6_9  and  N2_10
DOCKED: REMARK    9  A    between atoms: C6_9  and  C9_14
DOCKED: REMARK   10  A    between atoms: C7_11  and  C8_12
DOCKED: REMARK   11  A    between atoms: C9_14  and  C10_15
DOCKED: REMARK   12  A    between atoms: C9_14  and  C11_16
DOCKED: REMARK   13  A    between atoms: N3_19  and  C13_20
DOCKED: REMARK   14  A    between atoms: C13_20  and  C14_21
DOCKED: REMARK   15  A    between atoms: C13_20  and  C18_25
DOCKED: REMARK   16  A    between atoms: C14_21  and  C15_22
DOCKED: REMARK   17  A    between atoms: C15_22  and  C16_23
DOCKED: REMARK   18  A    between atoms: C15_22  and  C17_24
DOCKED: REMARK   19  A    between atoms: C18_25  and  O4_26
DOCKED: REMARK   20  A    between atoms: C18_25  and  C19_27
DOCKED: REMARK   21  A    between atoms: C19_27  and  C20_28
DOCKED: REMARK   22  A    between atoms: N4_30  and  C21_31
DOCKED: REMARK   23  A    between atoms: C21_31  and  C22_32
DOCKED: REMARK   24  A    between atoms: C21_31  and  C26_40
DOCKED: REMARK   25  A    between atoms: N5_34  and  C23_35
DOCKED: REMARK   26  A    between atoms: C23_35  and  C24_36
DOCKED: REMARK   27  A    between atoms: C23_35  and  C25_37
DOCKED: REMARK   28  A    between atoms: C25_37  and  O8_39
DOCKED: REMARK   29  A    between atoms: C26_40  and  C27_41
DOCKED: REMARK   30  A    between atoms: C26_40  and  C28_42
DOCKED: REMARK                            x       y       z     vdW  Elec       q    Type
DOCKED: REMARK                         _______ _______ _______ _____ _____    ______ ____
DOCKED: USER                              x       y       z     vdW  Elec       q    Type
DOCKED: USER                           _______ _______ _______ _____ _____    ______ ____
DOCKED: ROOT
DOCKED: ATOM      1  C13 UNL     1       7.242   5.325   0.340 +0.00 +0.00    +0.102 C  
DOCKED: ENDROOT
DOCKED: BRANCH   1   4
DOCKED: ATOM      2  C12 UNL     1       5.132   4.154  -0.294 +0.00 +0.00    +0.234 C  
DOCKED: ATOM      3  O3  UNL     1       4.389   5.102  -0.037 +0.00 -0.00    -0.274 OA 
DOCKED: ATOM      4  N3  UNL     1       6.478   4.127  -0.007 +0.00 -0.00    -0.308 N  
DOCKED: ATOM      5  H22 UNL     1       7.023   3.375  -0.437 +0.00 +0.00    +0.149 HD 
DOCKED: BRANCH   2   6
DOCKED: ATOM      6  C4  UNL     1       4.611   2.873  -0.981 +0.00 +0.00    +0.160 C  
DOCKED: BRANCH   6   7
DOCKED: ATOM      7  N1  UNL     1       5.550   1.803  -0.640 +0.00 -0.00    -0.302 N  
DOCKED: ATOM      8  C5  UNL     1       5.415   0.532  -1.151 +0.00 +0.00    +0.234 C  
DOCKED: ATOM      9  O1  UNL     1       4.385   0.127  -1.691 +0.00 -0.00    -0.274 OA 
DOCKED: ATOM     10  H9  UNL     1       6.497   2.132  -0.461 +0.00 +0.00    +0.150 HD 
DOCKED: BRANCH   8  11
DOCKED: ATOM     11  C6  UNL     1       6.681  -0.348  -1.027 +0.00 +0.00    +0.161 C  
DOCKED: BRANCH  11  12
DOCKED: ATOM     12  N2  UNL     1       7.052  -0.413   0.386 +0.00 -0.00    -0.304 N  
DOCKED: ATOM     13  C7  UNL     1       7.622   0.672   1.011 +0.00 +0.00    +0.211 C  
DOCKED: ATOM     14  C8  UNL     1       7.716   0.532   2.506 +0.00 +0.00    +0.109 C  
DOCKED: ATOM     15  O2  UNL     1       8.023   1.669   0.422 +0.00 -0.00    -0.276 OA 
DOCKED: ATOM     16  H11 UNL     1       6.432  -0.977   0.957 +0.00 +0.00    +0.149 HD 
DOCKED: ENDBRANCH  11  12
DOCKED: BRANCH  11  17
DOCKED: ATOM     17  C9  UNL     1       6.454  -1.750  -1.639 +0.00 +0.00    +0.012 C  
DOCKED: ATOM     18  C10 UNL     1       5.653  -2.688  -0.728 +0.00 +0.00    +0.009 C  
DOCKED: ATOM     19  C11 UNL     1       7.788  -2.402  -2.020 +0.00 +0.00    +0.009 C  
DOCKED: ENDBRANCH  11  17
DOCKED: ENDBRANCH   8  11
DOCKED: ENDBRANCH   6   7
DOCKED: BRANCH   6  20
DOCKED: ATOM     20  C3  UNL     1       3.205   2.535  -0.481 +0.00 +0.00    +0.042 C  
DOCKED: BRANCH  20  21
DOCKED: ATOM     21  C2  UNL     1       3.031   2.691   1.030 +0.00 +0.00    +0.071 C  
DOCKED: BRANCH  21  23
DOCKED: ATOM     22  C1  UNL     1       3.229  -0.051   1.481 +0.00 +0.00    +0.084 C  
DOCKED: ATOM     23  S1  UNL     1       4.020   1.494   1.998 +0.00 -0.00    -0.164 S  
DOCKED: ENDBRANCH  21  23
DOCKED: ENDBRANCH  20  21
DOCKED: ENDBRANCH   6  20
DOCKED: ENDBRANCH   2   6
DOCKED: ENDBRANCH   1   4
DOCKED: BRANCH   1  24
DOCKED: ATOM     24  C14 UNL     1       7.359   5.421   1.874 +0.00 +0.00    +0.028 C  
DOCKED: BRANCH  24  25
DOCKED: ATOM     25  C15 UNL     1       7.472   4.078   2.620 +0.00 -0.00    -0.015 C  
DOCKED: ATOM     26  C16 UNL     1       6.204   3.845   3.447 +0.00 +0.00    +0.007 C  
DOCKED: ATOM     27  C17 UNL     1       8.700   4.019   3.529 +0.00 +0.00    +0.007 C  
DOCKED: ENDBRANCH  24  25
DOCKED: ENDBRANCH   1  24
DOCKED: BRANCH   1  28
DOCKED: ATOM     28  C18 UNL     1       8.609   5.377  -0.414 +0.00 +0.00    +0.143 C  
DOCKED: BRANCH  28  29
DOCKED: ATOM     29  O4  UNL     1       8.791   4.195  -1.208 +0.00 -0.00    -0.389 OA 
DOCKED: ATOM     30  H34 UNL     1       8.518   3.430  -0.675 +0.00 +0.00    +0.210 HD 
DOCKED: ENDBRANCH  28  29
DOCKED: BRANCH  28  31
DOCKED: ATOM     31  C19 UNL     1       9.887   5.639   0.398 +0.00 +0.00    +0.129 C  
DOCKED: BRANCH  31  32
DOCKED: ATOM     32  C20 UNL     1      10.949   4.556   0.344 +0.00 +0.00    +0.216 C  
DOCKED: ATOM     33  O5  UNL     1      12.097   4.735  -0.045 +0.00 -0.00    -0.276 OA 
DOCKED: ATOM     34  N4  UNL     1      10.482   3.310   0.712 +0.00 -0.00    -0.304 N  
DOCKED: ATOM     35  H37 UNL     1       9.499   3.142   0.518 +0.00 +0.00    +0.149 HD 
DOCKED: BRANCH  34  36
DOCKED: ATOM     36  C21 UNL     1      11.353   2.144   0.527 +0.00 +0.00    +0.161 C  
DOCKED: BRANCH  36  37
DOCKED: ATOM     37  C22 UNL     1      11.230   1.722  -0.954 +0.00 +0.00    +0.234 C  
DOCKED: ATOM     38  O6  UNL     1      12.217   1.461  -1.641 +0.00 -0.00    -0.274 OA 
DOCKED: ATOM     39  N5  UNL     1       9.945   1.679  -1.444 +0.00 -0.00    -0.301 N  
DOCKED: ATOM     40  H39 UNL     1       9.205   2.099  -0.895 +0.00 +0.00    +0.150 HD 
DOCKED: BRANCH  39  41
DOCKED: ATOM     41  C23 UNL     1       9.692   1.430  -2.860 +0.00 +0.00    +0.179 C  
DOCKED: ATOM     42  C24 UNL     1      10.172   0.041  -3.247 +0.00 +0.00    +0.040 C  
DOCKED: BRANCH  41  43
DOCKED: ATOM     43  C25 UNL     1       8.197   1.575  -3.154 +0.00 +0.00    +0.325 C  
DOCKED: ATOM     44  O7  UNL     1       7.568   1.035  -4.054 +0.00 -0.00    -0.249 OA 
DOCKED: BRANCH  43  45
DOCKED: ATOM     45  O8  UNL     1       7.572   2.407  -2.296 +0.00 -0.00    -0.479 OA 
DOCKED: ATOM     46  H44 UNL     1       7.963   2.189  -1.423 +0.00 +0.00    +0.295 HD 
DOCKED: ENDBRANCH  43  45
DOCKED: ENDBRANCH  41  43
DOCKED: ENDBRANCH  39  41
DOCKED: ENDBRANCH  36  37
DOCKED: BRANCH  36  47
DOCKED: ATOM     47  C26 UNL     1      10.991   1.020   1.524 +0.00 +0.00    +0.012 C  
DOCKED: ATOM     48  C27 UNL     1      10.999  -0.381   0.905 +0.00 +0.00    +0.009 C  
DOCKED: ATOM     49  C28 UNL     1      11.888   1.047   2.765 +0.00 +0.00    +0.009 C  
DOCKED: ENDBRANCH  36  47
DOCKED: ENDBRANCH  34  36
DOCKED: ENDBRANCH  31  32
DOCKED: ENDBRANCH  28  31
DOCKED: ENDBRANCH   1  28
DOCKED: TORSDOF 21
DOCKED: TER
DOCKED: ENDMDL
________________________________________________________________________________


    FINAL DOCKED STATE:
    ________________________


Run:   17 / 20
Time taken for this run:   1.141s

DOCKED: MODEL        17
DOCKED: USER    Run = 17
DOCKED: USER
DOCKED: USER    Estimated Free Energy of Binding    =  +6.26 kcal/mol  [=(1)+(2)+(3)-(4)]
DOCKED: USER
DOCKED: USER    (1) Final Intermolecular Energy     =  +0.00 kcal/mol
DOCKED: USER        vdW + Hbond + desolv Energy     =  +0.00 kcal/mol
DOCKED: USER        Electrostatic Energy            =  +0.00 kcal/mol
DOCKED: USER        Moving Ligand-Fixed Receptor    =  +0.00 kcal/mol
DOCKED: USER        Moving Ligand-Moving Receptor   =  +0.00 kcal/mol
DOCKED: USER    (2) Final Total Internal Energy     = -15.24 kcal/mol
DOCKED: USER    (3) Torsional Free Energy           =  +6.26 kcal/mol
DOCKED: USER    (4) Unbound System's Energy         = -15.24 kcal/mol
DOCKED: USER
DOCKED: USER
DOCKED: REMARK  Name = ligands/ligand_26.pdb
DOCKED: REMARK  30 active torsions:
DOCKED: REMARK  status: ('A' for Active; 'I' for Inactive)
DOCKED: REMARK    1  A    between atoms: C1_1  and  S1_2
DOCKED: REMARK    2  A    between atoms: S1_2  and  C2_3
DOCKED: REMARK    3  A    between atoms: C2_3  and  C3_4
DOCKED: REMARK    4  A    between atoms: C3_4  and  C4_5
DOCKED: REMARK    5  A    between atoms: C4_5  and  N1_6
DOCKED: REMARK    6  A    between atoms: C4_5  and  C12_17
DOCKED: REMARK    7  A    between atoms: C5_7  and  C6_9
DOCKED: REMARK    8  A    between atoms: C6_9  and  N2_10
DOCKED: REMARK    9  A    between atoms: C6_9  and  C9_14
DOCKED: REMARK   10  A    between atoms: C7_11  and  C8_12
DOCKED: REMARK   11  A    between atoms: C9_14  and  C10_15
DOCKED: REMARK   12  A    between atoms: C9_14  and  C11_16
DOCKED: REMARK   13  A    between atoms: N3_19  and  C13_20
DOCKED: REMARK   14  A    between atoms: C13_20  and  C14_21
DOCKED: REMARK   15  A    between atoms: C13_20  and  C18_25
DOCKED: REMARK   16  A    between atoms: C14_21  and  C15_22
DOCKED: REMARK   17  A    between atoms: C15_22  and  C16_23
DOCKED: REMARK   18  A    between atoms: C15_22  and  C17_24
DOCKED: REMARK   19  A    between atoms: C18_25  and  O4_26
DOCKED: REMARK   20  A    between atoms: C18_25  and  C19_27
DOCKED: REMARK   21  A    between atoms: C19_27  and  C20_28
DOCKED: REMARK   22  A    between atoms: N4_30  and  C21_31
DOCKED: REMARK   23  A    between atoms: C21_31  and  C22_32
DOCKED: REMARK   24  A    between atoms: C21_31  and  C26_40
DOCKED: REMARK   25  A    between atoms: N5_34  and  C23_35
DOCKED: REMARK   26  A    between atoms: C23_35  and  C24_36
DOCKED: REMARK   27  A    between atoms: C23_35  and  C25_37
DOCKED: REMARK   28  A    between atoms: C25_37  and  O8_39
DOCKED: REMARK   29  A    between atoms: C26_40  and  C27_41
DOCKED: REMARK   30  A    between atoms: C26_40  and  C28_42
DOCKED: REMARK                            x       y       z     vdW  Elec       q    Type
DOCKED: REMARK                         _______ _______ _______ _____ _____    ______ ____
DOCKED: USER                              x       y       z     vdW  Elec       q    Type
DOCKED: USER                           _______ _______ _______ _____ _____    ______ ____
DOCKED: ROOT
DOCKED: ATOM      1  C13 UNL     1      10.115  -8.539  -0.375 +0.00 +0.00    +0.102 C  
DOCKED: ENDROOT
DOCKED: BRANCH   1   4
DOCKED: ATOM      2  C12 UNL     1       8.910  -6.369  -0.633 +0.00 +0.00    +0.234 C  
DOCKED: ATOM      3  O3  UNL     1       8.271  -6.706  -1.631 +0.00 -0.00    -0.274 OA 
DOCKED: ATOM      4  N3  UNL     1       9.910  -7.125  -0.063 +0.00 -0.00    -0.308 N  
DOCKED: ATOM      5  H22 UNL     1      10.231  -6.836   0.865 +0.00 +0.00    +0.149 HD 
DOCKED: BRANCH   2   6
DOCKED: ATOM      6  C4  UNL     1       8.641  -5.033   0.094 +0.00 +0.00    +0.160 C  
DOCKED: BRANCH   6   7
DOCKED: ATOM      7  N1  UNL     1       8.009  -5.371   1.371 +0.00 -0.00    -0.302 N  
DOCKED: ATOM      8  C5  UNL     1       8.745  -5.812   2.448 +0.00 +0.00    +0.234 C  
DOCKED: ATOM      9  O1  UNL     1       9.907  -6.209   2.355 +0.00 -0.00    -0.274 OA 
DOCKED: ATOM     10  H9  UNL     1       7.176  -4.822   1.573 +0.00 +0.00    +0.150 HD 
DOCKED: BRANCH   8  11
DOCKED: ATOM     11  C6  UNL     1       8.006  -5.735   3.805 +0.00 +0.00    +0.161 C  
DOCKED: BRANCH  11  12
DOCKED: ATOM     12  N2  UNL     1       7.768  -7.100   4.270 +0.00 -0.00    -0.304 N  
DOCKED: ATOM     13  C7  UNL     1       7.430  -8.094   3.381 +0.00 +0.00    +0.211 C  
DOCKED: ATOM     14  C8  UNL     1       7.461  -9.477   3.973 +0.00 +0.00    +0.109 C  
DOCKED: ATOM     15  O2  UNL     1       7.128  -7.893   2.210 +0.00 -0.00    -0.276 OA 
DOCKED: ATOM     16  H11 UNL     1       8.348  -7.385   5.052 +0.00 +0.00    +0.149 HD 
DOCKED: ENDBRANCH  11  12
DOCKED: BRANCH  11  17
DOCKED: ATOM     17  C9  UNL     1       8.801  -4.895   4.832 +0.00 +0.00    +0.012 C  
DOCKED: ATOM     18  C10 UNL     1       7.931  -4.337   5.964 +0.00 +0.00    +0.009 C  
DOCKED: ATOM     19  C11 UNL     1       9.554  -3.755   4.139 +0.00 +0.00    +0.009 C  
DOCKED: ENDBRANCH  11  17
DOCKED: ENDBRANCH   8  11
DOCKED: ENDBRANCH   6   7
DOCKED: BRANCH   6  20
DOCKED: ATOM     20  C3  UNL     1       9.952  -4.280   0.326 +0.00 +0.00    +0.042 C  
DOCKED: BRANCH  20  21
DOCKED: ATOM     21  C2  UNL     1      10.729  -3.981  -0.957 +0.00 +0.00    +0.071 C  
DOCKED: BRANCH  21  23
DOCKED: ATOM     22  C1  UNL     1      10.821  -1.632   0.537 +0.00 +0.00    +0.084 C  
DOCKED: ATOM     23  S1  UNL     1      11.614  -2.380  -0.909 +0.00 -0.00    -0.164 S  
DOCKED: ENDBRANCH  21  23
DOCKED: ENDBRANCH  20  21
DOCKED: ENDBRANCH   6  20
DOCKED: ENDBRANCH   2   6
DOCKED: ENDBRANCH   1   4
DOCKED: BRANCH   1  24
DOCKED: ATOM     24  C14 UNL     1      11.128  -8.658  -1.531 +0.00 +0.00    +0.028 C  
DOCKED: BRANCH  24  25
DOCKED: ATOM     25  C15 UNL     1      11.998  -7.411  -1.786 +0.00 -0.00    -0.015 C  
DOCKED: ATOM     26  C16 UNL     1      11.512  -6.701  -3.053 +0.00 +0.00    +0.007 C  
DOCKED: ATOM     27  C17 UNL     1      13.481  -7.755  -1.923 +0.00 +0.00    +0.007 C  
DOCKED: ENDBRANCH  24  25
DOCKED: ENDBRANCH   1  24
DOCKED: BRANCH   1  28
DOCKED: ATOM     28  C18 UNL     1      10.490  -9.364   0.897 +0.00 +0.00    +0.143 C  
DOCKED: BRANCH  28  29
DOCKED: ATOM     29  O4  UNL     1      10.151  -8.635   2.087 +0.00 -0.00    -0.389 OA 
DOCKED: ATOM     30  H34 UNL     1       9.272  -8.241   1.957 +0.00 +0.00    +0.210 HD 
DOCKED: ENDBRANCH  28  29
DOCKED: BRANCH  28  31
DOCKED: ATOM     31  C19 UNL     1      11.924  -9.901   1.029 +0.00 +0.00    +0.129 C  
DOCKED: BRANCH  31  32
DOCKED: ATOM     32  C20 UNL     1      12.996  -8.879   1.357 +0.00 +0.00    +0.216 C  
DOCKED: ATOM     33  O5  UNL     1      14.146  -9.162   1.671 +0.00 -0.00    -0.276 OA 
DOCKED: ATOM     34  N4  UNL     1      12.536  -7.576   1.341 +0.00 -0.00    -0.304 N  
DOCKED: ATOM     35  H37 UNL     1      11.557  -7.461   1.583 +0.00 +0.00    +0.149 HD 
DOCKED: BRANCH  34  36
DOCKED: ATOM     36  C21 UNL     1      13.420  -6.507   1.820 +0.00 +0.00    +0.161 C  
DOCKED: BRANCH  36  37
DOCKED: ATOM     37  C22 UNL     1      13.316  -6.497   3.361 +0.00 +0.00    +0.234 C  
DOCKED: ATOM     38  O6  UNL     1      14.271  -6.195   4.077 +0.00 -0.00    -0.274 OA 
DOCKED: ATOM     39  N5  UNL     1      12.090  -6.865   3.866 +0.00 -0.00    -0.301 N  
DOCKED: ATOM     40  H39 UNL     1      11.420  -7.295   3.241 +0.00 +0.00    +0.150 HD 
DOCKED: BRANCH  39  41
DOCKED: ATOM     41  C23 UNL     1      11.892  -7.032   5.303 +0.00 +0.00    +0.179 C  
DOCKED: ATOM     42  C24 UNL     1      11.943  -5.683   6.004 +0.00 +0.00    +0.040 C  
DOCKED: BRANCH  41  43
DOCKED: ATOM     43  C25 UNL     1      10.548  -7.715   5.567 +0.00 +0.00    +0.325 C  
DOCKED: ATOM     44  O7  UNL     1       9.868  -7.634   6.581 +0.00 -0.00    -0.249 OA 
DOCKED: BRANCH  43  45
DOCKED: ATOM     45  O8  UNL     1      10.136  -8.477   4.533 +0.00 -0.00    -0.479 OA 
DOCKED: ATOM     46  H44 UNL     1      10.057  -7.845   3.787 +0.00 +0.00    +0.295 HD 
DOCKED: ENDBRANCH  43  45
DOCKED: ENDBRANCH  41  43
DOCKED: ENDBRANCH  39  41
DOCKED: ENDBRANCH  36  37
DOCKED: BRANCH  36  47
DOCKED: ATOM     47  C26 UNL     1      13.057  -5.156   1.164 +0.00 +0.00    +0.012 C  
DOCKED: ATOM     48  C27 UNL     1      12.816  -4.026   2.172 +0.00 +0.00    +0.009 C  
DOCKED: ATOM     49  C28 UNL     1      14.103  -4.721   0.135 +0.00 +0.00    +0.009 C  
DOCKED: ENDBRANCH  36  47
DOCKED: ENDBRANCH  34  36
DOCKED: ENDBRANCH  31  32
DOCKED: ENDBRANCH  28  31
DOCKED: ENDBRANCH   1  28
DOCKED: TORSDOF 21
DOCKED: TER
DOCKED: ENDMDL
________________________________________________________________________________


    FINAL DOCKED STATE:
    ________________________


Run:   18 / 20
Time taken for this run:   1.141s

DOCKED: MODEL        18
DOCKED: USER    Run = 18
DOCKED: USER
DOCKED: USER    Estimated Free Energy of Binding    =  +6.26 kcal/mol  [=(1)+(2)+(3)-(4)]
DOCKED: USER
DOCKED: USER    (1) Final Intermolecular Energy     =  +0.00 kcal/mol
DOCKED: USER        vdW + Hbond + desolv Energy     =  +0.00 kcal/mol
DOCKED: USER        Electrostatic Energy            =  +0.00 kcal/mol
DOCKED: USER        Moving Ligand-Fixed Receptor    =  +0.00 kcal/mol
DOCKED: USER        Moving Ligand-Moving Receptor   =  +0.00 kcal/mol
DOCKED: USER    (2) Final Total Internal Energy     = -15.29 kcal/mol
DOCKED: USER    (3) Torsional Free Energy           =  +6.26 kcal/mol
DOCKED: USER    (4) Unbound System's Energy         = -15.29 kcal/mol
DOCKED: USER
DOCKED: USER
DOCKED: REMARK  Name = ligands/ligand_26.pdb
DOCKED: REMARK  30 active torsions:
DOCKED: REMARK  status: ('A' for Active; 'I' for Inactive)
DOCKED: REMARK    1  A    between atoms: C1_1  and  S1_2
DOCKED: REMARK    2  A    between atoms: S1_2  and  C2_3
DOCKED: REMARK    3  A    between atoms: C2_3  and  C3_4
DOCKED: REMARK    4  A    between atoms: C3_4  and  C4_5
DOCKED: REMARK    5  A    between atoms: C4_5  and  N1_6
DOCKED: REMARK    6  A    between atoms: C4_5  and  C12_17
DOCKED: REMARK    7  A    between atoms: C5_7  and  C6_9
DOCKED: REMARK    8  A    between atoms: C6_9  and  N2_10
DOCKED: REMARK    9  A    between atoms: C6_9  and  C9_14
DOCKED: REMARK   10  A    between atoms: C7_11  and  C8_12
DOCKED: REMARK   11  A    between atoms: C9_14  and  C10_15
DOCKED: REMARK   12  A    between atoms: C9_14  and  C11_16
DOCKED: REMARK   13  A    between atoms: N3_19  and  C13_20
DOCKED: REMARK   14  A    between atoms: C13_20  and  C14_21
DOCKED: REMARK   15  A    between atoms: C13_20  and  C18_25
DOCKED: REMARK   16  A    between atoms: C14_21  and  C15_22
DOCKED: REMARK   17  A    between atoms: C15_22  and  C16_23
DOCKED: REMARK   18  A    between atoms: C15_22  and  C17_24
DOCKED: REMARK   19  A    between atoms: C18_25  and  O4_26
DOCKED: REMARK   20  A    between atoms: C18_25  and  C19_27
DOCKED: REMARK   21  A    between atoms: C19_27  and  C20_28
DOCKED: REMARK   22  A    between atoms: N4_30  and  C21_31
DOCKED: REMARK   23  A    between atoms: C21_31  and  C22_32
DOCKED: REMARK   24  A    between atoms: C21_31  and  C26_40
DOCKED: REMARK   25  A    between atoms: N5_34  and  C23_35
DOCKED: REMARK   26  A    between atoms: C23_35  and  C24_36
DOCKED: REMARK   27  A    between atoms: C23_35  and  C25_37
DOCKED: REMARK   28  A    between atoms: C25_37  and  O8_39
DOCKED: REMARK   29  A    between atoms: C26_40  and  C27_41
DOCKED: REMARK   30  A    between atoms: C26_40  and  C28_42
DOCKED: REMARK                            x       y       z     vdW  Elec       q    Type
DOCKED: REMARK                         _______ _______ _______ _____ _____    ______ ____
DOCKED: USER                              x       y       z     vdW  Elec       q    Type
DOCKED: USER                           _______ _______ _______ _____ _____    ______ ____
DOCKED: ROOT
DOCKED: ATOM      1  C13 UNL     1       5.299  -0.165  -0.002 +0.00 +0.00    +0.102 C  
DOCKED: ENDROOT
DOCKED: BRANCH   1   4
DOCKED: ATOM      2  C12 UNL     1       6.675   1.141   1.618 +0.00 +0.00    +0.234 C  
DOCKED: ATOM      3  O3  UNL     1       7.038   1.993   0.806 +0.00 -0.00    -0.274 OA 
DOCKED: ATOM      4  N3  UNL     1       5.970   0.006   1.286 +0.00 -0.00    -0.308 N  
DOCKED: ATOM      5  H22 UNL     1       5.561  -0.523   2.061 +0.00 +0.00    +0.149 HD 
DOCKED: BRANCH   2   6
DOCKED: ATOM      6  C4  UNL     1       6.984   1.269   3.126 +0.00 +0.00    +0.160 C  
DOCKED: BRANCH   6   7
DOCKED: ATOM      7  N1  UNL     1       6.916  -0.083   3.683 +0.00 -0.00    -0.302 N  
DOCKED: ATOM      8  C5  UNL     1       7.063  -0.318   5.032 +0.00 +0.00    +0.234 C  
DOCKED: ATOM      9  O1  UNL     1       7.521   0.514   5.816 +0.00 -0.00    -0.274 OA 
DOCKED: ATOM     10  H9  UNL     1       6.295  -0.707   3.171 +0.00 +0.00    +0.150 HD 
DOCKED: BRANCH   8  11
DOCKED: ATOM     11  C6  UNL     1       6.569  -1.707   5.500 +0.00 +0.00    +0.161 C  
DOCKED: BRANCH  11  12
DOCKED: ATOM     12  N2  UNL     1       7.287  -2.725   4.735 +0.00 -0.00    -0.304 N  
DOCKED: ATOM     13  C7  UNL     1       6.982  -2.953   3.413 +0.00 +0.00    +0.211 C  
DOCKED: ATOM     14  C8  UNL     1       7.965  -3.847   2.707 +0.00 +0.00    +0.109 C  
DOCKED: ATOM     15  O2  UNL     1       6.003  -2.482   2.845 +0.00 -0.00    -0.276 OA 
DOCKED: ATOM     16  H11 UNL     1       8.265  -2.828   4.987 +0.00 +0.00    +0.149 HD 
DOCKED: ENDBRANCH  11  12
DOCKED: BRANCH  11  17
DOCKED: ATOM     17  C9  UNL     1       6.750  -1.884   7.026 +0.00 +0.00    +0.012 C  
DOCKED: ATOM     18  C10 UNL     1       8.194  -2.199   7.434 +0.00 +0.00    +0.009 C  
DOCKED: ATOM     19  C11 UNL     1       5.806  -2.963   7.566 +0.00 +0.00    +0.009 C  
DOCKED: ENDBRANCH  11  17
DOCKED: ENDBRANCH   8  11
DOCKED: ENDBRANCH   6   7
DOCKED: BRANCH   6  20
DOCKED: ATOM     20  C3  UNL     1       8.376   1.868   3.336 +0.00 +0.00    +0.042 C  
DOCKED: BRANCH  20  21
DOCKED: ATOM     21  C2  UNL     1       9.442   1.298   2.400 +0.00 +0.00    +0.071 C  
DOCKED: BRANCH  21  23
DOCKED: ATOM     22  C1  UNL     1      10.472  -0.377   4.372 +0.00 +0.00    +0.084 C  
DOCKED: ATOM     23  S1  UNL     1       9.792  -0.473   2.697 +0.00 -0.00    -0.164 S  
DOCKED: ENDBRANCH  21  23
DOCKED: ENDBRANCH  20  21
DOCKED: ENDBRANCH   6  20
DOCKED: ENDBRANCH   2   6
DOCKED: ENDBRANCH   1   4
DOCKED: BRANCH   1  24
DOCKED: ATOM     24  C14 UNL     1       6.209  -0.980  -0.941 +0.00 +0.00    +0.028 C  
DOCKED: BRANCH  24  25
DOCKED: ATOM     25  C15 UNL     1       7.078  -2.055  -0.259 +0.00 -0.00    -0.015 C  
DOCKED: ATOM     26  C16 UNL     1       8.556  -1.675  -0.391 +0.00 +0.00    +0.007 C  
DOCKED: ATOM     27  C17 UNL     1       6.848  -3.448  -0.846 +0.00 +0.00    +0.007 C  
DOCKED: ENDBRANCH  24  25
DOCKED: ENDBRANCH   1  24
DOCKED: BRANCH   1  28
DOCKED: ATOM     28  C18 UNL     1       3.861  -0.750   0.169 +0.00 +0.00    +0.143 C  
DOCKED: BRANCH  28  29
DOCKED: ATOM     29  O4  UNL     1       3.585  -1.012   1.553 +0.00 -0.00    -0.389 OA 
DOCKED: ATOM     30  H34 UNL     1       4.369  -1.437   1.940 +0.00 +0.00    +0.210 HD 
DOCKED: ENDBRANCH  28  29
DOCKED: BRANCH  28  31
DOCKED: ATOM     31  C19 UNL     1       3.464  -1.979  -0.664 +0.00 +0.00    +0.129 C  
DOCKED: BRANCH  31  32
DOCKED: ATOM     32  C20 UNL     1       3.053  -3.214   0.117 +0.00 +0.00    +0.216 C  
DOCKED: ATOM     33  O5  UNL     1       1.960  -3.760   0.019 +0.00 -0.00    -0.276 OA 
DOCKED: ATOM     34  N4  UNL     1       4.010  -3.638   1.018 +0.00 -0.00    -0.304 N  
DOCKED: ATOM     35  H37 UNL     1       4.600  -2.904   1.398 +0.00 +0.00    +0.149 HD 
DOCKED: BRANCH  34  36
DOCKED: ATOM     36  C21 UNL     1       3.667  -4.705   1.965 +0.00 +0.00    +0.161 C  
DOCKED: BRANCH  36  37
DOCKED: ATOM     37  C22 UNL     1       2.896  -4.042   3.128 +0.00 +0.00    +0.234 C  
DOCKED: ATOM     38  O6  UNL     1       1.854  -4.521   3.575 +0.00 -0.00    -0.274 OA 
DOCKED: ATOM     39  N5  UNL     1       3.449  -2.877   3.606 +0.00 -0.00    -0.301 N  
DOCKED: ATOM     40  H39 UNL     1       4.181  -2.433   3.067 +0.00 +0.00    +0.150 HD 
DOCKED: BRANCH  39  41
DOCKED: ATOM     41  C23 UNL     1       2.753  -2.074   4.609 +0.00 +0.00    +0.179 C  
DOCKED: ATOM     42  C24 UNL     1       2.616  -2.853   5.907 +0.00 +0.00    +0.040 C  
DOCKED: BRANCH  41  43
DOCKED: ATOM     43  C25 UNL     1       3.516  -0.770   4.851 +0.00 +0.00    +0.325 C  
DOCKED: ATOM     44  O7  UNL     1       3.499  -0.085   5.865 +0.00 -0.00    -0.249 OA 
DOCKED: BRANCH  43  45
DOCKED: ATOM     45  O8  UNL     1       4.259  -0.392   3.790 +0.00 -0.00    -0.479 OA 
DOCKED: ATOM     46  H44 UNL     1       4.632  -1.232   3.448 +0.00 +0.00    +0.295 HD 
DOCKED: ENDBRANCH  43  45
DOCKED: ENDBRANCH  41  43
DOCKED: ENDBRANCH  39  41
DOCKED: ENDBRANCH  36  37
DOCKED: BRANCH  36  47
DOCKED: ATOM     47  C26 UNL     1       4.933  -5.469   2.416 +0.00 +0.00    +0.012 C  
DOCKED: ATOM     48  C27 UNL     1       4.947  -5.811   3.910 +0.00 +0.00    +0.009 C  
DOCKED: ATOM     49  C28 UNL     1       5.159  -6.738   1.589 +0.00 +0.00    +0.009 C  
DOCKED: ENDBRANCH  36  47
DOCKED: ENDBRANCH  34  36
DOCKED: ENDBRANCH  31  32
DOCKED: ENDBRANCH  28  31
DOCKED: ENDBRANCH   1  28
DOCKED: TORSDOF 21
DOCKED: TER
DOCKED: ENDMDL
________________________________________________________________________________


    FINAL DOCKED STATE:
    ________________________


Run:   19 / 20
Time taken for this run:   1.141s

DOCKED: MODEL        19
DOCKED: USER    Run = 19
DOCKED: USER
DOCKED: USER    Estimated Free Energy of Binding    =  +6.26 kcal/mol  [=(1)+(2)+(3)-(4)]
DOCKED: USER
DOCKED: USER    (1) Final Intermolecular Energy     =  +0.00 kcal/mol
DOCKED: USER        vdW + Hbond + desolv Energy     =  +0.00 kcal/mol
DOCKED: USER        Electrostatic Energy            =  +0.00 kcal/mol
DOCKED: USER        Moving Ligand-Fixed Receptor    =  +0.00 kcal/mol
DOCKED: USER        Moving Ligand-Moving Receptor   =  +0.00 kcal/mol
DOCKED: USER    (2) Final Total Internal Energy     = -15.14 kcal/mol
DOCKED: USER    (3) Torsional Free Energy           =  +6.26 kcal/mol
DOCKED: USER    (4) Unbound System's Energy         = -15.14 kcal/mol
DOCKED: USER
DOCKED: USER
DOCKED: REMARK  Name = ligands/ligand_26.pdb
DOCKED: REMARK  30 active torsions:
DOCKED: REMARK  status: ('A' for Active; 'I' for Inactive)
DOCKED: REMARK    1  A    between atoms: C1_1  and  S1_2
DOCKED: REMARK    2  A    between atoms: S1_2  and  C2_3
DOCKED: REMARK    3  A    between atoms: C2_3  and  C3_4
DOCKED: REMARK    4  A    between atoms: C3_4  and  C4_5
DOCKED: REMARK    5  A    between atoms: C4_5  and  N1_6
DOCKED: REMARK    6  A    between atoms: C4_5  and  C12_17
DOCKED: REMARK    7  A    between atoms: C5_7  and  C6_9
DOCKED: REMARK    8  A    between atoms: C6_9  and  N2_10
DOCKED: REMARK    9  A    between atoms: C6_9  and  C9_14
DOCKED: REMARK   10  A    between atoms: C7_11  and  C8_12
DOCKED: REMARK   11  A    between atoms: C9_14  and  C10_15
DOCKED: REMARK   12  A    between atoms: C9_14  and  C11_16
DOCKED: REMARK   13  A    between atoms: N3_19  and  C13_20
DOCKED: REMARK   14  A    between atoms: C13_20  and  C14_21
DOCKED: REMARK   15  A    between atoms: C13_20  and  C18_25
DOCKED: REMARK   16  A    between atoms: C14_21  and  C15_22
DOCKED: REMARK   17  A    between atoms: C15_22  and  C16_23
DOCKED: REMARK   18  A    between atoms: C15_22  and  C17_24
DOCKED: REMARK   19  A    between atoms: C18_25  and  O4_26
DOCKED: REMARK   20  A    between atoms: C18_25  and  C19_27
DOCKED: REMARK   21  A    between atoms: C19_27  and  C20_28
DOCKED: REMARK   22  A    between atoms: N4_30  and  C21_31
DOCKED: REMARK   23  A    between atoms: C21_31  and  C22_32
DOCKED: REMARK   24  A    between atoms: C21_31  and  C26_40
DOCKED: REMARK   25  A    between atoms: N5_34  and  C23_35
DOCKED: REMARK   26  A    between atoms: C23_35  and  C24_36
DOCKED: REMARK   27  A    between atoms: C23_35  and  C25_37
DOCKED: REMARK   28  A    between atoms: C25_37  and  O8_39
DOCKED: REMARK   29  A    between atoms: C26_40  and  C27_41
DOCKED: REMARK   30  A    between atoms: C26_40  and  C28_42
DOCKED: REMARK                            x       y       z     vdW  Elec       q    Type
DOCKED: REMARK                         _______ _______ _______ _____ _____    ______ ____
DOCKED: USER                              x       y       z     vdW  Elec       q    Type
DOCKED: USER                           _______ _______ _______ _____ _____    ______ ____
DOCKED: ROOT
DOCKED: ATOM      1  C13 UNL     1      10.933  -3.142   4.003 +0.00 +0.00    +0.102 C  
DOCKED: ENDROOT
DOCKED: BRANCH   1   4
DOCKED: ATOM      2  C12 UNL     1       8.962  -1.956   3.037 +0.00 +0.00    +0.234 C  
DOCKED: ATOM      3  O3  UNL     1       8.139  -2.817   3.352 +0.00 -0.00    -0.274 OA 
DOCKED: ATOM      4  N3  UNL     1      10.324  -2.099   3.179 +0.00 -0.00    -0.308 N  
DOCKED: ATOM      5  H22 UNL     1      10.888  -1.252   3.066 +0.00 +0.00    +0.149 HD 
DOCKED: BRANCH   2   6
DOCKED: ATOM      6  C4  UNL     1       8.532  -0.599   2.438 +0.00 +0.00    +0.160 C  
DOCKED: BRANCH   6   7
DOCKED: ATOM      7  N1  UNL     1       9.254  -0.452   1.173 +0.00 -0.00    -0.302 N  
DOCKED: ATOM      8  C5  UNL     1      10.524   0.078   1.122 +0.00 +0.00    +0.234 C  
DOCKED: ATOM      9  O1  UNL     1      11.032   0.704   2.054 +0.00 -0.00    -0.274 OA 
DOCKED: ATOM     10  H9  UNL     1       9.023  -1.166   0.485 +0.00 +0.00    +0.150 HD 
DOCKED: BRANCH   8  11
DOCKED: ATOM     11  C6  UNL     1      11.286  -0.206  -0.193 +0.00 +0.00    +0.161 C  
DOCKED: BRANCH  11  12
DOCKED: ATOM     12  N2  UNL     1      12.169  -1.349   0.032 +0.00 -0.00    -0.304 N  
DOCKED: ATOM     13  C7  UNL     1      11.648  -2.599   0.271 +0.00 +0.00    +0.211 C  
DOCKED: ATOM     14  C8  UNL     1      12.671  -3.702   0.237 +0.00 +0.00    +0.109 C  
DOCKED: ATOM     15  O2  UNL     1      10.462  -2.817   0.495 +0.00 -0.00    -0.276 OA 
DOCKED: ATOM     16  H11 UNL     1      13.032  -1.325  -0.499 +0.00 +0.00    +0.149 HD 
DOCKED: ENDBRANCH  11  12
DOCKED: BRANCH  11  17
DOCKED: ATOM     17  C9  UNL     1      10.310  -0.440  -1.370 +0.00 +0.00    +0.012 C  
DOCKED: ATOM     18  C10 UNL     1      10.993  -1.000  -2.623 +0.00 +0.00    +0.009 C  
DOCKED: ATOM     19  C11 UNL     1       9.554   0.847  -1.715 +0.00 +0.00    +0.009 C  
DOCKED: ENDBRANCH  11  17
DOCKED: ENDBRANCH   8  11
DOCKED: ENDBRANCH   6   7
DOCKED: BRANCH   6  20
DOCKED: ATOM     20  C3  UNL     1       7.021  -0.576   2.202 +0.00 +0.00    +0.042 C  
DOCKED: BRANCH  20  21
DOCKED: ATOM     21  C2  UNL     1       6.618  -0.048   0.824 +0.00 +0.00    +0.071 C  
DOCKED: BRANCH  21  23
DOCKED: ATOM     22  C1  UNL     1       6.673  -1.280  -1.674 +0.00 +0.00    +0.084 C  
DOCKED: ATOM     23  S1  UNL     1       5.671  -1.263  -0.165 +0.00 -0.00    -0.164 S  
DOCKED: ENDBRANCH  21  23
DOCKED: ENDBRANCH  20  21
DOCKED: ENDBRANCH   6  20
DOCKED: ENDBRANCH   2   6
DOCKED: ENDBRANCH   1   4
DOCKED: BRANCH   1  24
DOCKED: ATOM     24  C14 UNL     1      10.359  -3.056   5.430 +0.00 +0.00    +0.028 C  
DOCKED: BRANCH  24  25
DOCKED: ATOM     25  C15 UNL     1      10.652  -1.748   6.190 +0.00 -0.00    -0.015 C  
DOCKED: ATOM     26  C16 UNL     1       9.419  -0.842   6.142 +0.00 +0.00    +0.007 C  
DOCKED: ATOM     27  C17 UNL     1      11.862  -1.005   5.624 +0.00 +0.00    +0.007 C  
DOCKED: ENDBRANCH  24  25
DOCKED: ENDBRANCH   1  24
DOCKED: BRANCH   1  28
DOCKED: ATOM     28  C18 UNL     1      10.805  -4.550   3.341 +0.00 +0.00    +0.143 C  
DOCKED: BRANCH  28  29
DOCKED: ATOM     29  O4  UNL     1       9.789  -4.539   2.327 +0.00 -0.00    -0.389 OA 
DOCKED: ATOM     30  H34 UNL     1       9.697  -3.627   2.003 +0.00 +0.00    +0.210 HD 
DOCKED: ENDBRANCH  28  29
DOCKED: BRANCH  28  31
DOCKED: ATOM     31  C19 UNL     1      10.596  -5.773   4.248 +0.00 +0.00    +0.129 C  
DOCKED: BRANCH  31  32
DOCKED: ATOM     32  C20 UNL     1       9.168  -6.268   4.387 +0.00 +0.00    +0.216 C  
DOCKED: ATOM     33  O5  UNL     1       8.840  -7.448   4.338 +0.00 -0.00    -0.276 OA 
DOCKED: ATOM     34  N4  UNL     1       8.243  -5.250   4.505 +0.00 -0.00    -0.304 N  
DOCKED: ATOM     35  H37 UNL     1       8.493  -4.382   4.040 +0.00 +0.00    +0.149 HD 
DOCKED: BRANCH  34  36
DOCKED: ATOM     36  C21 UNL     1       6.814  -5.583   4.460 +0.00 +0.00    +0.161 C  
DOCKED: BRANCH  36  37
DOCKED: ATOM     37  C22 UNL     1       6.466  -5.863   2.982 +0.00 +0.00    +0.234 C  
DOCKED: ATOM     38  O6  UNL     1       5.788  -6.834   2.644 +0.00 -0.00    -0.274 OA 
DOCKED: ATOM     39  N5  UNL     1       6.983  -4.963   2.079 +0.00 -0.00    -0.301 N  
DOCKED: ATOM     40  H39 UNL     1       7.693  -4.315   2.396 +0.00 +0.00    +0.150 HD 
DOCKED: BRANCH  39  41
DOCKED: ATOM     41  C23 UNL     1       6.848  -5.182   0.641 +0.00 +0.00    +0.179 C  
DOCKED: ATOM     42  C24 UNL     1       5.391  -5.060   0.222 +0.00 +0.00    +0.040 C  
DOCKED: BRANCH  41  43
DOCKED: ATOM     43  C25 UNL     1       7.705  -4.170  -0.122 +0.00 +0.00    +0.325 C  
DOCKED: ATOM     44  O7  UNL     1       8.092  -4.257  -1.279 +0.00 -0.00    -0.249 OA 
DOCKED: BRANCH  43  45
DOCKED: ATOM     45  O8  UNL     1       8.038  -3.097   0.625 +0.00 -0.00    -0.479 OA 
DOCKED: ATOM     46  H44 UNL     1       8.596  -3.468   1.341 +0.00 +0.00    +0.295 HD 
DOCKED: ENDBRANCH  43  45
DOCKED: ENDBRANCH  41  43
DOCKED: ENDBRANCH  39  41
DOCKED: ENDBRANCH  36  37
DOCKED: BRANCH  36  47
DOCKED: ATOM     47  C26 UNL     1       5.965  -4.458   5.095 +0.00 +0.00    +0.012 C  
DOCKED: ATOM     48  C27 UNL     1       6.773  -3.495   5.971 +0.00 +0.00    +0.009 C  
DOCKED: ATOM     49  C28 UNL     1       5.181  -3.671   4.041 +0.00 +0.00    +0.009 C  
DOCKED: ENDBRANCH  36  47
DOCKED: ENDBRANCH  34  36
DOCKED: ENDBRANCH  31  32
DOCKED: ENDBRANCH  28  31
DOCKED: ENDBRANCH   1  28
DOCKED: TORSDOF 21
DOCKED: TER
DOCKED: ENDMDL
________________________________________________________________________________


    FINAL DOCKED STATE:
    ________________________


Run:   20 / 20
Time taken for this run:   1.141s

DOCKED: MODEL        20
DOCKED: USER    Run = 20
DOCKED: USER
DOCKED: USER    Estimated Free Energy of Binding    =  +6.26 kcal/mol  [=(1)+(2)+(3)-(4)]
DOCKED: USER
DOCKED: USER    (1) Final Intermolecular Energy     =  +0.00 kcal/mol
DOCKED: USER        vdW + Hbond + desolv Energy     =  +0.00 kcal/mol
DOCKED: USER        Electrostatic Energy            =  +0.00 kcal/mol
DOCKED: USER        Moving Ligand-Fixed Receptor    =  +0.00 kcal/mol
DOCKED: USER        Moving Ligand-Moving Receptor   =  +0.00 kcal/mol
DOCKED: USER    (2) Final Total Internal Energy     = -14.32 kcal/mol
DOCKED: USER    (3) Torsional Free Energy           =  +6.26 kcal/mol
DOCKED: USER    (4) Unbound System's Energy         = -14.32 kcal/mol
DOCKED: USER
DOCKED: USER
DOCKED: REMARK  Name = ligands/ligand_26.pdb
DOCKED: REMARK  30 active torsions:
DOCKED: REMARK  status: ('A' for Active; 'I' for Inactive)
DOCKED: REMARK    1  A    between atoms: C1_1  and  S1_2
DOCKED: REMARK    2  A    between atoms: S1_2  and  C2_3
DOCKED: REMARK    3  A    between atoms: C2_3  and  C3_4
DOCKED: REMARK    4  A    between atoms: C3_4  and  C4_5
DOCKED: REMARK    5  A    between atoms: C4_5  and  N1_6
DOCKED: REMARK    6  A    between atoms: C4_5  and  C12_17
DOCKED: REMARK    7  A    between atoms: C5_7  and  C6_9
DOCKED: REMARK    8  A    between atoms: C6_9  and  N2_10
DOCKED: REMARK    9  A    between atoms: C6_9  and  C9_14
DOCKED: REMARK   10  A    between atoms: C7_11  and  C8_12
DOCKED: REMARK   11  A    between atoms: C9_14  and  C10_15
DOCKED: REMARK   12  A    between atoms: C9_14  and  C11_16
DOCKED: REMARK   13  A    between atoms: N3_19  and  C13_20
DOCKED: REMARK   14  A    between atoms: C13_20  and  C14_21
DOCKED: REMARK   15  A    between atoms: C13_20  and  C18_25
DOCKED: REMARK   16  A    between atoms: C14_21  and  C15_22
DOCKED: REMARK   17  A    between atoms: C15_22  and  C16_23
DOCKED: REMARK   18  A    between atoms: C15_22  and  C17_24
DOCKED: REMARK   19  A    between atoms: C18_25  and  O4_26
DOCKED: REMARK   20  A    between atoms: C18_25  and  C19_27
DOCKED: REMARK   21  A    between atoms: C19_27  and  C20_28
DOCKED: REMARK   22  A    between atoms: N4_30  and  C21_31
DOCKED: REMARK   23  A    between atoms: C21_31  and  C22_32
DOCKED: REMARK   24  A    between atoms: C21_31  and  C26_40
DOCKED: REMARK   25  A    between atoms: N5_34  and  C23_35
DOCKED: REMARK   26  A    between atoms: C23_35  and  C24_36
DOCKED: REMARK   27  A    between atoms: C23_35  and  C25_37
DOCKED: REMARK   28  A    between atoms: C25_37  and  O8_39
DOCKED: REMARK   29  A    between atoms: C26_40  and  C27_41
DOCKED: REMARK   30  A    between atoms: C26_40  and  C28_42
DOCKED: REMARK                            x       y       z     vdW  Elec       q    Type
DOCKED: REMARK                         _______ _______ _______ _____ _____    ______ ____
DOCKED: USER                              x       y       z     vdW  Elec       q    Type
DOCKED: USER                           _______ _______ _______ _____ _____    ______ ____
DOCKED: ROOT
DOCKED: ATOM      1  C13 UNL     1      16.665  -6.172   3.071 +0.00 +0.00    +0.102 C  
DOCKED: ENDROOT
DOCKED: BRANCH   1   4
DOCKED: ATOM      2  C12 UNL     1      16.381  -4.285   4.679 +0.00 +0.00    +0.234 C  
DOCKED: ATOM      3  O3  UNL     1      17.162  -4.729   5.522 +0.00 -0.00    -0.274 OA 
DOCKED: ATOM      4  N3  UNL     1      15.979  -4.975   3.557 +0.00 -0.00    -0.308 N  
DOCKED: ATOM      5  H22 UNL     1      15.488  -4.436   2.840 +0.00 +0.00    +0.149 HD 
DOCKED: BRANCH   2   6
DOCKED: ATOM      6  C4  UNL     1      15.765  -2.875   4.803 +0.00 +0.00    +0.160 C  
DOCKED: BRANCH   6   7
DOCKED: ATOM      7  N1  UNL     1      16.444  -2.033   3.817 +0.00 -0.00    -0.302 N  
DOCKED: ATOM      8  C5  UNL     1      16.089  -2.048   2.486 +0.00 +0.00    +0.234 C  
DOCKED: ATOM      9  O1  UNL     1      15.394  -2.932   1.983 +0.00 -0.00    -0.274 OA 
DOCKED: ATOM     10  H9  UNL     1      16.781  -1.150   4.195 +0.00 +0.00    +0.150 HD 
DOCKED: BRANCH   8  11
DOCKED: ATOM     11  C6  UNL     1      16.605  -0.840   1.670 +0.00 +0.00    +0.161 C  
DOCKED: BRANCH  11  12
DOCKED: ATOM     12  N2  UNL     1      16.800  -1.276   0.288 +0.00 -0.00    -0.304 N  
DOCKED: ATOM     13  C7  UNL     1      18.037  -1.188  -0.307 +0.00 +0.00    +0.211 C  
DOCKED: ATOM     14  C8  UNL     1      18.127  -1.898  -1.631 +0.00 +0.00    +0.109 C  
DOCKED: ATOM     15  O2  UNL     1      18.991  -0.591   0.180 +0.00 -0.00    -0.276 OA 
DOCKED: ATOM     16  H11 UNL     1      16.233  -2.072   0.015 +0.00 +0.00    +0.149 HD 
DOCKED: ENDBRANCH  11  12
DOCKED: BRANCH  11  17
DOCKED: ATOM     17  C9  UNL     1      15.640   0.364   1.775 +0.00 +0.00    +0.012 C  
DOCKED: ATOM     18  C10 UNL     1      14.288   0.005   2.403 +0.00 +0.00    +0.009 C  
DOCKED: ATOM     19  C11 UNL     1      15.426   1.013   0.405 +0.00 +0.00    +0.009 C  
DOCKED: ENDBRANCH  11  17
DOCKED: ENDBRANCH   8  11
DOCKED: ENDBRANCH   6   7
DOCKED: BRANCH   6  20
DOCKED: ATOM     20  C3  UNL     1      14.261  -2.924   4.525 +0.00 +0.00    +0.042 C  
DOCKED: BRANCH  20  21
DOCKED: ATOM     21  C2  UNL     1      13.546  -4.097   5.196 +0.00 +0.00    +0.071 C  
DOCKED: BRANCH  21  23
DOCKED: ATOM     22  C1  UNL     1      11.803  -3.108   3.262 +0.00 +0.00    +0.084 C  
DOCKED: ATOM     23  S1  UNL     1      11.901  -4.449   4.474 +0.00 -0.00    -0.164 S  
DOCKED: ENDBRANCH  21  23
DOCKED: ENDBRANCH  20  21
DOCKED: ENDBRANCH   6  20
DOCKED: ENDBRANCH   2   6
DOCKED: ENDBRANCH   1   4
DOCKED: BRANCH   1  24
DOCKED: ATOM     24  C14 UNL     1      16.140  -7.400   3.839 +0.00 +0.00    +0.028 C  
DOCKED: BRANCH  24  25
DOCKED: ATOM     25  C15 UNL     1      14.651  -7.355   4.234 +0.00 -0.00    -0.015 C  
DOCKED: ATOM     26  C16 UNL     1      14.529  -7.253   5.756 +0.00 +0.00    +0.007 C  
DOCKED: ATOM     27  C17 UNL     1      13.879  -8.576   3.733 +0.00 +0.00    +0.007 C  
DOCKED: ENDBRANCH  24  25
DOCKED: ENDBRANCH   1  24
DOCKED: BRANCH   1  28
DOCKED: ATOM     28  C18 UNL     1      16.575  -6.298   1.517 +0.00 +0.00    +0.143 C  
DOCKED: BRANCH  28  29
DOCKED: ATOM     29  O4  UNL     1      16.738  -5.013   0.897 +0.00 -0.00    -0.389 OA 
DOCKED: ATOM     30  H34 UNL     1      15.893  -4.537   0.966 +0.00 +0.00    +0.210 HD 
DOCKED: ENDBRANCH  28  29
DOCKED: BRANCH  28  31
DOCKED: ATOM     31  C19 UNL     1      15.351  -6.998   0.906 +0.00 +0.00    +0.129 C  
DOCKED: BRANCH  31  32
DOCKED: ATOM     32  C20 UNL     1      14.066  -6.192   0.868 +0.00 +0.00    +0.216 C  
DOCKED: ATOM     33  O5  UNL     1      13.875  -5.168   1.514 +0.00 -0.00    -0.276 OA 
DOCKED: ATOM     34  N4  UNL     1      13.083  -6.762   0.082 +0.00 -0.00    -0.304 N  
DOCKED: ATOM     35  H37 UNL     1      13.113  -7.775   0.020 +0.00 +0.00    +0.149 HD 
DOCKED: BRANCH  34  36
DOCKED: ATOM     36  C21 UNL     1      11.735  -6.185   0.107 +0.00 +0.00    +0.161 C  
DOCKED: BRANCH  36  37
DOCKED: ATOM     37  C22 UNL     1      11.799  -4.860  -0.685 +0.00 +0.00    +0.234 C  
DOCKED: ATOM     38  O6  UNL     1      11.328  -4.754  -1.818 +0.00 -0.00    -0.274 OA 
DOCKED: ATOM     39  N5  UNL     1      12.433  -3.824  -0.040 +0.00 -0.00    -0.301 N  
DOCKED: ATOM     40  H39 UNL     1      12.972  -4.031   0.791 +0.00 +0.00    +0.150 HD 
DOCKED: BRANCH  39  41
DOCKED: ATOM     41  C23 UNL     1      12.687  -2.559  -0.724 +0.00 +0.00    +0.179 C  
DOCKED: ATOM     42  C24 UNL     1      12.138  -1.398   0.090 +0.00 +0.00    +0.040 C  
DOCKED: BRANCH  41  43
DOCKED: ATOM     43  C25 UNL     1      14.190  -2.382  -0.950 +0.00 +0.00    +0.325 C  
DOCKED: ATOM     44  O7  UNL     1      14.752  -1.409  -1.434 +0.00 -0.00    -0.249 OA 
DOCKED: BRANCH  43  45
DOCKED: ATOM     45  O8  UNL     1      14.908  -3.455  -0.559 +0.00 -0.00    -0.479 OA 
DOCKED: ATOM     46  H44 UNL     1      14.741  -3.517   0.405 +0.00 +0.00    +0.295 HD 
DOCKED: ENDBRANCH  43  45
DOCKED: ENDBRANCH  41  43
DOCKED: ENDBRANCH  39  41
DOCKED: ENDBRANCH  36  37
DOCKED: BRANCH  36  47
DOCKED: ATOM     47  C26 UNL     1      11.233  -6.015   1.559 +0.00 +0.00    +0.012 C  
DOCKED: ATOM     48  C27 UNL     1       9.887  -5.292   1.667 +0.00 +0.00    +0.009 C  
DOCKED: ATOM     49  C28 UNL     1      11.167  -7.353   2.300 +0.00 +0.00    +0.009 C  
DOCKED: ENDBRANCH  36  47
DOCKED: ENDBRANCH  34  36
DOCKED: ENDBRANCH  31  32
DOCKED: ENDBRANCH  28  31
DOCKED: ENDBRANCH   1  28
DOCKED: TORSDOF 21
DOCKED: TER
DOCKED: ENDMDL
________________________________________________________________________________


    CLUSTERING HISTOGRAM
    ____________________


________________________________________________________________________________
     |           |     |           |     |
Clus | Lowest    | Run | Mean      | Num | Histogram
-ter | Binding   |     | Binding   | in  |
Rank | Energy    |     | Energy    | Clus|    5    10   15   20   25   30   35
_____|___________|_____|___________|_____|____:____|____:____|____:____|____:___
   1 |     +6.26 |   1 |     +6.26 |   1 |#
   2 |     +6.26 |   2 |     +6.26 |   1 |#
   3 |     +6.26 |   3 |     +6.26 |   1 |#
   4 |     +6.26 |   4 |     +6.26 |   1 |#
   5 |     +6.26 |   5 |     +6.26 |   1 |#
   6 |     +6.26 |   6 |     +6.26 |   1 |#
   7 |     +6.26 |   7 |     +6.26 |   2 |##
   8 |     +6.26 |   8 |     +6.26 |   1 |#
   9 |     +6.26 |   9 |     +6.26 |   1 |#
  10 |     +6.26 |  10 |     +6.26 |   1 |#
  11 |     +6.26 |  11 |     +6.26 |   1 |#
  12 |     +6.26 |  12 |     +6.26 |   1 |#
  13 |     +6.26 |  13 |     +6.26 |   1 |#
  14 |     +6.26 |  15 |     +6.26 |   1 |#
  15 |     +6.26 |  16 |     +6.26 |   1 |#
  16 |     +6.26 |  17 |     +6.26 |   1 |#
  17 |     +6.26 |  18 |     +6.26 |   1 |#
  18 |     +6.26 |  19 |     +6.26 |   1 |#
  19 |     +6.26 |  20 |     +6.26 |   1 |#
_____|___________|_____|___________|_____|______________________________________


    RMSD TABLE
    __________


_______________________________________________________________________
     |      |      |           |         |                 |
Rank | Sub- | Run  | Binding   | Cluster | Reference       | Grep
     | Rank |      | Energy    | RMSD    | RMSD            | Pattern
_____|______|______|___________|_________|_________________|___________
   1      1      1       +6.26      0.00     10.33           RANKING
   2      1      2       +6.26      0.00      6.44           RANKING
   3      1      3       +6.26      0.00      8.34           RANKING
   4      1      4       +6.26      0.00      8.61           RANKING
   5      1      5       +6.26      0.00     13.39           RANKING
   6      1      6       +6.26      0.00      7.44           RANKING
   7      1      7       +6.26      0.00      7.55           RANKING
   7      2     14       +6.26      1.88      8.32           RANKING
   8      1      8       +6.26      0.00      6.68           RANKING
   9      1      9       +6.26      0.00     14.72           RANKING
  10      1     10       +6.26      0.00      6.74           RANKING
  11      1     11       +6.26      0.00      6.23           RANKING
  12      1     12       +6.26      0.00      8.64           RANKING
  13      1     13       +6.26      0.00      7.16           RANKING
  14      1     15       +6.26      0.00      7.62           RANKING
  15      1     16       +6.26      0.00      6.36           RANKING
  16      1     17       +6.26      0.00     11.12           RANKING
  17      1     18       +6.26      0.00      6.12           RANKING
  18      1     19       +6.26      0.00      8.66           RANKING
  19      1     20       +6.26      0.00     13.40           RANKING

Run time 23.099 sec
Idle time 0.295 sec
