AutoDock-GPU version: v1.6

**********************************************************
**    AutoDock-GPU AUTODOCKTOOLS-COMPATIBLE DLG FILE    **
**********************************************************


    DOCKING PARAMETERS
    ________________________


Ligand file:                               ligands/ligand_21.pdbqt
Grid fld file:                             protein.maps.fld

Random seed:                               1770972734, 28273
Number of runs:                            20
Number of energy evaluations:              11021374
Number of generations:                     42000
Size of population:                        150
Rate of crossover:                         80.000000%
Tournament selection probability limit:    60.000000%
Rate of mutation:                          2.000000%
Maximal allowed delta movement:            +/- 6.000000A
Maximal allowed delta angle:               +/- 90.000000

Rate of local search:                      100.000000%
Maximal number of local search iterations: 300
Rho lower bound:                           0.010000
Spread of local search delta movement:     2.000000A
Spread of local search delta angle:        74.999999
Limit of consecutive successes/failures:   4

Handle symmetry during clustering:         YES
RMSD tolerance:                            2.000000A

Program call in command line was:          ./autodock-gpu --ffile protein.maps.fld --lfile ligands/ligand_21.pdbqt --nrun 20 


    GRID PARAMETERS
    ________________________


Receptor name:                             #MACROMOLECULE
Number of grid points (x, y, z):           61, 61, 61
Grid center (x, y, z):                     10.261000, -3.492000, -0.127000A
Grid size (x, y, z):                       22.500000, 22.500000, 22.500000A
Grid spacing:                              0.375000A


    LIGAND PARAMETERS
    ________________________


Ligand name:                               ligands/ligand_21
Number of atoms:                           56
Number of rotatable bonds:                 25
Number of atom types:                      7


    DUMMY DATA (only for ADT-compatibility)
    ________________________


DPF> outlev 1
DPF> ga_run 20
DPF> fld protein.maps.fld
DPF> move ligands/ligand_21.pdbqt


    COUNTER STATES
    ________________________


Number of energy evaluations performed:    9401319
Number of generations used:                410


    INPUT LIGAND PDBQT FILE:
    ________________________


INPUT-LIGAND-PDBQT: REMARK  Name = ligands/ligand_21.pdb
INPUT-LIGAND-PDBQT: REMARK  29 active torsions:
INPUT-LIGAND-PDBQT: REMARK  status: ('A' for Active; 'I' for Inactive)
INPUT-LIGAND-PDBQT: REMARK    1  A    between atoms: C1_1  and  C2_2
INPUT-LIGAND-PDBQT: REMARK    2  A    between atoms: C2_2  and  C3_3
INPUT-LIGAND-PDBQT: REMARK    3  A    between atoms: C3_3  and  C4_4
INPUT-LIGAND-PDBQT: REMARK    4  A    between atoms: C3_3  and  C5_5
INPUT-LIGAND-PDBQT: REMARK    5  A    between atoms: C5_5  and  O1_6
INPUT-LIGAND-PDBQT: REMARK    6  A    between atoms: C5_5  and  C6_7
INPUT-LIGAND-PDBQT: REMARK    7  A    between atoms: N1_9  and  C7_10
INPUT-LIGAND-PDBQT: REMARK    8  A    between atoms: C7_10  and  C8_11
INPUT-LIGAND-PDBQT: REMARK    9  A    between atoms: C7_10  and  C11_15
INPUT-LIGAND-PDBQT: REMARK   10  A    between atoms: C8_11  and  C9_12
INPUT-LIGAND-PDBQT: REMARK   11  A    between atoms: C9_12  and  C10_13
INPUT-LIGAND-PDBQT: REMARK   12  A    between atoms: N2_17  and  C12_18
INPUT-LIGAND-PDBQT: REMARK   13  A    between atoms: C12_18  and  C13_19
INPUT-LIGAND-PDBQT: REMARK   14  A    between atoms: C12_18  and  C20_26
INPUT-LIGAND-PDBQT: REMARK   15  A    between atoms: C13_19  and  C14_20
INPUT-LIGAND-PDBQT: REMARK   16  A    between atoms: C20_26  and  O4_27
INPUT-LIGAND-PDBQT: REMARK   17  A    between atoms: C20_26  and  C21_28
INPUT-LIGAND-PDBQT: REMARK   18  A    between atoms: C21_28  and  C22_29
INPUT-LIGAND-PDBQT: REMARK   19  A    between atoms: C22_29  and  C23_30
INPUT-LIGAND-PDBQT: REMARK   20  A    between atoms: C22_29  and  C26_34
INPUT-LIGAND-PDBQT: REMARK   21  A    between atoms: C23_30  and  C24_31
INPUT-LIGAND-PDBQT: REMARK   22  A    between atoms: C24_31  and  C25_32
INPUT-LIGAND-PDBQT: REMARK   23  A    between atoms: N3_36  and  C27_37
INPUT-LIGAND-PDBQT: REMARK   24  A    between atoms: C27_37  and  C28_38
INPUT-LIGAND-PDBQT: REMARK   25  A    between atoms: C27_37  and  C35_48
INPUT-LIGAND-PDBQT: REMARK   26  A    between atoms: N4_40  and  C29_41
INPUT-LIGAND-PDBQT: REMARK   27  A    between atoms: C29_41  and  C30_42
INPUT-LIGAND-PDBQT: REMARK   28  A    between atoms: C35_48  and  C36_49
INPUT-LIGAND-PDBQT: REMARK   29  A    between atoms: C35_48  and  C37_50
INPUT-LIGAND-PDBQT: REMARK                            x       y       z     vdW  Elec       q    Type
INPUT-LIGAND-PDBQT: REMARK                         _______ _______ _______ _____ _____    ______ ____
INPUT-LIGAND-PDBQT: ROOT
INPUT-LIGAND-PDBQT: ATOM      1  C12 UNL     1       1.715  -1.282  -2.970  0.00  0.00    +0.106 C 
INPUT-LIGAND-PDBQT: ENDROOT
INPUT-LIGAND-PDBQT: BRANCH   1   4
INPUT-LIGAND-PDBQT: ATOM      2  C11 UNL     1      -0.770  -1.262  -2.992  0.00  0.00    +0.234 C 
INPUT-LIGAND-PDBQT: ATOM      3  O3  UNL     1      -0.814  -2.332  -3.599  0.00  0.00    -0.274 OA
INPUT-LIGAND-PDBQT: ATOM      4  N2  UNL     1       0.424  -0.651  -2.678  0.00  0.00    -0.308 N 
INPUT-LIGAND-PDBQT: ATOM      5  H20 UNL     1       0.403   0.172  -2.089  0.00  0.00    +0.149 HD
INPUT-LIGAND-PDBQT: BRANCH   2   6
INPUT-LIGAND-PDBQT: ATOM      6  C7  UNL     1      -2.013  -0.505  -2.483  0.00  0.00    +0.159 C 
INPUT-LIGAND-PDBQT: BRANCH   6   9
INPUT-LIGAND-PDBQT: ATOM      7  C6  UNL     1      -2.276   1.961  -2.254  0.00  0.00    +0.243 C 
INPUT-LIGAND-PDBQT: ATOM      8  O2  UNL     1      -2.675   1.880  -1.094  0.00  0.00    -0.273 OA
INPUT-LIGAND-PDBQT: ATOM      9  N1  UNL     1      -1.903   0.867  -2.990  0.00  0.00    -0.302 N 
INPUT-LIGAND-PDBQT: ATOM     10  H12 UNL     1      -1.650   0.988  -3.965  0.00  0.00    +0.150 HD
INPUT-LIGAND-PDBQT: BRANCH   7  11
INPUT-LIGAND-PDBQT: ATOM     11  C5  UNL     1      -2.170   3.320  -2.970  0.00  0.00    +0.203 C 
INPUT-LIGAND-PDBQT: BRANCH  11  12
INPUT-LIGAND-PDBQT: ATOM     12  C3  UNL     1      -0.700   3.770  -3.115  0.00  0.00    +0.023 C 
INPUT-LIGAND-PDBQT: ATOM     13  C4  UNL     1      -0.602   5.061  -3.939  0.00  0.00    +0.010 C 
INPUT-LIGAND-PDBQT: BRANCH  12  15
INPUT-LIGAND-PDBQT: ATOM     14  C1  UNL     1      -0.463   4.874  -0.755  0.00  0.00    +0.004 C 
INPUT-LIGAND-PDBQT: ATOM     15  C2  UNL     1       0.088   3.905  -1.792  0.00  0.00    +0.003 C 
INPUT-LIGAND-PDBQT: ENDBRANCH  12  15
INPUT-LIGAND-PDBQT: ENDBRANCH  11  12
INPUT-LIGAND-PDBQT: BRANCH  11  16
INPUT-LIGAND-PDBQT: ATOM     16  O1  UNL     1      -2.956   4.306  -2.321  0.00  0.00    -0.382 OA
INPUT-LIGAND-PDBQT: ATOM     17  H11 UNL     1      -3.230   3.914  -1.462  0.00  0.00    +0.210 HD
INPUT-LIGAND-PDBQT: ENDBRANCH  11  16
INPUT-LIGAND-PDBQT: ENDBRANCH   7  11
INPUT-LIGAND-PDBQT: ENDBRANCH   6   9
INPUT-LIGAND-PDBQT: BRANCH   6  18
INPUT-LIGAND-PDBQT: ATOM     18  C8  UNL     1      -3.305  -1.190  -2.942  0.00  0.00    +0.034 C 
INPUT-LIGAND-PDBQT: BRANCH  18  19
INPUT-LIGAND-PDBQT: ATOM     19  C9  UNL     1      -4.597  -0.612  -2.362  0.00  0.00    +0.036 C 
INPUT-LIGAND-PDBQT: BRANCH  19  20
INPUT-LIGAND-PDBQT: ATOM     20  C10 UNL     1      -4.743  -0.800  -0.859  0.00  0.00    +0.213 C 
INPUT-LIGAND-PDBQT: ATOM     21  F1  UNL     1      -5.976  -0.345  -0.497  0.00  0.00    -0.249 F 
INPUT-LIGAND-PDBQT: ENDBRANCH  19  20
INPUT-LIGAND-PDBQT: ENDBRANCH  18  19
INPUT-LIGAND-PDBQT: ENDBRANCH   6  18
INPUT-LIGAND-PDBQT: ENDBRANCH   2   6
INPUT-LIGAND-PDBQT: ENDBRANCH   1   4
INPUT-LIGAND-PDBQT: BRANCH   1  22
INPUT-LIGAND-PDBQT: ATOM     22  C13 UNL     1       2.863  -0.246  -2.969  0.00  0.00    +0.060 C 
INPUT-LIGAND-PDBQT: BRANCH  22  23
INPUT-LIGAND-PDBQT: ATOM     23  C14 UNL     1       2.716   0.892  -3.965  0.00  0.00    -0.046 A 
INPUT-LIGAND-PDBQT: ATOM     24  C15 UNL     1       2.332   0.682  -5.296  0.00  0.00    +0.004 A 
INPUT-LIGAND-PDBQT: ATOM     25  C16 UNL     1       2.244   1.751  -6.194  0.00  0.00    +0.000 A 
INPUT-LIGAND-PDBQT: ATOM     26  C17 UNL     1       2.566   3.040  -5.780  0.00  0.00    +0.000 A 
INPUT-LIGAND-PDBQT: ATOM     27  C18 UNL     1       2.972   3.260  -4.463  0.00  0.00    +0.000 A 
INPUT-LIGAND-PDBQT: ATOM     28  C19 UNL     1       3.048   2.194  -3.564  0.00  0.00    +0.004 A 
INPUT-LIGAND-PDBQT: ENDBRANCH  22  23
INPUT-LIGAND-PDBQT: ENDBRANCH   1  22
INPUT-LIGAND-PDBQT: BRANCH   1  29
INPUT-LIGAND-PDBQT: ATOM     29  C20 UNL     1       1.987  -2.469  -1.997  0.00  0.00    +0.136 C 
INPUT-LIGAND-PDBQT: BRANCH  29  30
INPUT-LIGAND-PDBQT: ATOM     30  O4  UNL     1       3.158  -3.172  -2.410  0.00  0.00    -0.390 OA
INPUT-LIGAND-PDBQT: ATOM     31  H30 UNL     1       2.925  -3.664  -3.221  0.00  0.00    +0.210 HD
INPUT-LIGAND-PDBQT: ENDBRANCH  29  30
INPUT-LIGAND-PDBQT: BRANCH  29  32
INPUT-LIGAND-PDBQT: ATOM     32  C21 UNL     1       2.146  -2.031  -0.530  0.00  0.00    +0.046 C 
INPUT-LIGAND-PDBQT: BRANCH  32  33
INPUT-LIGAND-PDBQT: ATOM     33  C22 UNL     1       1.989  -3.209   0.464  0.00  0.00    +0.078 C 
INPUT-LIGAND-PDBQT: BRANCH  33  34
INPUT-LIGAND-PDBQT: ATOM     34  C26 UNL     1       1.576  -2.770   1.878  0.00  0.00    +0.217 C 
INPUT-LIGAND-PDBQT: ATOM     35  O5  UNL     1       2.025  -3.275   2.902  0.00  0.00    -0.275 OA
INPUT-LIGAND-PDBQT: ATOM     36  N3  UNL     1       0.567  -1.828   1.915  0.00  0.00    -0.304 N 
INPUT-LIGAND-PDBQT: ATOM     37  H40 UNL     1      -0.063  -1.816   1.120  0.00  0.00    +0.149 HD
INPUT-LIGAND-PDBQT: BRANCH  36  38
INPUT-LIGAND-PDBQT: ATOM     38  C27 UNL     1      -0.060  -1.476   3.188  0.00  0.00    +0.161 C 
INPUT-LIGAND-PDBQT: BRANCH  38  39
INPUT-LIGAND-PDBQT: ATOM     39  C28 UNL     1      -1.333  -2.350   3.247  0.00  0.00    +0.234 C 
INPUT-LIGAND-PDBQT: ATOM     40  O6  UNL     1      -2.007  -2.588   2.243  0.00  0.00    -0.274 OA
INPUT-LIGAND-PDBQT: ATOM     41  N4  UNL     1      -1.661  -2.802   4.506  0.00  0.00    -0.310 N 
INPUT-LIGAND-PDBQT: ATOM     42  H42 UNL     1      -0.903  -2.888   5.167  0.00  0.00    +0.149 HD
INPUT-LIGAND-PDBQT: BRANCH  41  43
INPUT-LIGAND-PDBQT: ATOM     43  C29 UNL     1      -2.784  -3.692   4.707  0.00  0.00    +0.139 C 
INPUT-LIGAND-PDBQT: BRANCH  43  44
INPUT-LIGAND-PDBQT: ATOM     44  C30 UNL     1      -3.351  -3.529   6.091  0.00  0.00    -0.027 A 
INPUT-LIGAND-PDBQT: ATOM     45  C31 UNL     1      -2.651  -3.961   7.221  0.00  0.00    +0.025 A 
INPUT-LIGAND-PDBQT: ATOM     46  C32 UNL     1      -3.212  -3.747   8.471  0.00  0.00    +0.111 A 
INPUT-LIGAND-PDBQT: ATOM     47  N5  UNL     1      -4.403  -3.146   8.669  0.00  0.00    -0.263 NA
INPUT-LIGAND-PDBQT: ATOM     48  C33 UNL     1      -5.074  -2.752   7.564  0.00  0.00    +0.111 A 
INPUT-LIGAND-PDBQT: ATOM     49  C34 UNL     1      -4.595  -2.916   6.274  0.00  0.00    +0.025 A 
INPUT-LIGAND-PDBQT: ENDBRANCH  43  44
INPUT-LIGAND-PDBQT: ENDBRANCH  41  43
INPUT-LIGAND-PDBQT: ENDBRANCH  38  39
INPUT-LIGAND-PDBQT: BRANCH  38  50
INPUT-LIGAND-PDBQT: ATOM     50  C35 UNL     1      -0.419   0.027   3.243  0.00  0.00    +0.012 C 
INPUT-LIGAND-PDBQT: ATOM     51  C36 UNL     1      -0.953   0.426   4.620  0.00  0.00    +0.009 C 
INPUT-LIGAND-PDBQT: ATOM     52  C37 UNL     1       0.794   0.907   2.903  0.00  0.00    +0.009 C 
INPUT-LIGAND-PDBQT: ENDBRANCH  38  50
INPUT-LIGAND-PDBQT: ENDBRANCH  36  38
INPUT-LIGAND-PDBQT: ENDBRANCH  33  34
INPUT-LIGAND-PDBQT: BRANCH  33  53
INPUT-LIGAND-PDBQT: ATOM     53  C23 UNL     1       3.182  -4.193   0.496  0.00  0.00    +0.015 C 
INPUT-LIGAND-PDBQT: BRANCH  53  54
INPUT-LIGAND-PDBQT: ATOM     54  C24 UNL     1       4.600  -3.609   0.564  0.00  0.00    +0.034 C 
INPUT-LIGAND-PDBQT: BRANCH  54  55
INPUT-LIGAND-PDBQT: ATOM     55  C25 UNL     1       4.883  -2.768   1.797  0.00  0.00    +0.213 C 
INPUT-LIGAND-PDBQT: ATOM     56  F2  UNL     1       4.216  -1.585   1.714  0.00  0.00    -0.249 F 
INPUT-LIGAND-PDBQT: ENDBRANCH  54  55
INPUT-LIGAND-PDBQT: ENDBRANCH  53  54
INPUT-LIGAND-PDBQT: ENDBRANCH  33  53
INPUT-LIGAND-PDBQT: ENDBRANCH  32  33
INPUT-LIGAND-PDBQT: ENDBRANCH  29  32
INPUT-LIGAND-PDBQT: ENDBRANCH   1  29
INPUT-LIGAND-PDBQT: TORSDOF 25


    FINAL DOCKED STATE:
    ________________________


Run:   1 / 20
Time taken for this run:   2.777s

DOCKED: MODEL        1
DOCKED: USER    Run = 1
DOCKED: USER
DOCKED: USER    Estimated Free Energy of Binding    =  +7.46 kcal/mol  [=(1)+(2)+(3)-(4)]
DOCKED: USER
DOCKED: USER    (1) Final Intermolecular Energy     =  +0.00 kcal/mol
DOCKED: USER        vdW + Hbond + desolv Energy     =  +0.00 kcal/mol
DOCKED: USER        Electrostatic Energy            =  +0.00 kcal/mol
DOCKED: USER        Moving Ligand-Fixed Receptor    =  +0.00 kcal/mol
DOCKED: USER        Moving Ligand-Moving Receptor   =  +0.00 kcal/mol
DOCKED: USER    (2) Final Total Internal Energy     = -14.61 kcal/mol
DOCKED: USER    (3) Torsional Free Energy           =  +7.46 kcal/mol
DOCKED: USER    (4) Unbound System's Energy         = -14.61 kcal/mol
DOCKED: USER
DOCKED: USER
DOCKED: REMARK  Name = ligands/ligand_21.pdb
DOCKED: REMARK  29 active torsions:
DOCKED: REMARK  status: ('A' for Active; 'I' for Inactive)
DOCKED: REMARK    1  A    between atoms: C1_1  and  C2_2
DOCKED: REMARK    2  A    between atoms: C2_2  and  C3_3
DOCKED: REMARK    3  A    between atoms: C3_3  and  C4_4
DOCKED: REMARK    4  A    between atoms: C3_3  and  C5_5
DOCKED: REMARK    5  A    between atoms: C5_5  and  O1_6
DOCKED: REMARK    6  A    between atoms: C5_5  and  C6_7
DOCKED: REMARK    7  A    between atoms: N1_9  and  C7_10
DOCKED: REMARK    8  A    between atoms: C7_10  and  C8_11
DOCKED: REMARK    9  A    between atoms: C7_10  and  C11_15
DOCKED: REMARK   10  A    between atoms: C8_11  and  C9_12
DOCKED: REMARK   11  A    between atoms: C9_12  and  C10_13
DOCKED: REMARK   12  A    between atoms: N2_17  and  C12_18
DOCKED: REMARK   13  A    between atoms: C12_18  and  C13_19
DOCKED: REMARK   14  A    between atoms: C12_18  and  C20_26
DOCKED: REMARK   15  A    between atoms: C13_19  and  C14_20
DOCKED: REMARK   16  A    between atoms: C20_26  and  O4_27
DOCKED: REMARK   17  A    between atoms: C20_26  and  C21_28
DOCKED: REMARK   18  A    between atoms: C21_28  and  C22_29
DOCKED: REMARK   19  A    between atoms: C22_29  and  C23_30
DOCKED: REMARK   20  A    between atoms: C22_29  and  C26_34
DOCKED: REMARK   21  A    between atoms: C23_30  and  C24_31
DOCKED: REMARK   22  A    between atoms: C24_31  and  C25_32
DOCKED: REMARK   23  A    between atoms: N3_36  and  C27_37
DOCKED: REMARK   24  A    between atoms: C27_37  and  C28_38
DOCKED: REMARK   25  A    between atoms: C27_37  and  C35_48
DOCKED: REMARK   26  A    between atoms: N4_40  and  C29_41
DOCKED: REMARK   27  A    between atoms: C29_41  and  C30_42
DOCKED: REMARK   28  A    between atoms: C35_48  and  C36_49
DOCKED: REMARK   29  A    between atoms: C35_48  and  C37_50
DOCKED: REMARK                            x       y       z     vdW  Elec       q    Type
DOCKED: REMARK                         _______ _______ _______ _____ _____    ______ ____
DOCKED: USER                              x       y       z     vdW  Elec       q    Type
DOCKED: USER                           _______ _______ _______ _____ _____    ______ ____
DOCKED: ROOT
DOCKED: ATOM      1  C12 UNL     1       8.716  -2.840  -5.818 +0.00 +0.00    +0.106 C  
DOCKED: ENDROOT
DOCKED: BRANCH   1   4
DOCKED: ATOM      2  C11 UNL     1       6.626  -3.919  -6.618 +0.00 +0.00    +0.234 C  
DOCKED: ATOM      3  O3  UNL     1       6.771  -3.456  -7.749 +0.00 -0.00    -0.274 OA 
DOCKED: ATOM      4  N2  UNL     1       7.506  -3.637  -5.596 +0.00 -0.00    -0.308 N  
DOCKED: ATOM      5  H20 UNL     1       7.396  -4.127  -4.717 +0.00 +0.00    +0.149 HD 
DOCKED: BRANCH   2   6
DOCKED: ATOM      6  C7  UNL     1       5.490  -4.882  -6.217 +0.00 +0.00    +0.159 C  
DOCKED: BRANCH   6   9
DOCKED: ATOM      7  C6  UNL     1       5.632  -4.441  -3.770 +0.00 +0.00    +0.243 C  
DOCKED: ATOM      8  O2  UNL     1       5.225  -3.287  -3.885 +0.00 -0.00    -0.273 OA 
DOCKED: ATOM      9  N1  UNL     1       5.760  -5.294  -4.835 +0.00 -0.00    -0.302 N  
DOCKED: ATOM     10  H12 UNL     1       6.168  -6.211  -4.690 +0.00 +0.00    +0.150 HD 
DOCKED: BRANCH   7  11
DOCKED: ATOM     11  C5  UNL     1       6.033  -5.015  -2.399 +0.00 +0.00    +0.203 C  
DOCKED: BRANCH  11  12
DOCKED: ATOM     12  C3  UNL     1       5.898  -3.958  -1.281 +0.00 +0.00    +0.023 C  
DOCKED: ATOM     13  C4  UNL     1       4.486  -3.976  -0.680 +0.00 +0.00    +0.010 C  
DOCKED: BRANCH  12  15
DOCKED: ATOM     14  C1  UNL     1       7.325  -2.720   0.529 +0.00 +0.00    +0.004 C  
DOCKED: ATOM     15  C2  UNL     1       6.968  -4.026  -0.168 +0.00 +0.00    +0.003 C  
DOCKED: ENDBRANCH  12  15
DOCKED: ENDBRANCH  11  12
DOCKED: BRANCH  11  16
DOCKED: ATOM     16  O1  UNL     1       7.337  -5.571  -2.436 +0.00 -0.00    -0.382 OA 
DOCKED: ATOM     17  H11 UNL     1       7.713  -5.327  -3.311 +0.00 +0.00    +0.210 HD 
DOCKED: ENDBRANCH  11  16
DOCKED: ENDBRANCH   7  11
DOCKED: ENDBRANCH   6   9
DOCKED: BRANCH   6  18
DOCKED: ATOM     18  C8  UNL     1       4.119  -4.214  -6.365 +0.00 +0.00    +0.034 C  
DOCKED: BRANCH  18  19
DOCKED: ATOM     19  C9  UNL     1       4.148  -2.709  -6.641 +0.00 +0.00    +0.036 C  
DOCKED: BRANCH  19  20
DOCKED: ATOM     20  C10 UNL     1       3.125  -1.911  -5.845 +0.00 +0.00    +0.213 C  
DOCKED: ATOM     21  F1  UNL     1       2.671  -2.703  -4.832 +0.00 -0.00    -0.249 F  
DOCKED: ENDBRANCH  19  20
DOCKED: ENDBRANCH  18  19
DOCKED: ENDBRANCH   6  18
DOCKED: ENDBRANCH   2   6
DOCKED: ENDBRANCH   1   4
DOCKED: BRANCH   1  22
DOCKED: ATOM     22  C13 UNL     1       8.419  -1.325  -5.730 +0.00 +0.00    +0.060 C  
DOCKED: BRANCH  22  23
DOCKED: ATOM     23  C14 UNL     1       7.491  -0.906  -4.602 +0.00 -0.00    -0.046 A  
DOCKED: ATOM     24  C15 UNL     1       7.815  -1.095  -3.252 +0.00 +0.00    +0.004 A  
DOCKED: ATOM     25  C16 UNL     1       6.918  -0.732  -2.241 +0.00 +0.00    +0.000 A  
DOCKED: ATOM     26  C17 UNL     1       5.674  -0.200  -2.569 +0.00 +0.00    +0.000 A  
DOCKED: ATOM     27  C18 UNL     1       5.329  -0.028  -3.910 +0.00 +0.00    +0.000 A  
DOCKED: ATOM     28  C19 UNL     1       6.230  -0.380  -4.918 +0.00 +0.00    +0.004 A  
DOCKED: ENDBRANCH  22  23
DOCKED: ENDBRANCH   1  22
DOCKED: BRANCH   1  29
DOCKED: ATOM     29  C20 UNL     1       9.856  -3.277  -4.848 +0.00 +0.00    +0.136 C  
DOCKED: BRANCH  29  30
DOCKED: ATOM     30  O4  UNL     1       9.293  -3.884  -3.686 +0.00 -0.00    -0.390 OA 
DOCKED: ATOM     31  H30 UNL     1       8.628  -4.529  -3.994 +0.00 +0.00    +0.210 HD 
DOCKED: ENDBRANCH  29  30
DOCKED: BRANCH  29  32
DOCKED: ATOM     32  C21 UNL     1      10.865  -4.245  -5.491 +0.00 +0.00    +0.046 C  
DOCKED: BRANCH  32  33
DOCKED: ATOM     33  C22 UNL     1      10.181  -5.467  -6.154 +0.00 +0.00    +0.078 C  
DOCKED: BRANCH  33  34
DOCKED: ATOM     34  C26 UNL     1       9.429  -6.365  -5.159 +0.00 +0.00    +0.217 C  
DOCKED: ATOM     35  O5  UNL     1       8.329  -6.086  -4.692 +0.00 -0.00    -0.275 OA 
DOCKED: ATOM     36  N3  UNL     1      10.137  -7.473  -4.737 +0.00 -0.00    -0.304 N  
DOCKED: ATOM     37  H40 UNL     1      11.148  -7.394  -4.765 +0.00 +0.00    +0.149 HD 
DOCKED: BRANCH  36  38
DOCKED: ATOM     38  C27 UNL     1       9.625  -8.296  -3.642 +0.00 +0.00    +0.161 C  
DOCKED: BRANCH  38  39
DOCKED: ATOM     39  C28 UNL     1      10.242  -7.674  -2.369 +0.00 +0.00    +0.234 C  
DOCKED: ATOM     40  O6  UNL     1      11.065  -8.281  -1.681 +0.00 -0.00    -0.274 OA 
DOCKED: ATOM     41  N4  UNL     1       9.771  -6.418  -2.058 +0.00 -0.00    -0.310 N  
DOCKED: ATOM     42  H42 UNL     1       9.418  -5.865  -2.825 +0.00 +0.00    +0.149 HD 
DOCKED: BRANCH  41  43
DOCKED: ATOM     43  C29 UNL     1      10.310  -5.679  -0.937 +0.00 +0.00    +0.139 C  
DOCKED: BRANCH  43  44
DOCKED: ATOM     44  C30 UNL     1      10.933  -4.390  -1.400 +0.00 -0.00    -0.027 A  
DOCKED: ATOM     45  C31 UNL     1      12.074  -4.380  -2.207 +0.00 +0.00    +0.025 A  
DOCKED: ATOM     46  C32 UNL     1      12.577  -3.159  -2.630 +0.00 +0.00    +0.111 A  
DOCKED: ATOM     47  N5  UNL     1      12.032  -1.968  -2.308 +0.00 -0.00    -0.263 NA 
DOCKED: ATOM     48  C33 UNL     1      10.941  -1.996  -1.512 +0.00 +0.00    +0.111 A  
DOCKED: ATOM     49  C34 UNL     1      10.361  -3.164  -1.042 +0.00 +0.00    +0.025 A  
DOCKED: ENDBRANCH  43  44
DOCKED: ENDBRANCH  41  43
DOCKED: ENDBRANCH  38  39
DOCKED: BRANCH  38  50
DOCKED: ATOM     50  C35 UNL     1      10.055  -9.773  -3.799 +0.00 +0.00    +0.012 C  
DOCKED: ATOM     51  C36 UNL     1       9.061 -10.558  -4.657 +0.00 +0.00    +0.009 C  
DOCKED: ATOM     52  C37 UNL     1      11.454  -9.888  -4.425 +0.00 +0.00    +0.009 C  
DOCKED: ENDBRANCH  38  50
DOCKED: ENDBRANCH  36  38
DOCKED: ENDBRANCH  33  34
DOCKED: BRANCH  33  53
DOCKED: ATOM     53  C23 UNL     1      11.093  -6.291  -7.092 +0.00 +0.00    +0.015 C  
DOCKED: BRANCH  53  54
DOCKED: ATOM     54  C24 UNL     1      12.612  -6.118  -6.960 +0.00 +0.00    +0.034 C  
DOCKED: BRANCH  54  55
DOCKED: ATOM     55  C25 UNL     1      13.245  -6.905  -5.825 +0.00 +0.00    +0.213 C  
DOCKED: ATOM     56  F2  UNL     1      12.873  -6.374  -4.629 +0.00 -0.00    -0.249 F  
DOCKED: ENDBRANCH  54  55
DOCKED: ENDBRANCH  53  54
DOCKED: ENDBRANCH  33  53
DOCKED: ENDBRANCH  32  33
DOCKED: ENDBRANCH  29  32
DOCKED: ENDBRANCH   1  29
DOCKED: TORSDOF 25
DOCKED: TER
DOCKED: ENDMDL
________________________________________________________________________________


    FINAL DOCKED STATE:
    ________________________


Run:   2 / 20
Time taken for this run:   2.777s

DOCKED: MODEL        2
DOCKED: USER    Run = 2
DOCKED: USER
DOCKED: USER    Estimated Free Energy of Binding    =  +7.46 kcal/mol  [=(1)+(2)+(3)-(4)]
DOCKED: USER
DOCKED: USER    (1) Final Intermolecular Energy     =  +0.00 kcal/mol
DOCKED: USER        vdW + Hbond + desolv Energy     =  +0.00 kcal/mol
DOCKED: USER        Electrostatic Energy            =  +0.00 kcal/mol
DOCKED: USER        Moving Ligand-Fixed Receptor    =  +0.00 kcal/mol
DOCKED: USER        Moving Ligand-Moving Receptor   =  +0.00 kcal/mol
DOCKED: USER    (2) Final Total Internal Energy     = -14.59 kcal/mol
DOCKED: USER    (3) Torsional Free Energy           =  +7.46 kcal/mol
DOCKED: USER    (4) Unbound System's Energy         = -14.59 kcal/mol
DOCKED: USER
DOCKED: USER
DOCKED: REMARK  Name = ligands/ligand_21.pdb
DOCKED: REMARK  29 active torsions:
DOCKED: REMARK  status: ('A' for Active; 'I' for Inactive)
DOCKED: REMARK    1  A    between atoms: C1_1  and  C2_2
DOCKED: REMARK    2  A    between atoms: C2_2  and  C3_3
DOCKED: REMARK    3  A    between atoms: C3_3  and  C4_4
DOCKED: REMARK    4  A    between atoms: C3_3  and  C5_5
DOCKED: REMARK    5  A    between atoms: C5_5  and  O1_6
DOCKED: REMARK    6  A    between atoms: C5_5  and  C6_7
DOCKED: REMARK    7  A    between atoms: N1_9  and  C7_10
DOCKED: REMARK    8  A    between atoms: C7_10  and  C8_11
DOCKED: REMARK    9  A    between atoms: C7_10  and  C11_15
DOCKED: REMARK   10  A    between atoms: C8_11  and  C9_12
DOCKED: REMARK   11  A    between atoms: C9_12  and  C10_13
DOCKED: REMARK   12  A    between atoms: N2_17  and  C12_18
DOCKED: REMARK   13  A    between atoms: C12_18  and  C13_19
DOCKED: REMARK   14  A    between atoms: C12_18  and  C20_26
DOCKED: REMARK   15  A    between atoms: C13_19  and  C14_20
DOCKED: REMARK   16  A    between atoms: C20_26  and  O4_27
DOCKED: REMARK   17  A    between atoms: C20_26  and  C21_28
DOCKED: REMARK   18  A    between atoms: C21_28  and  C22_29
DOCKED: REMARK   19  A    between atoms: C22_29  and  C23_30
DOCKED: REMARK   20  A    between atoms: C22_29  and  C26_34
DOCKED: REMARK   21  A    between atoms: C23_30  and  C24_31
DOCKED: REMARK   22  A    between atoms: C24_31  and  C25_32
DOCKED: REMARK   23  A    between atoms: N3_36  and  C27_37
DOCKED: REMARK   24  A    between atoms: C27_37  and  C28_38
DOCKED: REMARK   25  A    between atoms: C27_37  and  C35_48
DOCKED: REMARK   26  A    between atoms: N4_40  and  C29_41
DOCKED: REMARK   27  A    between atoms: C29_41  and  C30_42
DOCKED: REMARK   28  A    between atoms: C35_48  and  C36_49
DOCKED: REMARK   29  A    between atoms: C35_48  and  C37_50
DOCKED: REMARK                            x       y       z     vdW  Elec       q    Type
DOCKED: REMARK                         _______ _______ _______ _____ _____    ______ ____
DOCKED: USER                              x       y       z     vdW  Elec       q    Type
DOCKED: USER                           _______ _______ _______ _____ _____    ______ ____
DOCKED: ROOT
DOCKED: ATOM      1  C12 UNL     1      14.112  -1.430   0.734 +0.00 +0.00    +0.106 C  
DOCKED: ENDROOT
DOCKED: BRANCH   1   4
DOCKED: ATOM      2  C11 UNL     1      11.653  -1.115   0.912 +0.00 +0.00    +0.234 C  
DOCKED: ATOM      3  O3  UNL     1      11.541  -0.986  -0.307 +0.00 -0.00    -0.274 OA 
DOCKED: ATOM      4  N2  UNL     1      12.879  -1.294   1.515 +0.00 -0.00    -0.308 N  
DOCKED: ATOM      5  H20 UNL     1      12.902  -1.498   2.507 +0.00 +0.00    +0.149 HD 
DOCKED: BRANCH   2   6
DOCKED: ATOM      6  C7  UNL     1      10.464  -1.132   1.893 +0.00 +0.00    +0.159 C  
DOCKED: BRANCH   6   9
DOCKED: ATOM      7  C6  UNL     1      11.792  -0.553   3.920 +0.00 +0.00    +0.243 C  
DOCKED: ATOM      8  O2  UNL     1      12.030   0.586   3.523 +0.00 -0.00    -0.273 OA 
DOCKED: ATOM      9  N1  UNL     1      11.019  -1.439   3.216 +0.00 -0.00    -0.302 N  
DOCKED: ATOM     10  H12 UNL     1      10.916  -2.389   3.558 +0.00 +0.00    +0.150 HD 
DOCKED: BRANCH   7  11
DOCKED: ATOM     11  C5  UNL     1      12.358  -1.069   5.255 +0.00 +0.00    +0.203 C  
DOCKED: BRANCH  11  12
DOCKED: ATOM     12  C3  UNL     1      13.270  -0.019   5.926 +0.00 +0.00    +0.023 C  
DOCKED: ATOM     13  C4  UNL     1      12.457   0.903   6.846 +0.00 +0.00    +0.010 C  
DOCKED: BRANCH  12  15
DOCKED: ATOM     14  C1  UNL     1      15.708   0.333   6.807 +0.00 +0.00    +0.004 C  
DOCKED: ATOM     15  C2  UNL     1      14.501  -0.585   6.670 +0.00 +0.00    +0.003 C  
DOCKED: ENDBRANCH  12  15
DOCKED: ENDBRANCH  11  12
DOCKED: BRANCH  11  16
DOCKED: ATOM     16  O1  UNL     1      13.027  -2.308   5.085 +0.00 -0.00    -0.382 OA 
DOCKED: ATOM     17  H11 UNL     1      13.097  -2.449   4.115 +0.00 +0.00    +0.210 HD 
DOCKED: ENDBRANCH  11  16
DOCKED: ENDBRANCH   7  11
DOCKED: ENDBRANCH   6   9
DOCKED: BRANCH   6  18
DOCKED: ATOM     18  C8  UNL     1       9.714   0.205   1.876 +0.00 +0.00    +0.034 C  
DOCKED: BRANCH  18  19
DOCKED: ATOM     19  C9  UNL     1      10.404   1.337   1.114 +0.00 +0.00    +0.036 C  
DOCKED: BRANCH  19  20
DOCKED: ATOM     20  C10 UNL     1      10.345   2.686   1.815 +0.00 +0.00    +0.213 C  
DOCKED: ATOM     21  F1  UNL     1      10.037   2.465   3.124 +0.00 -0.00    -0.249 F  
DOCKED: ENDBRANCH  19  20
DOCKED: ENDBRANCH  18  19
DOCKED: ENDBRANCH   6  18
DOCKED: ENDBRANCH   2   6
DOCKED: ENDBRANCH   1   4
DOCKED: BRANCH   1  22
DOCKED: ATOM     22  C13 UNL     1      14.703  -0.049   0.368 +0.00 +0.00    +0.060 C  
DOCKED: BRANCH  22  23
DOCKED: ATOM     23  C14 UNL     1      14.673   0.989   1.477 +0.00 -0.00    -0.046 A  
DOCKED: ATOM     24  C15 UNL     1      15.361   0.819   2.686 +0.00 +0.00    +0.004 A  
DOCKED: ATOM     25  C16 UNL     1      15.279   1.780   3.699 +0.00 +0.00    +0.000 A  
DOCKED: ATOM     26  C17 UNL     1      14.486   2.910   3.527 +0.00 +0.00    +0.000 A  
DOCKED: ATOM     27  C18 UNL     1      13.778   3.082   2.337 +0.00 +0.00    +0.000 A  
DOCKED: ATOM     28  C19 UNL     1      13.870   2.128   1.321 +0.00 +0.00    +0.004 A  
DOCKED: ENDBRANCH  22  23
DOCKED: ENDBRANCH   1  22
DOCKED: BRANCH   1  29
DOCKED: ATOM     29  C20 UNL     1      15.141  -2.338   1.472 +0.00 +0.00    +0.136 C  
DOCKED: BRANCH  29  30
DOCKED: ATOM     30  O4  UNL     1      14.878  -2.324   2.875 +0.00 -0.00    -0.390 OA 
DOCKED: ATOM     31  H30 UNL     1      13.917  -2.461   2.986 +0.00 +0.00    +0.210 HD 
DOCKED: ENDBRANCH  29  30
DOCKED: BRANCH  29  32
DOCKED: ATOM     32  C21 UNL     1      15.143  -3.792   0.969 +0.00 +0.00    +0.046 C  
DOCKED: BRANCH  32  33
DOCKED: ATOM     33  C22 UNL     1      13.728  -4.423   0.964 +0.00 +0.00    +0.078 C  
DOCKED: BRANCH  33  34
DOCKED: ATOM     34  C26 UNL     1      13.104  -4.544   2.363 +0.00 +0.00    +0.217 C  
DOCKED: ATOM     35  O5  UNL     1      12.609  -3.599   2.968 +0.00 -0.00    -0.275 OA 
DOCKED: ATOM     36  N3  UNL     1      13.240  -5.788   2.947 +0.00 -0.00    -0.304 N  
DOCKED: ATOM     37  H40 UNL     1      14.031  -6.343   2.638 +0.00 +0.00    +0.149 HD 
DOCKED: BRANCH  36  38
DOCKED: ATOM     38  C27 UNL     1      12.876  -5.983   4.350 +0.00 +0.00    +0.161 C  
DOCKED: BRANCH  38  39
DOCKED: ATOM     39  C28 UNL     1      14.181  -5.705   5.130 +0.00 +0.00    +0.234 C  
DOCKED: ATOM     40  O6  UNL     1      14.770  -6.592   5.751 +0.00 -0.00    -0.274 OA 
DOCKED: ATOM     41  N4  UNL     1      14.600  -4.394   5.098 +0.00 -0.00    -0.310 N  
DOCKED: ATOM     42  H42 UNL     1      14.306  -3.844   4.304 +0.00 +0.00    +0.149 HD 
DOCKED: BRANCH  41  43
DOCKED: ATOM     43  C29 UNL     1      15.845  -3.996   5.720 +0.00 +0.00    +0.139 C  
DOCKED: BRANCH  43  44
DOCKED: ATOM     44  C30 UNL     1      16.786  -3.412   4.702 +0.00 -0.00    -0.027 A  
DOCKED: ATOM     45  C31 UNL     1      17.326  -4.193   3.676 +0.00 +0.00    +0.025 A  
DOCKED: ATOM     46  C32 UNL     1      18.157  -3.586   2.747 +0.00 +0.00    +0.111 A  
DOCKED: ATOM     47  N5  UNL     1      18.485  -2.278   2.771 +0.00 -0.00    -0.263 NA 
DOCKED: ATOM     48  C33 UNL     1      17.969  -1.543   3.781 +0.00 +0.00    +0.111 A  
DOCKED: ATOM     49  C34 UNL     1      17.125  -2.056   4.753 +0.00 +0.00    +0.025 A  
DOCKED: ENDBRANCH  43  44
DOCKED: ENDBRANCH  41  43
DOCKED: ENDBRANCH  38  39
DOCKED: BRANCH  38  50
DOCKED: ATOM     50  C35 UNL     1      12.375  -7.423   4.607 +0.00 +0.00    +0.012 C  
DOCKED: ATOM     51  C36 UNL     1      10.862  -7.534   4.409 +0.00 +0.00    +0.009 C  
DOCKED: ATOM     52  C37 UNL     1      13.075  -8.435   3.687 +0.00 +0.00    +0.009 C  
DOCKED: ENDBRANCH  38  50
DOCKED: ENDBRANCH  36  38
DOCKED: ENDBRANCH  33  34
DOCKED: BRANCH  33  53
DOCKED: ATOM     53  C23 UNL     1      13.611  -5.745   0.169 +0.00 +0.00    +0.015 C  
DOCKED: BRANCH  53  54
DOCKED: ATOM     54  C24 UNL     1      14.900  -6.511  -0.156 +0.00 +0.00    +0.034 C  
DOCKED: BRANCH  54  55
DOCKED: ATOM     55  C25 UNL     1      15.438  -7.362   0.982 +0.00 +0.00    +0.213 C  
DOCKED: ATOM     56  F2  UNL     1      15.902  -6.563   1.979 +0.00 -0.00    -0.249 F  
DOCKED: ENDBRANCH  54  55
DOCKED: ENDBRANCH  53  54
DOCKED: ENDBRANCH  33  53
DOCKED: ENDBRANCH  32  33
DOCKED: ENDBRANCH  29  32
DOCKED: ENDBRANCH   1  29
DOCKED: TORSDOF 25
DOCKED: TER
DOCKED: ENDMDL
________________________________________________________________________________


    FINAL DOCKED STATE:
    ________________________


Run:   3 / 20
Time taken for this run:   2.777s

DOCKED: MODEL        3
DOCKED: USER    Run = 3
DOCKED: USER
DOCKED: USER    Estimated Free Energy of Binding    =  +7.46 kcal/mol  [=(1)+(2)+(3)-(4)]
DOCKED: USER
DOCKED: USER    (1) Final Intermolecular Energy     =  +0.00 kcal/mol
DOCKED: USER        vdW + Hbond + desolv Energy     =  +0.00 kcal/mol
DOCKED: USER        Electrostatic Energy            =  +0.00 kcal/mol
DOCKED: USER        Moving Ligand-Fixed Receptor    =  +0.00 kcal/mol
DOCKED: USER        Moving Ligand-Moving Receptor   =  +0.00 kcal/mol
DOCKED: USER    (2) Final Total Internal Energy     = -14.59 kcal/mol
DOCKED: USER    (3) Torsional Free Energy           =  +7.46 kcal/mol
DOCKED: USER    (4) Unbound System's Energy         = -14.59 kcal/mol
DOCKED: USER
DOCKED: USER
DOCKED: REMARK  Name = ligands/ligand_21.pdb
DOCKED: REMARK  29 active torsions:
DOCKED: REMARK  status: ('A' for Active; 'I' for Inactive)
DOCKED: REMARK    1  A    between atoms: C1_1  and  C2_2
DOCKED: REMARK    2  A    between atoms: C2_2  and  C3_3
DOCKED: REMARK    3  A    between atoms: C3_3  and  C4_4
DOCKED: REMARK    4  A    between atoms: C3_3  and  C5_5
DOCKED: REMARK    5  A    between atoms: C5_5  and  O1_6
DOCKED: REMARK    6  A    between atoms: C5_5  and  C6_7
DOCKED: REMARK    7  A    between atoms: N1_9  and  C7_10
DOCKED: REMARK    8  A    between atoms: C7_10  and  C8_11
DOCKED: REMARK    9  A    between atoms: C7_10  and  C11_15
DOCKED: REMARK   10  A    between atoms: C8_11  and  C9_12
DOCKED: REMARK   11  A    between atoms: C9_12  and  C10_13
DOCKED: REMARK   12  A    between atoms: N2_17  and  C12_18
DOCKED: REMARK   13  A    between atoms: C12_18  and  C13_19
DOCKED: REMARK   14  A    between atoms: C12_18  and  C20_26
DOCKED: REMARK   15  A    between atoms: C13_19  and  C14_20
DOCKED: REMARK   16  A    between atoms: C20_26  and  O4_27
DOCKED: REMARK   17  A    between atoms: C20_26  and  C21_28
DOCKED: REMARK   18  A    between atoms: C21_28  and  C22_29
DOCKED: REMARK   19  A    between atoms: C22_29  and  C23_30
DOCKED: REMARK   20  A    between atoms: C22_29  and  C26_34
DOCKED: REMARK   21  A    between atoms: C23_30  and  C24_31
DOCKED: REMARK   22  A    between atoms: C24_31  and  C25_32
DOCKED: REMARK   23  A    between atoms: N3_36  and  C27_37
DOCKED: REMARK   24  A    between atoms: C27_37  and  C28_38
DOCKED: REMARK   25  A    between atoms: C27_37  and  C35_48
DOCKED: REMARK   26  A    between atoms: N4_40  and  C29_41
DOCKED: REMARK   27  A    between atoms: C29_41  and  C30_42
DOCKED: REMARK   28  A    between atoms: C35_48  and  C36_49
DOCKED: REMARK   29  A    between atoms: C35_48  and  C37_50
DOCKED: REMARK                            x       y       z     vdW  Elec       q    Type
DOCKED: REMARK                         _______ _______ _______ _____ _____    ______ ____
DOCKED: USER                              x       y       z     vdW  Elec       q    Type
DOCKED: USER                           _______ _______ _______ _____ _____    ______ ____
DOCKED: ROOT
DOCKED: ATOM      1  C12 UNL     1       7.696   0.243   0.501 +0.00 +0.00    +0.106 C  
DOCKED: ENDROOT
DOCKED: BRANCH   1   4
DOCKED: ATOM      2  C11 UNL     1       6.186  -1.589  -0.231 +0.00 +0.00    +0.234 C  
DOCKED: ATOM      3  O3  UNL     1       6.171  -1.171  -1.388 +0.00 -0.00    -0.274 OA 
DOCKED: ATOM      4  N2  UNL     1       6.871  -0.938   0.771 +0.00 -0.00    -0.308 N  
DOCKED: ATOM      5  H20 UNL     1       6.934  -1.383   1.679 +0.00 +0.00    +0.149 HD 
DOCKED: BRANCH   2   6
DOCKED: ATOM      6  C7  UNL     1       5.489  -2.886   0.229 +0.00 +0.00    +0.159 C  
DOCKED: BRANCH   6   9
DOCKED: ATOM      7  C6  UNL     1       5.384  -2.280   2.642 +0.00 +0.00    +0.243 C  
DOCKED: ATOM      8  O2  UNL     1       4.573  -1.376   2.451 +0.00 -0.00    -0.273 OA 
DOCKED: ATOM      9  N1  UNL     1       5.855  -3.081   1.635 +0.00 -0.00    -0.302 N  
DOCKED: ATOM     10  H12 UNL     1       6.576  -3.765   1.842 +0.00 +0.00    +0.150 HD 
DOCKED: BRANCH   7  11
DOCKED: ATOM     11  C5  UNL     1       5.935  -2.576   4.049 +0.00 +0.00    +0.203 C  
DOCKED: BRANCH  11  12
DOCKED: ATOM     12  C3  UNL     1       5.358  -1.602   5.099 +0.00 +0.00    +0.023 C  
DOCKED: ATOM     13  C4  UNL     1       4.040  -2.137   5.676 +0.00 +0.00    +0.010 C  
DOCKED: BRANCH  12  15
DOCKED: ATOM     14  C1  UNL     1       6.146   0.193   6.832 +0.00 +0.00    +0.004 C  
DOCKED: ATOM     15  C2  UNL     1       6.326  -1.196   6.233 +0.00 +0.00    +0.003 C  
DOCKED: ENDBRANCH  12  15
DOCKED: ENDBRANCH  11  12
DOCKED: BRANCH  11  16
DOCKED: ATOM     16  O1  UNL     1       7.353  -2.573   4.058 +0.00 -0.00    -0.382 OA 
DOCKED: ATOM     17  H11 UNL     1       7.630  -2.282   3.161 +0.00 +0.00    +0.210 HD 
DOCKED: ENDBRANCH  11  16
DOCKED: ENDBRANCH   7  11
DOCKED: ENDBRANCH   6   9
DOCKED: BRANCH   6  18
DOCKED: ATOM     18  C8  UNL     1       3.971  -2.798   0.033 +0.00 +0.00    +0.034 C  
DOCKED: BRANCH  18  19
DOCKED: ATOM     19  C9  UNL     1       3.435  -1.413  -0.335 +0.00 +0.00    +0.036 C  
DOCKED: BRANCH  19  20
DOCKED: ATOM     20  C10 UNL     1       2.160  -1.024   0.400 +0.00 +0.00    +0.213 C  
DOCKED: ATOM     21  F1  UNL     1       2.019  -1.861   1.467 +0.00 -0.00    -0.249 F  
DOCKED: ENDBRANCH  19  20
DOCKED: ENDBRANCH  18  19
DOCKED: ENDBRANCH   6  18
DOCKED: ENDBRANCH   2   6
DOCKED: ENDBRANCH   1   4
DOCKED: BRANCH   1  22
DOCKED: ATOM     22  C13 UNL     1       6.846   1.535   0.492 +0.00 +0.00    +0.060 C  
DOCKED: BRANCH  22  23
DOCKED: ATOM     23  C14 UNL     1       5.789   1.628   1.579 +0.00 -0.00    -0.046 A  
DOCKED: ATOM     24  C15 UNL     1       6.109   1.631   2.943 +0.00 +0.00    +0.004 A  
DOCKED: ATOM     25  C16 UNL     1       5.105   1.680   3.916 +0.00 +0.00    +0.000 A  
DOCKED: ATOM     26  C17 UNL     1       3.766   1.698   3.538 +0.00 +0.00    +0.000 A  
DOCKED: ATOM     27  C18 UNL     1       3.432   1.672   2.183 +0.00 +0.00    +0.000 A  
DOCKED: ATOM     28  C19 UNL     1       4.435   1.636   1.212 +0.00 +0.00    +0.004 A  
DOCKED: ENDBRANCH  22  23
DOCKED: ENDBRANCH   1  22
DOCKED: BRANCH   1  29
DOCKED: ATOM     29  C20 UNL     1       8.892   0.327   1.497 +0.00 +0.00    +0.136 C  
DOCKED: BRANCH  29  30
DOCKED: ATOM     30  O4  UNL     1       8.569  -0.375   2.697 +0.00 -0.00    -0.390 OA 
DOCKED: ATOM     31  H30 UNL     1       8.189  -1.234   2.432 +0.00 +0.00    +0.210 HD 
DOCKED: ENDBRANCH  29  30
DOCKED: BRANCH  29  32
DOCKED: ATOM     32  C21 UNL     1      10.206  -0.228   0.920 +0.00 +0.00    +0.046 C  
DOCKED: BRANCH  32  33
DOCKED: ATOM     33  C22 UNL     1      10.050  -1.660   0.350 +0.00 +0.00    +0.078 C  
DOCKED: BRANCH  33  34
DOCKED: ATOM     34  C26 UNL     1       9.668  -2.705   1.410 +0.00 +0.00    +0.217 C  
DOCKED: ATOM     35  O5  UNL     1       8.531  -2.838   1.851 +0.00 -0.00    -0.275 OA 
DOCKED: ATOM     36  N3  UNL     1      10.732  -3.423   1.919 +0.00 -0.00    -0.304 N  
DOCKED: ATOM     37  H40 UNL     1      11.637  -2.964   1.887 +0.00 +0.00    +0.149 HD 
DOCKED: BRANCH  36  38
DOCKED: ATOM     38  C27 UNL     1      10.540  -4.300   3.073 +0.00 +0.00    +0.161 C  
DOCKED: BRANCH  38  39
DOCKED: ATOM     39  C28 UNL     1      10.832  -3.401   4.295 +0.00 +0.00    +0.234 C  
DOCKED: ATOM     40  O6  UNL     1      11.814  -3.582   5.017 +0.00 -0.00    -0.274 OA 
DOCKED: ATOM     41  N4  UNL     1       9.893  -2.419   4.522 +0.00 -0.00    -0.310 N  
DOCKED: ATOM     42  H42 UNL     1       9.364  -2.105   3.722 +0.00 +0.00    +0.149 HD 
DOCKED: BRANCH  41  43
DOCKED: ATOM     43  C29 UNL     1      10.070  -1.454   5.586 +0.00 +0.00    +0.139 C  
DOCKED: BRANCH  43  44
DOCKED: ATOM     44  C30 UNL     1      10.166  -0.060   5.028 +0.00 -0.00    -0.027 A  
DOCKED: ATOM     45  C31 UNL     1      11.241   0.332   4.226 +0.00 +0.00    +0.025 A  
DOCKED: ATOM     46  C32 UNL     1      11.251   1.620   3.712 +0.00 +0.00    +0.111 A  
DOCKED: ATOM     47  N5  UNL     1      10.283   2.530   3.942 +0.00 -0.00    -0.263 NA 
DOCKED: ATOM     48  C33 UNL     1       9.261   2.140   4.736 +0.00 +0.00    +0.111 A  
DOCKED: ATOM     49  C34 UNL     1       9.158   0.874   5.291 +0.00 +0.00    +0.025 A  
DOCKED: ENDBRANCH  43  44
DOCKED: ENDBRANCH  41  43
DOCKED: ENDBRANCH  38  39
DOCKED: BRANCH  38  50
DOCKED: ATOM     50  C35 UNL     1      11.506  -5.506   3.031 +0.00 +0.00    +0.012 C  
DOCKED: ATOM     51  C36 UNL     1      10.888  -6.695   2.293 +0.00 +0.00    +0.009 C  
DOCKED: ATOM     52  C37 UNL     1      12.837  -5.137   2.357 +0.00 +0.00    +0.009 C  
DOCKED: ENDBRANCH  38  50
DOCKED: ENDBRANCH  36  38
DOCKED: ENDBRANCH  33  34
DOCKED: BRANCH  33  53
DOCKED: ATOM     53  C23 UNL     1      11.229  -2.140  -0.528 +0.00 +0.00    +0.015 C  
DOCKED: BRANCH  53  54
DOCKED: ATOM     54  C24 UNL     1      12.567  -1.397  -0.412 +0.00 +0.00    +0.034 C  
DOCKED: BRANCH  54  55
DOCKED: ATOM     55  C25 UNL     1      13.424  -1.811   0.772 +0.00 +0.00    +0.213 C  
DOCKED: ATOM     56  F2  UNL     1      12.854  -1.380   1.930 +0.00 -0.00    -0.249 F  
DOCKED: ENDBRANCH  54  55
DOCKED: ENDBRANCH  53  54
DOCKED: ENDBRANCH  33  53
DOCKED: ENDBRANCH  32  33
DOCKED: ENDBRANCH  29  32
DOCKED: ENDBRANCH   1  29
DOCKED: TORSDOF 25
DOCKED: TER
DOCKED: ENDMDL
________________________________________________________________________________


    FINAL DOCKED STATE:
    ________________________


Run:   4 / 20
Time taken for this run:   2.777s

DOCKED: MODEL        4
DOCKED: USER    Run = 4
DOCKED: USER
DOCKED: USER    Estimated Free Energy of Binding    =  +7.46 kcal/mol  [=(1)+(2)+(3)-(4)]
DOCKED: USER
DOCKED: USER    (1) Final Intermolecular Energy     =  +0.00 kcal/mol
DOCKED: USER        vdW + Hbond + desolv Energy     =  +0.00 kcal/mol
DOCKED: USER        Electrostatic Energy            =  +0.00 kcal/mol
DOCKED: USER        Moving Ligand-Fixed Receptor    =  +0.00 kcal/mol
DOCKED: USER        Moving Ligand-Moving Receptor   =  +0.00 kcal/mol
DOCKED: USER    (2) Final Total Internal Energy     = -14.43 kcal/mol
DOCKED: USER    (3) Torsional Free Energy           =  +7.46 kcal/mol
DOCKED: USER    (4) Unbound System's Energy         = -14.43 kcal/mol
DOCKED: USER
DOCKED: USER
DOCKED: REMARK  Name = ligands/ligand_21.pdb
DOCKED: REMARK  29 active torsions:
DOCKED: REMARK  status: ('A' for Active; 'I' for Inactive)
DOCKED: REMARK    1  A    between atoms: C1_1  and  C2_2
DOCKED: REMARK    2  A    between atoms: C2_2  and  C3_3
DOCKED: REMARK    3  A    between atoms: C3_3  and  C4_4
DOCKED: REMARK    4  A    between atoms: C3_3  and  C5_5
DOCKED: REMARK    5  A    between atoms: C5_5  and  O1_6
DOCKED: REMARK    6  A    between atoms: C5_5  and  C6_7
DOCKED: REMARK    7  A    between atoms: N1_9  and  C7_10
DOCKED: REMARK    8  A    between atoms: C7_10  and  C8_11
DOCKED: REMARK    9  A    between atoms: C7_10  and  C11_15
DOCKED: REMARK   10  A    between atoms: C8_11  and  C9_12
DOCKED: REMARK   11  A    between atoms: C9_12  and  C10_13
DOCKED: REMARK   12  A    between atoms: N2_17  and  C12_18
DOCKED: REMARK   13  A    between atoms: C12_18  and  C13_19
DOCKED: REMARK   14  A    between atoms: C12_18  and  C20_26
DOCKED: REMARK   15  A    between atoms: C13_19  and  C14_20
DOCKED: REMARK   16  A    between atoms: C20_26  and  O4_27
DOCKED: REMARK   17  A    between atoms: C20_26  and  C21_28
DOCKED: REMARK   18  A    between atoms: C21_28  and  C22_29
DOCKED: REMARK   19  A    between atoms: C22_29  and  C23_30
DOCKED: REMARK   20  A    between atoms: C22_29  and  C26_34
DOCKED: REMARK   21  A    between atoms: C23_30  and  C24_31
DOCKED: REMARK   22  A    between atoms: C24_31  and  C25_32
DOCKED: REMARK   23  A    between atoms: N3_36  and  C27_37
DOCKED: REMARK   24  A    between atoms: C27_37  and  C28_38
DOCKED: REMARK   25  A    between atoms: C27_37  and  C35_48
DOCKED: REMARK   26  A    between atoms: N4_40  and  C29_41
DOCKED: REMARK   27  A    between atoms: C29_41  and  C30_42
DOCKED: REMARK   28  A    between atoms: C35_48  and  C36_49
DOCKED: REMARK   29  A    between atoms: C35_48  and  C37_50
DOCKED: REMARK                            x       y       z     vdW  Elec       q    Type
DOCKED: REMARK                         _______ _______ _______ _____ _____    ______ ____
DOCKED: USER                              x       y       z     vdW  Elec       q    Type
DOCKED: USER                           _______ _______ _______ _____ _____    ______ ____
DOCKED: ROOT
DOCKED: ATOM      1  C12 UNL     1      14.077  -2.204   2.518 +0.00 +0.00    +0.106 C  
DOCKED: ENDROOT
DOCKED: BRANCH   1   4
DOCKED: ATOM      2  C11 UNL     1      12.051  -2.851   3.805 +0.00 +0.00    +0.234 C  
DOCKED: ATOM      3  O3  UNL     1      12.717  -3.084   4.814 +0.00 -0.00    -0.274 OA 
DOCKED: ATOM      4  N2  UNL     1      12.636  -2.456   2.622 +0.00 -0.00    -0.308 N  
DOCKED: ATOM      5  H20 UNL     1      12.034  -2.178   1.857 +0.00 +0.00    +0.149 HD 
DOCKED: BRANCH   2   6
DOCKED: ATOM      6  C7  UNL     1      10.513  -2.931   3.747 +0.00 +0.00    +0.159 C  
DOCKED: BRANCH   6   9
DOCKED: ATOM      7  C6  UNL     1      10.443  -1.000   2.175 +0.00 +0.00    +0.243 C  
DOCKED: ATOM      8  O2  UNL     1      11.154  -0.301   2.894 +0.00 -0.00    -0.273 OA 
DOCKED: ATOM      9  N1  UNL     1      10.109  -2.291   2.490 +0.00 -0.00    -0.302 N  
DOCKED: ATOM     10  H12 UNL     1       9.460  -2.795   1.895 +0.00 +0.00    +0.150 HD 
DOCKED: BRANCH   7  11
DOCKED: ATOM     11  C5  UNL     1       9.867  -0.461   0.853 +0.00 +0.00    +0.203 C  
DOCKED: BRANCH  11  12
DOCKED: ATOM     12  C3  UNL     1       9.469  -1.609  -0.100 +0.00 +0.00    +0.023 C  
DOCKED: ATOM     13  C4  UNL     1       8.703  -1.070  -1.316 +0.00 +0.00    +0.010 C  
DOCKED: BRANCH  12  15
DOCKED: ATOM     14  C1  UNL     1      11.675  -1.927  -1.470 +0.00 +0.00    +0.004 C  
DOCKED: ATOM     15  C2  UNL     1      10.625  -2.532  -0.549 +0.00 +0.00    +0.003 C  
DOCKED: ENDBRANCH  12  15
DOCKED: ENDBRANCH  11  12
DOCKED: BRANCH  11  16
DOCKED: ATOM     16  O1  UNL     1      10.765   0.445   0.232 +0.00 -0.00    -0.382 OA 
DOCKED: ATOM     17  H11 UNL     1      11.551   0.496   0.821 +0.00 +0.00    +0.210 HD 
DOCKED: ENDBRANCH  11  16
DOCKED: ENDBRANCH   7  11
DOCKED: ENDBRANCH   6   9
DOCKED: BRANCH   6  18
DOCKED: ATOM     18  C8  UNL     1      10.030  -4.382   3.839 +0.00 +0.00    +0.034 C  
DOCKED: BRANCH  18  19
DOCKED: ATOM     19  C9  UNL     1       9.970  -5.141   2.512 +0.00 +0.00    +0.036 C  
DOCKED: BRANCH  19  20
DOCKED: ATOM     20  C10 UNL     1       8.581  -5.207   1.895 +0.00 +0.00    +0.213 C  
DOCKED: ATOM     21  F1  UNL     1       8.568  -4.392   0.802 +0.00 -0.00    -0.249 F  
DOCKED: ENDBRANCH  19  20
DOCKED: ENDBRANCH  18  19
DOCKED: ENDBRANCH   6  18
DOCKED: ENDBRANCH   2   6
DOCKED: ENDBRANCH   1   4
DOCKED: BRANCH   1  22
DOCKED: ATOM     22  C13 UNL     1      14.833  -3.455   2.014 +0.00 +0.00    +0.060 C  
DOCKED: BRANCH  22  23
DOCKED: ATOM     23  C14 UNL     1      13.959  -4.567   1.459 +0.00 -0.00    -0.046 A  
DOCKED: ATOM     24  C15 UNL     1      13.317  -4.470   0.217 +0.00 +0.00    +0.004 A  
DOCKED: ATOM     25  C16 UNL     1      12.489  -5.499  -0.244 +0.00 +0.00    +0.000 A  
DOCKED: ATOM     26  C17 UNL     1      12.271  -6.626   0.542 +0.00 +0.00    +0.000 A  
DOCKED: ATOM     27  C18 UNL     1      12.886  -6.725   1.791 +0.00 +0.00    +0.000 A  
DOCKED: ATOM     28  C19 UNL     1      13.722  -5.703   2.246 +0.00 +0.00    +0.004 A  
DOCKED: ENDBRANCH  22  23
DOCKED: ENDBRANCH   1  22
DOCKED: BRANCH   1  29
DOCKED: ATOM     29  C20 UNL     1      14.360  -0.946   1.643 +0.00 +0.00    +0.136 C  
DOCKED: BRANCH  29  30
DOCKED: ATOM     30  O4  UNL     1      13.197  -0.613   0.887 +0.00 -0.00    -0.390 OA 
DOCKED: ATOM     31  H30 UNL     1      12.509  -0.342   1.525 +0.00 +0.00    +0.210 HD 
DOCKED: ENDBRANCH  29  30
DOCKED: BRANCH  29  32
DOCKED: ATOM     32  C21 UNL     1      14.805   0.279   2.461 +0.00 +0.00    +0.046 C  
DOCKED: BRANCH  32  33
DOCKED: ATOM     33  C22 UNL     1      13.835   0.602   3.625 +0.00 +0.00    +0.078 C  
DOCKED: BRANCH  33  34
DOCKED: ATOM     34  C26 UNL     1      13.038   1.900   3.421 +0.00 +0.00    +0.217 C  
DOCKED: ATOM     35  O5  UNL     1      12.855   2.729   4.306 +0.00 -0.00    -0.275 OA 
DOCKED: ATOM     36  N3  UNL     1      12.441   2.018   2.181 +0.00 -0.00    -0.304 N  
DOCKED: ATOM     37  H40 UNL     1      12.226   1.149   1.704 +0.00 +0.00    +0.149 HD 
DOCKED: BRANCH  36  38
DOCKED: ATOM     38  C27 UNL     1      11.491   3.099   1.925 +0.00 +0.00    +0.161 C  
DOCKED: BRANCH  38  39
DOCKED: ATOM     39  C28 UNL     1      10.125   2.525   2.364 +0.00 +0.00    +0.234 C  
DOCKED: ATOM     40  O6  UNL     1       9.129   2.589   1.641 +0.00 -0.00    -0.274 OA 
DOCKED: ATOM     41  N4  UNL     1      10.112   1.976   3.627 +0.00 -0.00    -0.310 N  
DOCKED: ATOM     42  H42 UNL     1      10.993   1.631   3.979 +0.00 +0.00    +0.149 HD 
DOCKED: BRANCH  41  43
DOCKED: ATOM     43  C29 UNL     1       8.924   1.333   4.146 +0.00 +0.00    +0.139 C  
DOCKED: BRANCH  43  44
DOCKED: ATOM     44  C30 UNL     1       9.289   0.262   5.137 +0.00 -0.00    -0.027 A  
DOCKED: ATOM     45  C31 UNL     1       8.410  -0.782   5.439 +0.00 +0.00    +0.025 A  
DOCKED: ATOM     46  C32 UNL     1       8.821  -1.759   6.333 +0.00 +0.00    +0.111 A  
DOCKED: ATOM     47  N5  UNL     1      10.026  -1.765   6.940 +0.00 -0.00    -0.263 NA 
DOCKED: ATOM     48  C33 UNL     1      10.855  -0.738   6.650 +0.00 +0.00    +0.111 A  
DOCKED: ATOM     49  C34 UNL     1      10.538   0.281   5.767 +0.00 +0.00    +0.025 A  
DOCKED: ENDBRANCH  43  44
DOCKED: ENDBRANCH  41  43
DOCKED: ENDBRANCH  38  39
DOCKED: BRANCH  38  50
DOCKED: ATOM     50  C35 UNL     1      11.471   3.490   0.430 +0.00 +0.00    +0.012 C  
DOCKED: ATOM     51  C36 UNL     1      11.572   5.006   0.245 +0.00 +0.00    +0.009 C  
DOCKED: ATOM     52  C37 UNL     1      12.615   2.815  -0.343 +0.00 +0.00    +0.009 C  
DOCKED: ENDBRANCH  38  50
DOCKED: ENDBRANCH  36  38
DOCKED: ENDBRANCH  33  34
DOCKED: BRANCH  33  53
DOCKED: ATOM     53  C23 UNL     1      14.471   0.537   5.034 +0.00 +0.00    +0.015 C  
DOCKED: BRANCH  53  54
DOCKED: ATOM     54  C24 UNL     1      14.163  -0.685   5.911 +0.00 +0.00    +0.034 C  
DOCKED: BRANCH  54  55
DOCKED: ATOM     55  C25 UNL     1      15.245  -1.752   5.918 +0.00 +0.00    +0.213 C  
DOCKED: ATOM     56  F2  UNL     1      16.009  -1.643   4.798 +0.00 -0.00    -0.249 F  
DOCKED: ENDBRANCH  54  55
DOCKED: ENDBRANCH  53  54
DOCKED: ENDBRANCH  33  53
DOCKED: ENDBRANCH  32  33
DOCKED: ENDBRANCH  29  32
DOCKED: ENDBRANCH   1  29
DOCKED: TORSDOF 25
DOCKED: TER
DOCKED: ENDMDL
________________________________________________________________________________


    FINAL DOCKED STATE:
    ________________________


Run:   5 / 20
Time taken for this run:   2.777s

DOCKED: MODEL        5
DOCKED: USER    Run = 5
DOCKED: USER
DOCKED: USER    Estimated Free Energy of Binding    =  +7.46 kcal/mol  [=(1)+(2)+(3)-(4)]
DOCKED: USER
DOCKED: USER    (1) Final Intermolecular Energy     =  +0.00 kcal/mol
DOCKED: USER        vdW + Hbond + desolv Energy     =  +0.00 kcal/mol
DOCKED: USER        Electrostatic Energy            =  +0.00 kcal/mol
DOCKED: USER        Moving Ligand-Fixed Receptor    =  +0.00 kcal/mol
DOCKED: USER        Moving Ligand-Moving Receptor   =  +0.00 kcal/mol
DOCKED: USER    (2) Final Total Internal Energy     = -14.59 kcal/mol
DOCKED: USER    (3) Torsional Free Energy           =  +7.46 kcal/mol
DOCKED: USER    (4) Unbound System's Energy         = -14.59 kcal/mol
DOCKED: USER
DOCKED: USER
DOCKED: REMARK  Name = ligands/ligand_21.pdb
DOCKED: REMARK  29 active torsions:
DOCKED: REMARK  status: ('A' for Active; 'I' for Inactive)
DOCKED: REMARK    1  A    between atoms: C1_1  and  C2_2
DOCKED: REMARK    2  A    between atoms: C2_2  and  C3_3
DOCKED: REMARK    3  A    between atoms: C3_3  and  C4_4
DOCKED: REMARK    4  A    between atoms: C3_3  and  C5_5
DOCKED: REMARK    5  A    between atoms: C5_5  and  O1_6
DOCKED: REMARK    6  A    between atoms: C5_5  and  C6_7
DOCKED: REMARK    7  A    between atoms: N1_9  and  C7_10
DOCKED: REMARK    8  A    between atoms: C7_10  and  C8_11
DOCKED: REMARK    9  A    between atoms: C7_10  and  C11_15
DOCKED: REMARK   10  A    between atoms: C8_11  and  C9_12
DOCKED: REMARK   11  A    between atoms: C9_12  and  C10_13
DOCKED: REMARK   12  A    between atoms: N2_17  and  C12_18
DOCKED: REMARK   13  A    between atoms: C12_18  and  C13_19
DOCKED: REMARK   14  A    between atoms: C12_18  and  C20_26
DOCKED: REMARK   15  A    between atoms: C13_19  and  C14_20
DOCKED: REMARK   16  A    between atoms: C20_26  and  O4_27
DOCKED: REMARK   17  A    between atoms: C20_26  and  C21_28
DOCKED: REMARK   18  A    between atoms: C21_28  and  C22_29
DOCKED: REMARK   19  A    between atoms: C22_29  and  C23_30
DOCKED: REMARK   20  A    between atoms: C22_29  and  C26_34
DOCKED: REMARK   21  A    between atoms: C23_30  and  C24_31
DOCKED: REMARK   22  A    between atoms: C24_31  and  C25_32
DOCKED: REMARK   23  A    between atoms: N3_36  and  C27_37
DOCKED: REMARK   24  A    between atoms: C27_37  and  C28_38
DOCKED: REMARK   25  A    between atoms: C27_37  and  C35_48
DOCKED: REMARK   26  A    between atoms: N4_40  and  C29_41
DOCKED: REMARK   27  A    between atoms: C29_41  and  C30_42
DOCKED: REMARK   28  A    between atoms: C35_48  and  C36_49
DOCKED: REMARK   29  A    between atoms: C35_48  and  C37_50
DOCKED: REMARK                            x       y       z     vdW  Elec       q    Type
DOCKED: REMARK                         _______ _______ _______ _____ _____    ______ ____
DOCKED: USER                              x       y       z     vdW  Elec       q    Type
DOCKED: USER                           _______ _______ _______ _____ _____    ______ ____
DOCKED: ROOT
DOCKED: ATOM      1  C12 UNL     1       6.830  -7.615   3.179 +0.00 +0.00    +0.106 C  
DOCKED: ENDROOT
DOCKED: BRANCH   1   4
DOCKED: ATOM      2  C11 UNL     1       8.861  -8.801   2.378 +0.00 +0.00    +0.234 C  
DOCKED: ATOM      3  O3  UNL     1       8.312  -9.898   2.482 +0.00 -0.00    -0.274 OA 
DOCKED: ATOM      4  N2  UNL     1       8.228  -7.632   2.736 +0.00 -0.00    -0.308 N  
DOCKED: ATOM      5  H20 UNL     1       8.687  -6.753   2.532 +0.00 +0.00    +0.149 HD 
DOCKED: BRANCH   2   6
DOCKED: ATOM      6  C7  UNL     1      10.280  -8.595   1.811 +0.00 +0.00    +0.159 C  
DOCKED: BRANCH   6   9
DOCKED: ATOM      7  C6  UNL     1      10.633  -6.338   2.803 +0.00 +0.00    +0.243 C  
DOCKED: ATOM      8  O2  UNL     1      10.670  -6.773   3.952 +0.00 -0.00    -0.273 OA 
DOCKED: ATOM      9  N1  UNL     1      10.482  -7.146   1.706 +0.00 -0.00    -0.302 N  
DOCKED: ATOM     10  H12 UNL     1      10.387  -6.724   0.789 +0.00 +0.00    +0.150 HD 
DOCKED: BRANCH   7  11
DOCKED: ATOM     11  C5  UNL     1      10.754  -4.831   2.515 +0.00 +0.00    +0.203 C  
DOCKED: BRANCH  11  12
DOCKED: ATOM     12  C3  UNL     1      10.869  -4.013   3.819 +0.00 +0.00    +0.023 C  
DOCKED: ATOM     13  C4  UNL     1      12.335  -3.884   4.256 +0.00 +0.00    +0.010 C  
DOCKED: BRANCH  12  15
DOCKED: ATOM     14  C1  UNL     1       9.663  -2.095   5.128 +0.00 +0.00    +0.004 C  
DOCKED: ATOM     15  C2  UNL     1      10.182  -2.628   3.800 +0.00 +0.00    +0.003 C  
DOCKED: ENDBRANCH  12  15
DOCKED: ENDBRANCH  11  12
DOCKED: BRANCH  11  16
DOCKED: ATOM     16  O1  UNL     1       9.682  -4.374   1.706 +0.00 -0.00    -0.382 OA 
DOCKED: ATOM     17  H11 UNL     1       9.055  -5.128   1.633 +0.00 +0.00    +0.210 HD 
DOCKED: ENDBRANCH  11  16
DOCKED: ENDBRANCH   7  11
DOCKED: ENDBRANCH   6   9
DOCKED: BRANCH   6  18
DOCKED: ATOM     18  C8  UNL     1      11.334  -9.264   2.700 +0.00 +0.00    +0.034 C  
DOCKED: BRANCH  18  19
DOCKED: ATOM     19  C9  UNL     1      10.825  -9.784   4.045 +0.00 +0.00    +0.036 C  
DOCKED: BRANCH  19  20
DOCKED: ATOM     20  C10 UNL     1      11.763  -9.512   5.213 +0.00 +0.00    +0.213 C  
DOCKED: ATOM     21  F1  UNL     1      12.624  -8.524   4.838 +0.00 -0.00    -0.249 F  
DOCKED: ENDBRANCH  19  20
DOCKED: ENDBRANCH  18  19
DOCKED: ENDBRANCH   6  18
DOCKED: ENDBRANCH   2   6
DOCKED: ENDBRANCH   1   4
DOCKED: BRANCH   1  22
DOCKED: ATOM     22  C13 UNL     1       6.717  -7.877   4.699 +0.00 +0.00    +0.060 C  
DOCKED: BRANCH  22  23
DOCKED: ATOM     23  C14 UNL     1       7.744  -7.165   5.563 +0.00 -0.00    -0.046 A  
DOCKED: ATOM     24  C15 UNL     1       7.818  -5.769   5.647 +0.00 +0.00    +0.004 A  
DOCKED: ATOM     25  C16 UNL     1       8.803  -5.148   6.424 +0.00 +0.00    +0.000 A  
DOCKED: ATOM     26  C17 UNL     1       9.743  -5.916   7.104 +0.00 +0.00    +0.000 A  
DOCKED: ATOM     27  C18 UNL     1       9.695  -7.308   7.010 +0.00 +0.00    +0.000 A  
DOCKED: ATOM     28  C19 UNL     1       8.705  -7.926   6.244 +0.00 +0.00    +0.004 A  
DOCKED: ENDBRANCH  22  23
DOCKED: ENDBRANCH   1  22
DOCKED: BRANCH   1  29
DOCKED: ATOM     29  C20 UNL     1       6.126  -6.291   2.752 +0.00 +0.00    +0.136 C  
DOCKED: BRANCH  29  30
DOCKED: ATOM     30  O4  UNL     1       7.101  -5.265   2.568 +0.00 -0.00    -0.390 OA 
DOCKED: ATOM     31  H30 UNL     1       7.822  -5.649   2.033 +0.00 +0.00    +0.210 HD 
DOCKED: ENDBRANCH  29  30
DOCKED: BRANCH  29  32
DOCKED: ATOM     32  C21 UNL     1       5.287  -6.433   1.470 +0.00 +0.00    +0.046 C  
DOCKED: BRANCH  32  33
DOCKED: ATOM     33  C22 UNL     1       6.089  -7.051   0.298 +0.00 +0.00    +0.078 C  
DOCKED: BRANCH  33  34
DOCKED: ATOM     34  C26 UNL     1       7.285  -6.194  -0.149 +0.00 +0.00    +0.217 C  
DOCKED: ATOM     35  O5  UNL     1       8.338  -6.124   0.476 +0.00 -0.00    -0.275 OA 
DOCKED: ATOM     36  N3  UNL     1       7.047  -5.412  -1.261 +0.00 -0.00    -0.304 N  
DOCKED: ATOM     37  H40 UNL     1       6.081  -5.151  -1.427 +0.00 +0.00    +0.149 HD 
DOCKED: BRANCH  36  38
DOCKED: ATOM     38  C27 UNL     1       8.023  -4.402  -1.669 +0.00 +0.00    +0.161 C  
DOCKED: BRANCH  38  39
DOCKED: ATOM     39  C28 UNL     1       7.585  -3.119  -0.927 +0.00 +0.00    +0.234 C  
DOCKED: ATOM     40  O6  UNL     1       7.162  -2.130  -1.529 +0.00 -0.00    -0.274 OA 
DOCKED: ATOM     41  N4  UNL     1       7.739  -3.166   0.441 +0.00 -0.00    -0.310 N  
DOCKED: ATOM     42  H42 UNL     1       7.723  -4.081   0.867 +0.00 +0.00    +0.149 HD 
DOCKED: BRANCH  41  43
DOCKED: ATOM     43  C29 UNL     1       7.303  -2.068   1.276 +0.00 +0.00    +0.139 C  
DOCKED: BRANCH  43  44
DOCKED: ATOM     44  C30 UNL     1       6.281  -2.534   2.276 +0.00 -0.00    -0.027 A  
DOCKED: ATOM     45  C31 UNL     1       5.012  -2.962   1.876 +0.00 +0.00    +0.025 A  
DOCKED: ATOM     46  C32 UNL     1       4.129  -3.415   2.844 +0.00 +0.00    +0.111 A  
DOCKED: ATOM     47  N5  UNL     1       4.416  -3.467   4.161 +0.00 -0.00    -0.263 NA 
DOCKED: ATOM     48  C33 UNL     1       5.641  -3.032   4.531 +0.00 +0.00    +0.111 A  
DOCKED: ATOM     49  C34 UNL     1       6.594  -2.566   3.639 +0.00 +0.00    +0.025 A  
DOCKED: ENDBRANCH  43  44
DOCKED: ENDBRANCH  41  43
DOCKED: ENDBRANCH  38  39
DOCKED: BRANCH  38  50
DOCKED: ATOM     50  C35 UNL     1       8.006  -4.188  -3.200 +0.00 +0.00    +0.012 C  
DOCKED: ATOM     51  C36 UNL     1       8.962  -5.147  -3.911 +0.00 +0.00    +0.009 C  
DOCKED: ATOM     52  C37 UNL     1       6.594  -4.370  -3.777 +0.00 +0.00    +0.009 C  
DOCKED: ENDBRANCH  38  50
DOCKED: ENDBRANCH  36  38
DOCKED: ENDBRANCH  33  34
DOCKED: BRANCH  33  53
DOCKED: ATOM     53  C23 UNL     1       5.231  -7.507  -0.906 +0.00 +0.00    +0.015 C  
DOCKED: BRANCH  53  54
DOCKED: ATOM     54  C24 UNL     1       3.808  -6.946  -1.033 +0.00 +0.00    +0.034 C  
DOCKED: BRANCH  54  55
DOCKED: ATOM     55  C25 UNL     1       3.724  -5.552  -1.631 +0.00 +0.00    +0.213 C  
DOCKED: ATOM     56  F2  UNL     1       4.266  -4.647  -0.772 +0.00 -0.00    -0.249 F  
DOCKED: ENDBRANCH  54  55
DOCKED: ENDBRANCH  53  54
DOCKED: ENDBRANCH  33  53
DOCKED: ENDBRANCH  32  33
DOCKED: ENDBRANCH  29  32
DOCKED: ENDBRANCH   1  29
DOCKED: TORSDOF 25
DOCKED: TER
DOCKED: ENDMDL
________________________________________________________________________________


    FINAL DOCKED STATE:
    ________________________


Run:   6 / 20
Time taken for this run:   2.777s

DOCKED: MODEL        6
DOCKED: USER    Run = 6
DOCKED: USER
DOCKED: USER    Estimated Free Energy of Binding    =  +7.46 kcal/mol  [=(1)+(2)+(3)-(4)]
DOCKED: USER
DOCKED: USER    (1) Final Intermolecular Energy     =  +0.00 kcal/mol
DOCKED: USER        vdW + Hbond + desolv Energy     =  +0.00 kcal/mol
DOCKED: USER        Electrostatic Energy            =  +0.00 kcal/mol
DOCKED: USER        Moving Ligand-Fixed Receptor    =  +0.00 kcal/mol
DOCKED: USER        Moving Ligand-Moving Receptor   =  +0.00 kcal/mol
DOCKED: USER    (2) Final Total Internal Energy     = -14.60 kcal/mol
DOCKED: USER    (3) Torsional Free Energy           =  +7.46 kcal/mol
DOCKED: USER    (4) Unbound System's Energy         = -14.60 kcal/mol
DOCKED: USER
DOCKED: USER
DOCKED: REMARK  Name = ligands/ligand_21.pdb
DOCKED: REMARK  29 active torsions:
DOCKED: REMARK  status: ('A' for Active; 'I' for Inactive)
DOCKED: REMARK    1  A    between atoms: C1_1  and  C2_2
DOCKED: REMARK    2  A    between atoms: C2_2  and  C3_3
DOCKED: REMARK    3  A    between atoms: C3_3  and  C4_4
DOCKED: REMARK    4  A    between atoms: C3_3  and  C5_5
DOCKED: REMARK    5  A    between atoms: C5_5  and  O1_6
DOCKED: REMARK    6  A    between atoms: C5_5  and  C6_7
DOCKED: REMARK    7  A    between atoms: N1_9  and  C7_10
DOCKED: REMARK    8  A    between atoms: C7_10  and  C8_11
DOCKED: REMARK    9  A    between atoms: C7_10  and  C11_15
DOCKED: REMARK   10  A    between atoms: C8_11  and  C9_12
DOCKED: REMARK   11  A    between atoms: C9_12  and  C10_13
DOCKED: REMARK   12  A    between atoms: N2_17  and  C12_18
DOCKED: REMARK   13  A    between atoms: C12_18  and  C13_19
DOCKED: REMARK   14  A    between atoms: C12_18  and  C20_26
DOCKED: REMARK   15  A    between atoms: C13_19  and  C14_20
DOCKED: REMARK   16  A    between atoms: C20_26  and  O4_27
DOCKED: REMARK   17  A    between atoms: C20_26  and  C21_28
DOCKED: REMARK   18  A    between atoms: C21_28  and  C22_29
DOCKED: REMARK   19  A    between atoms: C22_29  and  C23_30
DOCKED: REMARK   20  A    between atoms: C22_29  and  C26_34
DOCKED: REMARK   21  A    between atoms: C23_30  and  C24_31
DOCKED: REMARK   22  A    between atoms: C24_31  and  C25_32
DOCKED: REMARK   23  A    between atoms: N3_36  and  C27_37
DOCKED: REMARK   24  A    between atoms: C27_37  and  C28_38
DOCKED: REMARK   25  A    between atoms: C27_37  and  C35_48
DOCKED: REMARK   26  A    between atoms: N4_40  and  C29_41
DOCKED: REMARK   27  A    between atoms: C29_41  and  C30_42
DOCKED: REMARK   28  A    between atoms: C35_48  and  C36_49
DOCKED: REMARK   29  A    between atoms: C35_48  and  C37_50
DOCKED: REMARK                            x       y       z     vdW  Elec       q    Type
DOCKED: REMARK                         _______ _______ _______ _____ _____    ______ ____
DOCKED: USER                              x       y       z     vdW  Elec       q    Type
DOCKED: USER                           _______ _______ _______ _____ _____    ______ ____
DOCKED: ROOT
DOCKED: ATOM      1  C12 UNL     1       7.352  -7.604  -3.241 +0.00 +0.00    +0.106 C  
DOCKED: ENDROOT
DOCKED: BRANCH   1   4
DOCKED: ATOM      2  C11 UNL     1       9.444  -7.127  -1.988 +0.00 +0.00    +0.234 C  
DOCKED: ATOM      3  O3  UNL     1       9.723  -8.324  -1.915 +0.00 -0.00    -0.274 OA 
DOCKED: ATOM      4  N2  UNL     1       8.283  -6.683  -2.581 +0.00 -0.00    -0.308 N  
DOCKED: ATOM      5  H20 UNL     1       8.156  -5.687  -2.705 +0.00 +0.00    +0.149 HD 
DOCKED: BRANCH   2   6
DOCKED: ATOM      6  C7  UNL     1      10.355  -5.995  -1.471 +0.00 +0.00    +0.159 C  
DOCKED: BRANCH   6   9
DOCKED: ATOM      7  C6  UNL     1       8.564  -4.271  -1.327 +0.00 +0.00    +0.243 C  
DOCKED: ATOM      8  O2  UNL     1       7.989  -4.845  -0.404 +0.00 -0.00    -0.273 OA 
DOCKED: ATOM      9  N1  UNL     1       9.728  -4.734  -1.882 +0.00 -0.00    -0.302 N  
DOCKED: ATOM     10  H12 UNL     1      10.118  -4.257  -2.688 +0.00 +0.00    +0.150 HD 
DOCKED: BRANCH   7  11
DOCKED: ATOM     11  C5  UNL     1       8.002  -2.971  -1.933 +0.00 +0.00    +0.203 C  
DOCKED: BRANCH  11  12
DOCKED: ATOM     12  C3  UNL     1       6.659  -2.578  -1.281 +0.00 +0.00    +0.023 C  
DOCKED: ATOM     13  C4  UNL     1       6.887  -1.687  -0.053 +0.00 +0.00    +0.010 C  
DOCKED: BRANCH  12  15
DOCKED: ATOM     14  C1  UNL     1       4.153  -2.075  -1.843 +0.00 +0.00    +0.004 C  
DOCKED: ATOM     15  C2  UNL     1       5.619  -1.941  -2.232 +0.00 +0.00    +0.003 C  
DOCKED: ENDBRANCH  12  15
DOCKED: ENDBRANCH  11  12
DOCKED: BRANCH  11  16
DOCKED: ATOM     16  O1  UNL     1       7.889  -3.069  -3.344 +0.00 -0.00    -0.382 OA 
DOCKED: ATOM     17  H11 UNL     1       8.062  -4.010  -3.567 +0.00 +0.00    +0.210 HD 
DOCKED: ENDBRANCH  11  16
DOCKED: ENDBRANCH   7  11
DOCKED: ENDBRANCH   6   9
DOCKED: BRANCH   6  18
DOCKED: ATOM     18  C8  UNL     1      10.539  -6.082   0.048 +0.00 +0.00    +0.034 C  
DOCKED: BRANCH  18  19
DOCKED: ATOM     19  C9  UNL     1       9.637  -7.090   0.762 +0.00 +0.00    +0.036 C  
DOCKED: BRANCH  19  20
DOCKED: ATOM     20  C10 UNL     1       8.989  -6.556   2.031 +0.00 +0.00    +0.213 C  
DOCKED: ATOM     21  F1  UNL     1       9.253  -5.221   2.107 +0.00 -0.00    -0.249 F  
DOCKED: ENDBRANCH  19  20
DOCKED: ENDBRANCH  18  19
DOCKED: ENDBRANCH   6  18
DOCKED: ENDBRANCH   2   6
DOCKED: ENDBRANCH   1   4
DOCKED: BRANCH   1  22
DOCKED: ATOM     22  C13 UNL     1       6.358  -8.222  -2.230 +0.00 +0.00    +0.060 C  
DOCKED: BRANCH  22  23
DOCKED: ATOM     23  C14 UNL     1       5.783  -7.257  -1.207 +0.00 -0.00    -0.046 A  
DOCKED: ATOM     24  C15 UNL     1       4.994  -6.157  -1.571 +0.00 +0.00    +0.004 A  
DOCKED: ATOM     25  C16 UNL     1       4.513  -5.269  -0.604 +0.00 +0.00    +0.000 A  
DOCKED: ATOM     26  C17 UNL     1       4.838  -5.452   0.737 +0.00 +0.00    +0.000 A  
DOCKED: ATOM     27  C18 UNL     1       5.641  -6.530   1.111 +0.00 +0.00    +0.000 A  
DOCKED: ATOM     28  C19 UNL     1       6.111  -7.424   0.146 +0.00 +0.00    +0.004 A  
DOCKED: ENDBRANCH  22  23
DOCKED: ENDBRANCH   1  22
DOCKED: BRANCH   1  29
DOCKED: ATOM     29  C20 UNL     1       6.629  -6.906  -4.432 +0.00 +0.00    +0.136 C  
DOCKED: BRANCH  29  30
DOCKED: ATOM     30  O4  UNL     1       6.616  -5.494  -4.227 +0.00 -0.00    -0.390 OA 
DOCKED: ATOM     31  H30 UNL     1       7.520  -5.235  -3.965 +0.00 +0.00    +0.210 HD 
DOCKED: ENDBRANCH  29  30
DOCKED: BRANCH  29  32
DOCKED: ATOM     32  C21 UNL     1       7.264  -7.218  -5.799 +0.00 +0.00    +0.046 C  
DOCKED: BRANCH  32  33
DOCKED: ATOM     33  C22 UNL     1       8.790  -6.948  -5.822 +0.00 +0.00    +0.078 C  
DOCKED: BRANCH  33  34
DOCKED: ATOM     34  C26 UNL     1       9.157  -5.472  -5.594 +0.00 +0.00    +0.217 C  
DOCKED: ATOM     35  O5  UNL     1       9.136  -4.932  -4.493 +0.00 -0.00    -0.275 OA 
DOCKED: ATOM     36  N3  UNL     1       9.410  -4.759  -6.749 +0.00 -0.00    -0.304 N  
DOCKED: ATOM     37  H40 UNL     1       8.961  -5.099  -7.592 +0.00 +0.00    +0.149 HD 
DOCKED: BRANCH  36  38
DOCKED: ATOM     38  C27 UNL     1       9.569  -3.307  -6.692 +0.00 +0.00    +0.161 C  
DOCKED: BRANCH  38  39
DOCKED: ATOM     39  C28 UNL     1       8.143  -2.753  -6.909 +0.00 +0.00    +0.234 C  
DOCKED: ATOM     40  O6  UNL     1       7.840  -2.108  -7.915 +0.00 -0.00    -0.274 OA 
DOCKED: ATOM     41  N4  UNL     1       7.265  -3.008  -5.879 +0.00 -0.00    -0.310 N  
DOCKED: ATOM     42  H42 UNL     1       7.461  -3.818  -5.309 +0.00 +0.00    +0.149 HD 
DOCKED: BRANCH  41  43
DOCKED: ATOM     43  C29 UNL     1       5.876  -2.616  -5.972 +0.00 +0.00    +0.139 C  
DOCKED: BRANCH  43  44
DOCKED: ATOM     44  C30 UNL     1       4.976  -3.818  -5.870 +0.00 -0.00    -0.027 A  
DOCKED: ATOM     45  C31 UNL     1       4.962  -4.804  -6.861 +0.00 +0.00    +0.025 A  
DOCKED: ATOM     46  C32 UNL     1       4.138  -5.906  -6.689 +0.00 +0.00    +0.111 A  
DOCKED: ATOM     47  N5  UNL     1       3.338  -6.088  -5.619 +0.00 -0.00    -0.263 NA 
DOCKED: ATOM     48  C33 UNL     1       3.351  -5.116  -4.680 +0.00 +0.00    +0.111 A  
DOCKED: ATOM     49  C34 UNL     1       4.143  -3.982  -4.759 +0.00 +0.00    +0.025 A  
DOCKED: ENDBRANCH  43  44
DOCKED: ENDBRANCH  41  43
DOCKED: ENDBRANCH  38  39
DOCKED: BRANCH  38  50
DOCKED: ATOM     50  C35 UNL     1      10.531  -2.801  -7.792 +0.00 +0.00    +0.012 C  
DOCKED: ATOM     51  C36 UNL     1      11.984  -2.809  -7.314 +0.00 +0.00    +0.009 C  
DOCKED: ATOM     52  C37 UNL     1      10.420  -3.651  -9.068 +0.00 +0.00    +0.009 C  
DOCKED: ENDBRANCH  38  50
DOCKED: ENDBRANCH  36  38
DOCKED: ENDBRANCH  33  34
DOCKED: BRANCH  33  53
DOCKED: ATOM     53  C23 UNL     1       9.534  -7.541  -7.041 +0.00 +0.00    +0.015 C  
DOCKED: BRANCH  53  54
DOCKED: ATOM     54  C24 UNL     1       8.707  -7.936  -8.272 +0.00 +0.00    +0.034 C  
DOCKED: BRANCH  54  55
DOCKED: ATOM     55  C25 UNL     1       8.336  -6.780  -9.186 +0.00 +0.00    +0.213 C  
DOCKED: ATOM     56  F2  UNL     1       7.450  -5.960  -8.560 +0.00 -0.00    -0.249 F  
DOCKED: ENDBRANCH  54  55
DOCKED: ENDBRANCH  53  54
DOCKED: ENDBRANCH  33  53
DOCKED: ENDBRANCH  32  33
DOCKED: ENDBRANCH  29  32
DOCKED: ENDBRANCH   1  29
DOCKED: TORSDOF 25
DOCKED: TER
DOCKED: ENDMDL
________________________________________________________________________________


    FINAL DOCKED STATE:
    ________________________


Run:   7 / 20
Time taken for this run:   2.777s

DOCKED: MODEL        7
DOCKED: USER    Run = 7
DOCKED: USER
DOCKED: USER    Estimated Free Energy of Binding    =  +7.46 kcal/mol  [=(1)+(2)+(3)-(4)]
DOCKED: USER
DOCKED: USER    (1) Final Intermolecular Energy     =  +0.00 kcal/mol
DOCKED: USER        vdW + Hbond + desolv Energy     =  +0.00 kcal/mol
DOCKED: USER        Electrostatic Energy            =  +0.00 kcal/mol
DOCKED: USER        Moving Ligand-Fixed Receptor    =  +0.00 kcal/mol
DOCKED: USER        Moving Ligand-Moving Receptor   =  +0.00 kcal/mol
DOCKED: USER    (2) Final Total Internal Energy     = -14.59 kcal/mol
DOCKED: USER    (3) Torsional Free Energy           =  +7.46 kcal/mol
DOCKED: USER    (4) Unbound System's Energy         = -14.59 kcal/mol
DOCKED: USER
DOCKED: USER
DOCKED: REMARK  Name = ligands/ligand_21.pdb
DOCKED: REMARK  29 active torsions:
DOCKED: REMARK  status: ('A' for Active; 'I' for Inactive)
DOCKED: REMARK    1  A    between atoms: C1_1  and  C2_2
DOCKED: REMARK    2  A    between atoms: C2_2  and  C3_3
DOCKED: REMARK    3  A    between atoms: C3_3  and  C4_4
DOCKED: REMARK    4  A    between atoms: C3_3  and  C5_5
DOCKED: REMARK    5  A    between atoms: C5_5  and  O1_6
DOCKED: REMARK    6  A    between atoms: C5_5  and  C6_7
DOCKED: REMARK    7  A    between atoms: N1_9  and  C7_10
DOCKED: REMARK    8  A    between atoms: C7_10  and  C8_11
DOCKED: REMARK    9  A    between atoms: C7_10  and  C11_15
DOCKED: REMARK   10  A    between atoms: C8_11  and  C9_12
DOCKED: REMARK   11  A    between atoms: C9_12  and  C10_13
DOCKED: REMARK   12  A    between atoms: N2_17  and  C12_18
DOCKED: REMARK   13  A    between atoms: C12_18  and  C13_19
DOCKED: REMARK   14  A    between atoms: C12_18  and  C20_26
DOCKED: REMARK   15  A    between atoms: C13_19  and  C14_20
DOCKED: REMARK   16  A    between atoms: C20_26  and  O4_27
DOCKED: REMARK   17  A    between atoms: C20_26  and  C21_28
DOCKED: REMARK   18  A    between atoms: C21_28  and  C22_29
DOCKED: REMARK   19  A    between atoms: C22_29  and  C23_30
DOCKED: REMARK   20  A    between atoms: C22_29  and  C26_34
DOCKED: REMARK   21  A    between atoms: C23_30  and  C24_31
DOCKED: REMARK   22  A    between atoms: C24_31  and  C25_32
DOCKED: REMARK   23  A    between atoms: N3_36  and  C27_37
DOCKED: REMARK   24  A    between atoms: C27_37  and  C28_38
DOCKED: REMARK   25  A    between atoms: C27_37  and  C35_48
DOCKED: REMARK   26  A    between atoms: N4_40  and  C29_41
DOCKED: REMARK   27  A    between atoms: C29_41  and  C30_42
DOCKED: REMARK   28  A    between atoms: C35_48  and  C36_49
DOCKED: REMARK   29  A    between atoms: C35_48  and  C37_50
DOCKED: REMARK                            x       y       z     vdW  Elec       q    Type
DOCKED: REMARK                         _______ _______ _______ _____ _____    ______ ____
DOCKED: USER                              x       y       z     vdW  Elec       q    Type
DOCKED: USER                           _______ _______ _______ _____ _____    ______ ____
DOCKED: ROOT
DOCKED: ATOM      1  C12 UNL     1      11.388  -6.284   2.173 +0.00 +0.00    +0.106 C  
DOCKED: ENDROOT
DOCKED: BRANCH   1   4
DOCKED: ATOM      2  C11 UNL     1      13.500  -7.251   1.291 +0.00 +0.00    +0.234 C  
DOCKED: ATOM      3  O3  UNL     1      13.549  -6.422   0.383 +0.00 -0.00    -0.274 OA 
DOCKED: ATOM      4  N2  UNL     1      12.457  -7.287   2.190 +0.00 -0.00    -0.308 N  
DOCKED: ATOM      5  H20 UNL     1      12.521  -7.922   2.976 +0.00 +0.00    +0.149 HD 
DOCKED: BRANCH   2   6
DOCKED: ATOM      6  C7  UNL     1      14.592  -8.307   1.557 +0.00 +0.00    +0.159 C  
DOCKED: BRANCH   6   9
DOCKED: ATOM      7  C6  UNL     1      13.148  -9.838   2.889 +0.00 +0.00    +0.243 C  
DOCKED: ATOM      8  O2  UNL     1      12.453 -10.138   1.920 +0.00 -0.00    -0.273 OA 
DOCKED: ATOM      9  N1  UNL     1      14.220  -8.989   2.801 +0.00 -0.00    -0.302 N  
DOCKED: ATOM     10  H12 UNL     1      14.712  -8.722   3.648 +0.00 +0.00    +0.150 HD 
DOCKED: BRANCH   7  11
DOCKED: ATOM     11  C5  UNL     1      12.852 -10.403   4.290 +0.00 +0.00    +0.203 C  
DOCKED: BRANCH  11  12
DOCKED: ATOM     12  C3  UNL     1      11.601 -11.309   4.282 +0.00 +0.00    +0.023 C  
DOCKED: ATOM     13  C4  UNL     1      11.976 -12.756   3.935 +0.00 +0.00    +0.010 C  
DOCKED: BRANCH  12  15
DOCKED: ATOM     14  C1  UNL     1       9.249 -11.545   5.403 +0.00 +0.00    +0.004 C  
DOCKED: ATOM     15  C2  UNL     1      10.736 -11.261   5.563 +0.00 +0.00    +0.003 C  
DOCKED: ENDBRANCH  12  15
DOCKED: ENDBRANCH  11  12
DOCKED: BRANCH  11  16
DOCKED: ATOM     16  O1  UNL     1      12.738  -9.366   5.250 +0.00 -0.00    -0.382 OA 
DOCKED: ATOM     17  H11 UNL     1      12.761  -8.523   4.744 +0.00 +0.00    +0.210 HD 
DOCKED: ENDBRANCH  11  16
DOCKED: ENDBRANCH   7  11
DOCKED: ENDBRANCH   6   9
DOCKED: BRANCH   6  18
DOCKED: ATOM     18  C8  UNL     1      14.720  -9.280   0.380 +0.00 +0.00    +0.034 C  
DOCKED: BRANCH  18  19
DOCKED: ATOM     19  C9  UNL     1      13.628  -9.170  -0.686 +0.00 +0.00    +0.036 C  
DOCKED: BRANCH  19  20
DOCKED: ATOM     20  C10 UNL     1      13.092 -10.509  -1.169 +0.00 +0.00    +0.213 C  
DOCKED: ATOM     21  F1  UNL     1      13.533 -11.472  -0.311 +0.00 -0.00    -0.249 F  
DOCKED: ENDBRANCH  19  20
DOCKED: ENDBRANCH  18  19
DOCKED: ENDBRANCH   6  18
DOCKED: ENDBRANCH   2   6
DOCKED: ENDBRANCH   1   4
DOCKED: BRANCH   1  22
DOCKED: ATOM     22  C13 UNL     1      10.271  -6.666   1.174 +0.00 +0.00    +0.060 C  
DOCKED: BRANCH  22  23
DOCKED: ATOM     23  C14 UNL     1       9.870  -8.132   1.173 +0.00 -0.00    -0.046 A  
DOCKED: ATOM     24  C15 UNL     1       9.310  -8.760   2.293 +0.00 +0.00    +0.004 A  
DOCKED: ATOM     25  C16 UNL     1       8.988 -10.121   2.265 +0.00 +0.00    +0.000 A  
DOCKED: ATOM     26  C17 UNL     1       9.248 -10.878   1.127 +0.00 +0.00    +0.000 A  
DOCKED: ATOM     27  C18 UNL     1       9.827 -10.270   0.012 +0.00 +0.00    +0.000 A  
DOCKED: ATOM     28  C19 UNL     1      10.137  -8.909   0.036 +0.00 +0.00    +0.004 A  
DOCKED: ENDBRANCH  22  23
DOCKED: ENDBRANCH   1  22
DOCKED: BRANCH   1  29
DOCKED: ATOM     29  C20 UNL     1      10.837  -6.033   3.610 +0.00 +0.00    +0.136 C  
DOCKED: BRANCH  29  30
DOCKED: ATOM     30  O4  UNL     1      11.080  -7.179   4.426 +0.00 -0.00    -0.390 OA 
DOCKED: ATOM     31  H30 UNL     1      12.012  -7.438   4.285 +0.00 +0.00    +0.210 HD 
DOCKED: ENDBRANCH  29  30
DOCKED: BRANCH  29  32
DOCKED: ATOM     32  C21 UNL     1      11.441  -4.789   4.286 +0.00 +0.00    +0.046 C  
DOCKED: BRANCH  32  33
DOCKED: ATOM     33  C22 UNL     1      12.990  -4.792   4.265 +0.00 +0.00    +0.078 C  
DOCKED: BRANCH  33  34
DOCKED: ATOM     34  C26 UNL     1      13.613  -5.955   5.053 +0.00 +0.00    +0.217 C  
DOCKED: ATOM     35  O5  UNL     1      13.665  -7.107   4.634 +0.00 -0.00    -0.275 OA 
DOCKED: ATOM     36  N3  UNL     1      14.019  -5.630   6.333 +0.00 -0.00    -0.304 N  
DOCKED: ATOM     37  H40 UNL     1      13.535  -4.853   6.771 +0.00 +0.00    +0.149 HD 
DOCKED: BRANCH  36  38
DOCKED: ATOM     38  C27 UNL     1      14.438  -6.681   7.258 +0.00 +0.00    +0.161 C  
DOCKED: BRANCH  38  39
DOCKED: ATOM     39  C28 UNL     1      13.141  -7.086   7.996 +0.00 +0.00    +0.234 C  
DOCKED: ATOM     40  O6  UNL     1      12.984  -6.875   9.200 +0.00 -0.00    -0.274 OA 
DOCKED: ATOM     41  N4  UNL     1      12.208  -7.724   7.209 +0.00 -0.00    -0.310 N  
DOCKED: ATOM     42  H42 UNL     1      12.240  -7.525   6.220 +0.00 +0.00    +0.149 HD 
DOCKED: BRANCH  41  43
DOCKED: ATOM     43  C29 UNL     1      10.915  -8.095   7.742 +0.00 +0.00    +0.139 C  
DOCKED: BRANCH  43  44
DOCKED: ATOM     44  C30 UNL     1       9.810  -7.423   6.974 +0.00 -0.00    -0.027 A  
DOCKED: ATOM     45  C31 UNL     1       9.631  -6.038   7.015 +0.00 +0.00    +0.025 A  
DOCKED: ATOM     46  C32 UNL     1       8.617  -5.477   6.254 +0.00 +0.00    +0.111 A  
DOCKED: ATOM     47  N5  UNL     1       7.781  -6.189   5.471 +0.00 -0.00    -0.263 NA 
DOCKED: ATOM     48  C33 UNL     1       7.957  -7.529   5.458 +0.00 +0.00    +0.111 A  
DOCKED: ATOM     49  C34 UNL     1       8.944  -8.182   6.178 +0.00 +0.00    +0.025 A  
DOCKED: ENDBRANCH  43  44
DOCKED: ENDBRANCH  41  43
DOCKED: ENDBRANCH  38  39
DOCKED: BRANCH  38  50
DOCKED: ATOM     50  C35 UNL     1      15.502  -6.165   8.254 +0.00 +0.00    +0.012 C  
DOCKED: ATOM     51  C36 UNL     1      16.914  -6.290   7.680 +0.00 +0.00    +0.009 C  
DOCKED: ATOM     52  C37 UNL     1      15.247  -4.699   8.639 +0.00 +0.00    +0.009 C  
DOCKED: ENDBRANCH  38  50
DOCKED: ENDBRANCH  36  38
DOCKED: ENDBRANCH  33  34
DOCKED: BRANCH  33  53
DOCKED: ATOM     53  C23 UNL     1      13.645  -3.439   4.628 +0.00 +0.00    +0.015 C  
DOCKED: BRANCH  53  54
DOCKED: ATOM     54  C24 UNL     1      12.794  -2.398   5.368 +0.00 +0.00    +0.034 C  
DOCKED: BRANCH  54  55
DOCKED: ATOM     55  C25 UNL     1      12.672  -2.623   6.866 +0.00 +0.00    +0.213 C  
DOCKED: ATOM     56  F2  UNL     1      11.914  -3.727   7.108 +0.00 -0.00    -0.249 F  
DOCKED: ENDBRANCH  54  55
DOCKED: ENDBRANCH  53  54
DOCKED: ENDBRANCH  33  53
DOCKED: ENDBRANCH  32  33
DOCKED: ENDBRANCH  29  32
DOCKED: ENDBRANCH   1  29
DOCKED: TORSDOF 25
DOCKED: TER
DOCKED: ENDMDL
________________________________________________________________________________


    FINAL DOCKED STATE:
    ________________________


Run:   8 / 20
Time taken for this run:   2.777s

DOCKED: MODEL        8
DOCKED: USER    Run = 8
DOCKED: USER
DOCKED: USER    Estimated Free Energy of Binding    =  +7.46 kcal/mol  [=(1)+(2)+(3)-(4)]
DOCKED: USER
DOCKED: USER    (1) Final Intermolecular Energy     =  +0.00 kcal/mol
DOCKED: USER        vdW + Hbond + desolv Energy     =  +0.00 kcal/mol
DOCKED: USER        Electrostatic Energy            =  +0.00 kcal/mol
DOCKED: USER        Moving Ligand-Fixed Receptor    =  +0.00 kcal/mol
DOCKED: USER        Moving Ligand-Moving Receptor   =  +0.00 kcal/mol
DOCKED: USER    (2) Final Total Internal Energy     = -14.52 kcal/mol
DOCKED: USER    (3) Torsional Free Energy           =  +7.46 kcal/mol
DOCKED: USER    (4) Unbound System's Energy         = -14.52 kcal/mol
DOCKED: USER
DOCKED: USER
DOCKED: REMARK  Name = ligands/ligand_21.pdb
DOCKED: REMARK  29 active torsions:
DOCKED: REMARK  status: ('A' for Active; 'I' for Inactive)
DOCKED: REMARK    1  A    between atoms: C1_1  and  C2_2
DOCKED: REMARK    2  A    between atoms: C2_2  and  C3_3
DOCKED: REMARK    3  A    between atoms: C3_3  and  C4_4
DOCKED: REMARK    4  A    between atoms: C3_3  and  C5_5
DOCKED: REMARK    5  A    between atoms: C5_5  and  O1_6
DOCKED: REMARK    6  A    between atoms: C5_5  and  C6_7
DOCKED: REMARK    7  A    between atoms: N1_9  and  C7_10
DOCKED: REMARK    8  A    between atoms: C7_10  and  C8_11
DOCKED: REMARK    9  A    between atoms: C7_10  and  C11_15
DOCKED: REMARK   10  A    between atoms: C8_11  and  C9_12
DOCKED: REMARK   11  A    between atoms: C9_12  and  C10_13
DOCKED: REMARK   12  A    between atoms: N2_17  and  C12_18
DOCKED: REMARK   13  A    between atoms: C12_18  and  C13_19
DOCKED: REMARK   14  A    between atoms: C12_18  and  C20_26
DOCKED: REMARK   15  A    between atoms: C13_19  and  C14_20
DOCKED: REMARK   16  A    between atoms: C20_26  and  O4_27
DOCKED: REMARK   17  A    between atoms: C20_26  and  C21_28
DOCKED: REMARK   18  A    between atoms: C21_28  and  C22_29
DOCKED: REMARK   19  A    between atoms: C22_29  and  C23_30
DOCKED: REMARK   20  A    between atoms: C22_29  and  C26_34
DOCKED: REMARK   21  A    between atoms: C23_30  and  C24_31
DOCKED: REMARK   22  A    between atoms: C24_31  and  C25_32
DOCKED: REMARK   23  A    between atoms: N3_36  and  C27_37
DOCKED: REMARK   24  A    between atoms: C27_37  and  C28_38
DOCKED: REMARK   25  A    between atoms: C27_37  and  C35_48
DOCKED: REMARK   26  A    between atoms: N4_40  and  C29_41
DOCKED: REMARK   27  A    between atoms: C29_41  and  C30_42
DOCKED: REMARK   28  A    between atoms: C35_48  and  C36_49
DOCKED: REMARK   29  A    between atoms: C35_48  and  C37_50
DOCKED: REMARK                            x       y       z     vdW  Elec       q    Type
DOCKED: REMARK                         _______ _______ _______ _____ _____    ______ ____
DOCKED: USER                              x       y       z     vdW  Elec       q    Type
DOCKED: USER                           _______ _______ _______ _____ _____    ______ ____
DOCKED: ROOT
DOCKED: ATOM      1  C12 UNL     1      11.253  -4.355  -6.830 +0.00 +0.00    +0.106 C  
DOCKED: ENDROOT
DOCKED: BRANCH   1   4
DOCKED: ATOM      2  C11 UNL     1       9.524  -6.136  -6.717 +0.00 +0.00    +0.234 C  
DOCKED: ATOM      3  O3  UNL     1       8.669  -5.393  -7.200 +0.00 -0.00    -0.274 OA 
DOCKED: ATOM      4  N2  UNL     1      10.805  -5.702  -6.461 +0.00 -0.00    -0.308 N  
DOCKED: ATOM      5  H20 UNL     1      11.493  -6.382  -6.161 +0.00 +0.00    +0.149 HD 
DOCKED: BRANCH   2   6
DOCKED: ATOM      6  C7  UNL     1       9.287  -7.622  -6.380 +0.00 +0.00    +0.159 C  
DOCKED: BRANCH   6   9
DOCKED: ATOM      7  C6  UNL     1      10.921  -7.614  -4.500 +0.00 +0.00    +0.243 C  
DOCKED: ATOM      8  O2  UNL     1      10.277  -6.790  -3.853 +0.00 -0.00    -0.273 OA 
DOCKED: ATOM      9  N1  UNL     1      10.504  -8.097  -5.713 +0.00 -0.00    -0.302 N  
DOCKED: ATOM     10  H12 UNL     1      11.111  -8.722  -6.233 +0.00 +0.00    +0.150 HD 
DOCKED: BRANCH   7  11
DOCKED: ATOM     11  C5  UNL     1      12.262  -8.165  -3.983 +0.00 +0.00    +0.203 C  
DOCKED: BRANCH  11  12
DOCKED: ATOM     12  C3  UNL     1      12.477  -7.824  -2.492 +0.00 +0.00    +0.023 C  
DOCKED: ATOM     13  C4  UNL     1      12.449  -9.094  -1.631 +0.00 +0.00    +0.010 C  
DOCKED: BRANCH  12  15
DOCKED: ATOM     14  C1  UNL     1      13.752  -5.550  -2.705 +0.00 +0.00    +0.004 C  
DOCKED: ATOM     15  C2  UNL     1      13.731  -6.978  -2.177 +0.00 +0.00    +0.003 C  
DOCKED: ENDBRANCH  12  15
DOCKED: ENDBRANCH  11  12
DOCKED: BRANCH  11  16
DOCKED: ATOM     16  O1  UNL     1      13.345  -7.717  -4.782 +0.00 -0.00    -0.382 OA 
DOCKED: ATOM     17  H11 UNL     1      12.949  -7.399  -5.623 +0.00 +0.00    +0.210 HD 
DOCKED: ENDBRANCH  11  16
DOCKED: ENDBRANCH   7  11
DOCKED: ENDBRANCH   6   9
DOCKED: BRANCH   6  18
DOCKED: ATOM     18  C8  UNL     1       8.040  -7.800  -5.507 +0.00 +0.00    +0.034 C  
DOCKED: BRANCH  18  19
DOCKED: ATOM     19  C9  UNL     1       7.981  -9.102  -4.705 +0.00 +0.00    +0.036 C  
DOCKED: BRANCH  19  20
DOCKED: ATOM     20  C10 UNL     1       8.073  -8.908  -3.198 +0.00 +0.00    +0.213 C  
DOCKED: ATOM     21  F1  UNL     1       9.201  -9.538  -2.763 +0.00 -0.00    -0.249 F  
DOCKED: ENDBRANCH  19  20
DOCKED: ENDBRANCH  18  19
DOCKED: ENDBRANCH   6  18
DOCKED: ENDBRANCH   2   6
DOCKED: ENDBRANCH   1   4
DOCKED: BRANCH   1  22
DOCKED: ATOM     22  C13 UNL     1      10.426  -3.267  -6.107 +0.00 +0.00    +0.060 C  
DOCKED: BRANCH  22  23
DOCKED: ATOM     23  C14 UNL     1      10.058  -3.577  -4.666 +0.00 -0.00    -0.046 A  
DOCKED: ATOM     24  C15 UNL     1      11.014  -3.657  -3.646 +0.00 +0.00    +0.004 A  
DOCKED: ATOM     25  C16 UNL     1      10.641  -3.981  -2.337 +0.00 +0.00    +0.000 A  
DOCKED: ATOM     26  C17 UNL     1       9.311  -4.258  -2.038 +0.00 +0.00    +0.000 A  
DOCKED: ATOM     27  C18 UNL     1       8.351  -4.204  -3.049 +0.00 +0.00    +0.000 A  
DOCKED: ATOM     28  C19 UNL     1       8.722  -3.868  -4.353 +0.00 +0.00    +0.004 A  
DOCKED: ENDBRANCH  22  23
DOCKED: ENDBRANCH   1  22
DOCKED: BRANCH   1  29
DOCKED: ATOM     29  C20 UNL     1      12.785  -4.193  -6.590 +0.00 +0.00    +0.136 C  
DOCKED: BRANCH  29  30
DOCKED: ATOM     30  O4  UNL     1      13.264  -5.272  -5.789 +0.00 -0.00    -0.390 OA 
DOCKED: ATOM     31  H30 UNL     1      12.889  -6.093  -6.161 +0.00 +0.00    +0.210 HD 
DOCKED: ENDBRANCH  29  30
DOCKED: BRANCH  29  32
DOCKED: ATOM     32  C21 UNL     1      13.602  -4.122  -7.892 +0.00 +0.00    +0.046 C  
DOCKED: BRANCH  32  33
DOCKED: ATOM     33  C22 UNL     1      15.085  -4.521  -7.687 +0.00 +0.00    +0.078 C  
DOCKED: BRANCH  33  34
DOCKED: ATOM     34  C26 UNL     1      15.377  -5.993  -8.018 +0.00 +0.00    +0.217 C  
DOCKED: ATOM     35  O5  UNL     1      15.863  -6.365  -9.082 +0.00 -0.00    -0.275 OA 
DOCKED: ATOM     36  N3  UNL     1      14.947  -6.893  -7.063 +0.00 -0.00    -0.304 N  
DOCKED: ATOM     37  H40 UNL     1      14.168  -6.594  -6.485 +0.00 +0.00    +0.149 HD 
DOCKED: BRANCH  36  38
DOCKED: ATOM     38  C27 UNL     1      14.976  -8.328  -7.342 +0.00 +0.00    +0.161 C  
DOCKED: BRANCH  38  39
DOCKED: ATOM     39  C28 UNL     1      13.488  -8.736  -7.427 +0.00 +0.00    +0.234 C  
DOCKED: ATOM     40  O6  UNL     1      12.579  -7.917  -7.278 +0.00 -0.00    -0.274 OA 
DOCKED: ATOM     41  N4  UNL     1      13.273 -10.078  -7.644 +0.00 -0.00    -0.310 N  
DOCKED: ATOM     42  H42 UNL     1      14.010 -10.584  -8.113 +0.00 +0.00    +0.149 HD 
DOCKED: BRANCH  41  43
DOCKED: ATOM     43  C29 UNL     1      11.934 -10.597  -7.821 +0.00 +0.00    +0.139 C  
DOCKED: BRANCH  43  44
DOCKED: ATOM     44  C30 UNL     1      11.385 -11.108  -6.516 +0.00 -0.00    -0.027 A  
DOCKED: ATOM     45  C31 UNL     1      12.180 -11.179  -5.369 +0.00 +0.00    +0.025 A  
DOCKED: ATOM     46  C32 UNL     1      11.603 -11.623  -4.188 +0.00 +0.00    +0.111 A  
DOCKED: ATOM     47  N5  UNL     1      10.313 -11.999  -4.076 +0.00 -0.00    -0.263 NA 
DOCKED: ATOM     48  C33 UNL     1       9.565 -11.943  -5.200 +0.00 +0.00    +0.111 A  
DOCKED: ATOM     49  C34 UNL     1      10.047 -11.508  -6.424 +0.00 +0.00    +0.025 A  
DOCKED: ENDBRANCH  43  44
DOCKED: ENDBRANCH  41  43
DOCKED: ENDBRANCH  38  39
DOCKED: BRANCH  38  50
DOCKED: ATOM     50  C35 UNL     1      15.699  -9.106  -6.218 +0.00 +0.00    +0.012 C  
DOCKED: ATOM     51  C36 UNL     1      16.818  -9.987  -6.777 +0.00 +0.00    +0.009 C  
DOCKED: ATOM     52  C37 UNL     1      16.290  -8.155  -5.166 +0.00 +0.00    +0.009 C  
DOCKED: ENDBRANCH  38  50
DOCKED: ENDBRANCH  36  38
DOCKED: ENDBRANCH  33  34
DOCKED: BRANCH  33  53
DOCKED: ATOM     53  C23 UNL     1      15.683  -4.112  -6.320 +0.00 +0.00    +0.015 C  
DOCKED: BRANCH  53  54
DOCKED: ATOM     54  C24 UNL     1      16.947  -4.838  -5.837 +0.00 +0.00    +0.034 C  
DOCKED: BRANCH  54  55
DOCKED: ATOM     55  C25 UNL     1      17.071  -4.962  -4.328 +0.00 +0.00    +0.213 C  
DOCKED: ATOM     56  F2  UNL     1      16.222  -4.091  -3.720 +0.00 -0.00    -0.249 F  
DOCKED: ENDBRANCH  54  55
DOCKED: ENDBRANCH  53  54
DOCKED: ENDBRANCH  33  53
DOCKED: ENDBRANCH  32  33
DOCKED: ENDBRANCH  29  32
DOCKED: ENDBRANCH   1  29
DOCKED: TORSDOF 25
DOCKED: TER
DOCKED: ENDMDL
________________________________________________________________________________


    FINAL DOCKED STATE:
    ________________________


Run:   9 / 20
Time taken for this run:   2.777s

DOCKED: MODEL        9
DOCKED: USER    Run = 9
DOCKED: USER
DOCKED: USER    Estimated Free Energy of Binding    =  +7.46 kcal/mol  [=(1)+(2)+(3)-(4)]
DOCKED: USER
DOCKED: USER    (1) Final Intermolecular Energy     =  +0.00 kcal/mol
DOCKED: USER        vdW + Hbond + desolv Energy     =  +0.00 kcal/mol
DOCKED: USER        Electrostatic Energy            =  +0.00 kcal/mol
DOCKED: USER        Moving Ligand-Fixed Receptor    =  +0.00 kcal/mol
DOCKED: USER        Moving Ligand-Moving Receptor   =  +0.00 kcal/mol
DOCKED: USER    (2) Final Total Internal Energy     = -14.53 kcal/mol
DOCKED: USER    (3) Torsional Free Energy           =  +7.46 kcal/mol
DOCKED: USER    (4) Unbound System's Energy         = -14.53 kcal/mol
DOCKED: USER
DOCKED: USER
DOCKED: REMARK  Name = ligands/ligand_21.pdb
DOCKED: REMARK  29 active torsions:
DOCKED: REMARK  status: ('A' for Active; 'I' for Inactive)
DOCKED: REMARK    1  A    between atoms: C1_1  and  C2_2
DOCKED: REMARK    2  A    between atoms: C2_2  and  C3_3
DOCKED: REMARK    3  A    between atoms: C3_3  and  C4_4
DOCKED: REMARK    4  A    between atoms: C3_3  and  C5_5
DOCKED: REMARK    5  A    between atoms: C5_5  and  O1_6
DOCKED: REMARK    6  A    between atoms: C5_5  and  C6_7
DOCKED: REMARK    7  A    between atoms: N1_9  and  C7_10
DOCKED: REMARK    8  A    between atoms: C7_10  and  C8_11
DOCKED: REMARK    9  A    between atoms: C7_10  and  C11_15
DOCKED: REMARK   10  A    between atoms: C8_11  and  C9_12
DOCKED: REMARK   11  A    between atoms: C9_12  and  C10_13
DOCKED: REMARK   12  A    between atoms: N2_17  and  C12_18
DOCKED: REMARK   13  A    between atoms: C12_18  and  C13_19
DOCKED: REMARK   14  A    between atoms: C12_18  and  C20_26
DOCKED: REMARK   15  A    between atoms: C13_19  and  C14_20
DOCKED: REMARK   16  A    between atoms: C20_26  and  O4_27
DOCKED: REMARK   17  A    between atoms: C20_26  and  C21_28
DOCKED: REMARK   18  A    between atoms: C21_28  and  C22_29
DOCKED: REMARK   19  A    between atoms: C22_29  and  C23_30
DOCKED: REMARK   20  A    between atoms: C22_29  and  C26_34
DOCKED: REMARK   21  A    between atoms: C23_30  and  C24_31
DOCKED: REMARK   22  A    between atoms: C24_31  and  C25_32
DOCKED: REMARK   23  A    between atoms: N3_36  and  C27_37
DOCKED: REMARK   24  A    between atoms: C27_37  and  C28_38
DOCKED: REMARK   25  A    between atoms: C27_37  and  C35_48
DOCKED: REMARK   26  A    between atoms: N4_40  and  C29_41
DOCKED: REMARK   27  A    between atoms: C29_41  and  C30_42
DOCKED: REMARK   28  A    between atoms: C35_48  and  C36_49
DOCKED: REMARK   29  A    between atoms: C35_48  and  C37_50
DOCKED: REMARK                            x       y       z     vdW  Elec       q    Type
DOCKED: REMARK                         _______ _______ _______ _____ _____    ______ ____
DOCKED: USER                              x       y       z     vdW  Elec       q    Type
DOCKED: USER                           _______ _______ _______ _____ _____    ______ ____
DOCKED: ROOT
DOCKED: ATOM      1  C12 UNL     1      12.050  -8.841   4.603 +0.00 +0.00    +0.106 C  
DOCKED: ENDROOT
DOCKED: BRANCH   1   4
DOCKED: ATOM      2  C11 UNL     1      11.839  -8.429   7.044 +0.00 +0.00    +0.234 C  
DOCKED: ATOM      3  O3  UNL     1      11.169  -9.449   7.200 +0.00 -0.00    -0.274 OA 
DOCKED: ATOM      4  N2  UNL     1      12.278  -8.028   5.802 +0.00 -0.00    -0.308 N  
DOCKED: ATOM      5  H20 UNL     1      12.911  -7.240   5.746 +0.00 +0.00    +0.149 HD 
DOCKED: BRANCH   2   6
DOCKED: ATOM      6  C7  UNL     1      12.295  -7.510   8.195 +0.00 +0.00    +0.159 C  
DOCKED: BRANCH   6   9
DOCKED: ATOM      7  C6  UNL     1      12.300  -5.475   6.760 +0.00 +0.00    +0.243 C  
DOCKED: ATOM      8  O2  UNL     1      11.093  -5.544   6.538 +0.00 -0.00    -0.273 OA 
DOCKED: ATOM      9  N1  UNL     1      12.959  -6.359   7.573 +0.00 -0.00    -0.302 N  
DOCKED: ATOM     10  H12 UNL     1      13.967  -6.295   7.662 +0.00 +0.00    +0.150 HD 
DOCKED: BRANCH   7  11
DOCKED: ATOM     11  C5  UNL     1      13.167  -4.372   6.125 +0.00 +0.00    +0.203 C  
DOCKED: BRANCH  11  12
DOCKED: ATOM     12  C3  UNL     1      12.299  -3.255   5.507 +0.00 +0.00    +0.023 C  
DOCKED: ATOM     13  C4  UNL     1      12.471  -1.938   6.277 +0.00 +0.00    +0.010 C  
DOCKED: BRANCH  12  15
DOCKED: ATOM     14  C1  UNL     1      12.039  -4.151   3.063 +0.00 +0.00    +0.004 C  
DOCKED: ATOM     15  C2  UNL     1      12.487  -3.029   3.989 +0.00 +0.00    +0.003 C  
DOCKED: ENDBRANCH  12  15
DOCKED: ENDBRANCH  11  12
DOCKED: BRANCH  11  16
DOCKED: ATOM     16  O1  UNL     1      14.075  -4.912   5.179 +0.00 -0.00    -0.382 OA 
DOCKED: ATOM     17  H11 UNL     1      14.115  -5.877   5.360 +0.00 +0.00    +0.210 HD 
DOCKED: ENDBRANCH  11  16
DOCKED: ENDBRANCH   7  11
DOCKED: ENDBRANCH   6   9
DOCKED: BRANCH   6  18
DOCKED: ATOM     18  C8  UNL     1      11.109  -7.090   9.072 +0.00 +0.00    +0.034 C  
DOCKED: BRANCH  18  19
DOCKED: ATOM     19  C9  UNL     1      11.319  -5.818   9.896 +0.00 +0.00    +0.036 C  
DOCKED: BRANCH  19  20
DOCKED: ATOM     20  C10 UNL     1      10.424  -4.658   9.487 +0.00 +0.00    +0.213 C  
DOCKED: ATOM     21  F1  UNL     1      11.220  -3.667   8.995 +0.00 -0.00    -0.249 F  
DOCKED: ENDBRANCH  19  20
DOCKED: ENDBRANCH  18  19
DOCKED: ENDBRANCH   6  18
DOCKED: ENDBRANCH   2   6
DOCKED: ENDBRANCH   1   4
DOCKED: BRANCH   1  22
DOCKED: ATOM     22  C13 UNL     1      10.539  -9.021   4.323 +0.00 +0.00    +0.060 C  
DOCKED: BRANCH  22  23
DOCKED: ATOM     23  C14 UNL     1       9.676  -7.799   4.587 +0.00 -0.00    -0.046 A  
DOCKED: ATOM     24  C15 UNL     1       9.758  -6.637   3.808 +0.00 +0.00    +0.004 A  
DOCKED: ATOM     25  C16 UNL     1       8.974  -5.518   4.105 +0.00 +0.00    +0.000 A  
DOCKED: ATOM     26  C17 UNL     1       8.118  -5.535   5.202 +0.00 +0.00    +0.000 A  
DOCKED: ATOM     27  C18 UNL     1       8.043  -6.678   6.000 +0.00 +0.00    +0.000 A  
DOCKED: ATOM     28  C19 UNL     1       8.818  -7.799   5.696 +0.00 +0.00    +0.004 A  
DOCKED: ENDBRANCH  22  23
DOCKED: ENDBRANCH   1  22
DOCKED: BRANCH   1  29
DOCKED: ATOM     29  C20 UNL     1      12.814  -8.253   3.378 +0.00 +0.00    +0.136 C  
DOCKED: BRANCH  29  30
DOCKED: ATOM     30  O4  UNL     1      13.269  -6.935   3.681 +0.00 -0.00    -0.390 OA 
DOCKED: ATOM     31  H30 UNL     1      13.656  -6.965   4.577 +0.00 +0.00    +0.210 HD 
DOCKED: ENDBRANCH  29  30
DOCKED: BRANCH  29  32
DOCKED: ATOM     32  C21 UNL     1      14.009  -9.115   2.933 +0.00 +0.00    +0.046 C  
DOCKED: BRANCH  32  33
DOCKED: ATOM     33  C22 UNL     1      15.068  -8.304   2.146 +0.00 +0.00    +0.078 C  
DOCKED: BRANCH  33  34
DOCKED: ATOM     34  C26 UNL     1      16.224  -7.791   3.020 +0.00 +0.00    +0.217 C  
DOCKED: ATOM     35  O5  UNL     1      17.314  -8.348   3.096 +0.00 -0.00    -0.275 OA 
DOCKED: ATOM     36  N3  UNL     1      15.908  -6.703   3.810 +0.00 -0.00    -0.304 N  
DOCKED: ATOM     37  H40 UNL     1      14.930  -6.602   4.061 +0.00 +0.00    +0.149 HD 
DOCKED: BRANCH  36  38
DOCKED: ATOM     38  C27 UNL     1      16.845  -6.244   4.834 +0.00 +0.00    +0.161 C  
DOCKED: BRANCH  38  39
DOCKED: ATOM     39  C28 UNL     1      16.159  -6.598   6.172 +0.00 +0.00    +0.234 C  
DOCKED: ATOM     40  O6  UNL     1      15.045  -7.123   6.215 +0.00 -0.00    -0.274 OA 
DOCKED: ATOM     41  N4  UNL     1      16.876  -6.247   7.295 +0.00 -0.00    -0.310 N  
DOCKED: ATOM     42  H42 UNL     1      17.878  -6.184   7.189 +0.00 +0.00    +0.149 HD 
DOCKED: BRANCH  41  43
DOCKED: ATOM     43  C29 UNL     1      16.396  -6.582   8.618 +0.00 +0.00    +0.139 C  
DOCKED: BRANCH  43  44
DOCKED: ATOM     44  C30 UNL     1      15.595  -5.447   9.196 +0.00 -0.00    -0.027 A  
DOCKED: ATOM     45  C31 UNL     1      15.474  -4.226   8.527 +0.00 +0.00    +0.025 A  
DOCKED: ATOM     46  C32 UNL     1      14.690  -3.233   9.096 +0.00 +0.00    +0.111 A  
DOCKED: ATOM     47  N5  UNL     1      14.033  -3.370  10.266 +0.00 -0.00    -0.263 NA 
DOCKED: ATOM     48  C33 UNL     1      14.177  -4.551  10.907 +0.00 +0.00    +0.111 A  
DOCKED: ATOM     49  C34 UNL     1      14.933  -5.604  10.418 +0.00 +0.00    +0.025 A  
DOCKED: ENDBRANCH  43  44
DOCKED: ENDBRANCH  41  43
DOCKED: ENDBRANCH  38  39
DOCKED: BRANCH  38  50
DOCKED: ATOM     50  C35 UNL     1      17.096  -4.722   4.727 +0.00 +0.00    +0.012 C  
DOCKED: ATOM     51  C36 UNL     1      18.591  -4.403   4.663 +0.00 +0.00    +0.009 C  
DOCKED: ATOM     52  C37 UNL     1      16.404  -4.124   3.491 +0.00 +0.00    +0.009 C  
DOCKED: ENDBRANCH  38  50
DOCKED: ENDBRANCH  36  38
DOCKED: ENDBRANCH  33  34
DOCKED: BRANCH  33  53
DOCKED: ATOM     53  C23 UNL     1      14.492  -7.186   1.246 +0.00 +0.00    +0.015 C  
DOCKED: BRANCH  53  54
DOCKED: ATOM     54  C24 UNL     1      15.433  -6.060   0.798 +0.00 +0.00    +0.034 C  
DOCKED: BRANCH  54  55
DOCKED: ATOM     55  C25 UNL     1      14.762  -4.711   0.600 +0.00 +0.00    +0.213 C  
DOCKED: ATOM     56  F2  UNL     1      13.421  -4.880   0.441 +0.00 -0.00    -0.249 F  
DOCKED: ENDBRANCH  54  55
DOCKED: ENDBRANCH  53  54
DOCKED: ENDBRANCH  33  53
DOCKED: ENDBRANCH  32  33
DOCKED: ENDBRANCH  29  32
DOCKED: ENDBRANCH   1  29
DOCKED: TORSDOF 25
DOCKED: TER
DOCKED: ENDMDL
________________________________________________________________________________


    FINAL DOCKED STATE:
    ________________________


Run:   10 / 20
Time taken for this run:   2.777s

DOCKED: MODEL        10
DOCKED: USER    Run = 10
DOCKED: USER
DOCKED: USER    Estimated Free Energy of Binding    =  +7.46 kcal/mol  [=(1)+(2)+(3)-(4)]
DOCKED: USER
DOCKED: USER    (1) Final Intermolecular Energy     =  +0.00 kcal/mol
DOCKED: USER        vdW + Hbond + desolv Energy     =  +0.00 kcal/mol
DOCKED: USER        Electrostatic Energy            =  +0.00 kcal/mol
DOCKED: USER        Moving Ligand-Fixed Receptor    =  +0.00 kcal/mol
DOCKED: USER        Moving Ligand-Moving Receptor   =  +0.00 kcal/mol
DOCKED: USER    (2) Final Total Internal Energy     = -14.62 kcal/mol
DOCKED: USER    (3) Torsional Free Energy           =  +7.46 kcal/mol
DOCKED: USER    (4) Unbound System's Energy         = -14.62 kcal/mol
DOCKED: USER
DOCKED: USER
DOCKED: REMARK  Name = ligands/ligand_21.pdb
DOCKED: REMARK  29 active torsions:
DOCKED: REMARK  status: ('A' for Active; 'I' for Inactive)
DOCKED: REMARK    1  A    between atoms: C1_1  and  C2_2
DOCKED: REMARK    2  A    between atoms: C2_2  and  C3_3
DOCKED: REMARK    3  A    between atoms: C3_3  and  C4_4
DOCKED: REMARK    4  A    between atoms: C3_3  and  C5_5
DOCKED: REMARK    5  A    between atoms: C5_5  and  O1_6
DOCKED: REMARK    6  A    between atoms: C5_5  and  C6_7
DOCKED: REMARK    7  A    between atoms: N1_9  and  C7_10
DOCKED: REMARK    8  A    between atoms: C7_10  and  C8_11
DOCKED: REMARK    9  A    between atoms: C7_10  and  C11_15
DOCKED: REMARK   10  A    between atoms: C8_11  and  C9_12
DOCKED: REMARK   11  A    between atoms: C9_12  and  C10_13
DOCKED: REMARK   12  A    between atoms: N2_17  and  C12_18
DOCKED: REMARK   13  A    between atoms: C12_18  and  C13_19
DOCKED: REMARK   14  A    between atoms: C12_18  and  C20_26
DOCKED: REMARK   15  A    between atoms: C13_19  and  C14_20
DOCKED: REMARK   16  A    between atoms: C20_26  and  O4_27
DOCKED: REMARK   17  A    between atoms: C20_26  and  C21_28
DOCKED: REMARK   18  A    between atoms: C21_28  and  C22_29
DOCKED: REMARK   19  A    between atoms: C22_29  and  C23_30
DOCKED: REMARK   20  A    between atoms: C22_29  and  C26_34
DOCKED: REMARK   21  A    between atoms: C23_30  and  C24_31
DOCKED: REMARK   22  A    between atoms: C24_31  and  C25_32
DOCKED: REMARK   23  A    between atoms: N3_36  and  C27_37
DOCKED: REMARK   24  A    between atoms: C27_37  and  C28_38
DOCKED: REMARK   25  A    between atoms: C27_37  and  C35_48
DOCKED: REMARK   26  A    between atoms: N4_40  and  C29_41
DOCKED: REMARK   27  A    between atoms: C29_41  and  C30_42
DOCKED: REMARK   28  A    between atoms: C35_48  and  C36_49
DOCKED: REMARK   29  A    between atoms: C35_48  and  C37_50
DOCKED: REMARK                            x       y       z     vdW  Elec       q    Type
DOCKED: REMARK                         _______ _______ _______ _____ _____    ______ ____
DOCKED: USER                              x       y       z     vdW  Elec       q    Type
DOCKED: USER                           _______ _______ _______ _____ _____    ______ ____
DOCKED: ROOT
DOCKED: ATOM      1  C12 UNL     1       7.962   1.448  -5.463 +0.00 +0.00    +0.106 C  
DOCKED: ENDROOT
DOCKED: BRANCH   1   4
DOCKED: ATOM      2  C11 UNL     1       9.507   1.724  -3.536 +0.00 +0.00    +0.234 C  
DOCKED: ATOM      3  O3  UNL     1      10.388   2.193  -4.256 +0.00 -0.00    -0.274 OA 
DOCKED: ATOM      4  N2  UNL     1       8.302   1.292  -4.045 +0.00 -0.00    -0.308 N  
DOCKED: ATOM      5  H20 UNL     1       7.578   1.013  -3.396 +0.00 +0.00    +0.149 HD 
DOCKED: BRANCH   2   6
DOCKED: ATOM      6  C7  UNL     1       9.620   1.596  -2.003 +0.00 +0.00    +0.159 C  
DOCKED: BRANCH   6   9
DOCKED: ATOM      7  C6  UNL     1       7.858  -0.146  -1.758 +0.00 +0.00    +0.243 C  
DOCKED: ATOM      8  O2  UNL     1       8.528  -1.003  -2.331 +0.00 -0.00    -0.273 OA 
DOCKED: ATOM      9  N1  UNL     1       8.316   1.124  -1.526 +0.00 -0.00    -0.302 N  
DOCKED: ATOM     10  H12 UNL     1       7.691   1.809  -1.113 +0.00 +0.00    +0.150 HD 
DOCKED: BRANCH   7  11
DOCKED: ATOM     11  C5  UNL     1       6.434  -0.449  -1.257 +0.00 +0.00    +0.203 C  
DOCKED: BRANCH  11  12
DOCKED: ATOM     12  C3  UNL     1       5.997  -1.883  -1.625 +0.00 +0.00    +0.023 C  
DOCKED: ATOM     13  C4  UNL     1       6.407  -2.878  -0.531 +0.00 +0.00    +0.010 C  
DOCKED: BRANCH  12  15
DOCKED: ATOM     14  C1  UNL     1       4.142  -3.203  -2.915 +0.00 +0.00    +0.004 C  
DOCKED: ATOM     15  C2  UNL     1       4.503  -2.052  -1.985 +0.00 +0.00    +0.003 C  
DOCKED: ENDBRANCH  12  15
DOCKED: ENDBRANCH  11  12
DOCKED: BRANCH  11  16
DOCKED: ATOM     16  O1  UNL     1       5.507   0.516  -1.728 +0.00 -0.00    -0.382 OA 
DOCKED: ATOM     17  H11 UNL     1       5.993   1.062  -2.385 +0.00 +0.00    +0.210 HD 
DOCKED: ENDBRANCH  11  16
DOCKED: ENDBRANCH   7  11
DOCKED: ENDBRANCH   6   9
DOCKED: BRANCH   6  18
DOCKED: ATOM     18  C8  UNL     1      10.758   0.649  -1.609 +0.00 +0.00    +0.034 C  
DOCKED: BRANCH  18  19
DOCKED: ATOM     19  C9  UNL     1      11.384  -0.142  -2.759 +0.00 +0.00    +0.036 C  
DOCKED: BRANCH  19  20
DOCKED: ATOM     20  C10 UNL     1      11.639  -1.607  -2.440 +0.00 +0.00    +0.213 C  
DOCKED: ATOM     21  F1  UNL     1      10.963  -1.912  -1.296 +0.00 -0.00    -0.249 F  
DOCKED: ENDBRANCH  19  20
DOCKED: ENDBRANCH  18  19
DOCKED: ENDBRANCH   6  18
DOCKED: ENDBRANCH   2   6
DOCKED: ENDBRANCH   1   4
DOCKED: BRANCH   1  22
DOCKED: ATOM     22  C13 UNL     1       8.518   0.279  -6.309 +0.00 +0.00    +0.060 C  
DOCKED: BRANCH  22  23
DOCKED: ATOM     23  C14 UNL     1       8.367  -1.102  -5.692 +0.00 -0.00    -0.046 A  
DOCKED: ATOM     24  C15 UNL     1       7.117  -1.672  -5.420 +0.00 +0.00    +0.004 A  
DOCKED: ATOM     25  C16 UNL     1       7.018  -2.930  -4.817 +0.00 +0.00    +0.000 A  
DOCKED: ATOM     26  C17 UNL     1       8.169  -3.622  -4.452 +0.00 +0.00    +0.000 A  
DOCKED: ATOM     27  C18 UNL     1       9.421  -3.056  -4.696 +0.00 +0.00    +0.000 A  
DOCKED: ATOM     28  C19 UNL     1       9.518  -1.805  -5.309 +0.00 +0.00    +0.004 A  
DOCKED: ENDBRANCH  22  23
DOCKED: ENDBRANCH   1  22
DOCKED: BRANCH   1  29
DOCKED: ATOM     29  C20 UNL     1       6.426   1.638  -5.650 +0.00 +0.00    +0.136 C  
DOCKED: BRANCH  29  30
DOCKED: ATOM     30  O4  UNL     1       5.732   1.067  -4.542 +0.00 -0.00    -0.390 OA 
DOCKED: ATOM     31  H30 UNL     1       6.185   1.373  -3.732 +0.00 +0.00    +0.210 HD 
DOCKED: ENDBRANCH  29  30
DOCKED: BRANCH  29  32
DOCKED: ATOM     32  C21 UNL     1       6.008   3.110  -5.809 +0.00 +0.00    +0.046 C  
DOCKED: BRANCH  32  33
DOCKED: ATOM     33  C22 UNL     1       6.558   4.012  -4.676 +0.00 +0.00    +0.078 C  
DOCKED: BRANCH  33  34
DOCKED: ATOM     34  C26 UNL     1       6.022   3.645  -3.283 +0.00 +0.00    +0.217 C  
DOCKED: ATOM     35  O5  UNL     1       6.425   2.685  -2.633 +0.00 -0.00    -0.275 OA 
DOCKED: ATOM     36  N3  UNL     1       4.961   4.418  -2.854 +0.00 -0.00    -0.304 N  
DOCKED: ATOM     37  H40 UNL     1       4.389   4.835  -3.580 +0.00 +0.00    +0.149 HD 
DOCKED: BRANCH  36  38
DOCKED: ATOM     38  C27 UNL     1       4.227   4.047  -1.645 +0.00 +0.00    +0.161 C  
DOCKED: BRANCH  38  39
DOCKED: ATOM     39  C28 UNL     1       3.088   3.133  -2.149 +0.00 +0.00    +0.234 C  
DOCKED: ATOM     40  O6  UNL     1       1.904   3.470  -2.083 +0.00 -0.00    -0.274 OA 
DOCKED: ATOM     41  N4  UNL     1       3.504   1.915  -2.639 +0.00 -0.00    -0.310 N  
DOCKED: ATOM     42  H42 UNL     1       4.446   1.870  -2.998 +0.00 +0.00    +0.149 HD 
DOCKED: BRANCH  41  43
DOCKED: ATOM     43  C29 UNL     1       2.558   0.983  -3.214 +0.00 +0.00    +0.139 C  
DOCKED: BRANCH  43  44
DOCKED: ATOM     44  C30 UNL     1       2.899   0.699  -4.652 +0.00 -0.00    -0.027 A  
DOCKED: ATOM     45  C31 UNL     1       2.810   1.691  -5.632 +0.00 +0.00    +0.025 A  
DOCKED: ATOM     46  C32 UNL     1       3.176   1.374  -6.932 +0.00 +0.00    +0.111 A  
DOCKED: ATOM     47  N5  UNL     1       3.613   0.158  -7.316 +0.00 -0.00    -0.263 NA 
DOCKED: ATOM     48  C33 UNL     1       3.674  -0.794  -6.359 +0.00 +0.00    +0.111 A  
DOCKED: ATOM     49  C34 UNL     1       3.337  -0.574  -5.033 +0.00 +0.00    +0.025 A  
DOCKED: ENDBRANCH  43  44
DOCKED: ENDBRANCH  41  43
DOCKED: ENDBRANCH  38  39
DOCKED: BRANCH  38  50
DOCKED: ATOM     50  C35 UNL     1       3.658   5.293  -0.927 +0.00 +0.00    +0.012 C  
DOCKED: ATOM     51  C36 UNL     1       4.649   5.852   0.095 +0.00 +0.00    +0.009 C  
DOCKED: ATOM     52  C37 UNL     1       3.294   6.401  -1.928 +0.00 +0.00    +0.009 C  
DOCKED: ENDBRANCH  38  50
DOCKED: ENDBRANCH  36  38
DOCKED: ENDBRANCH  33  34
DOCKED: BRANCH  33  53
DOCKED: ATOM     53  C23 UNL     1       6.452   5.531  -4.948 +0.00 +0.00    +0.015 C  
DOCKED: BRANCH  53  54
DOCKED: ATOM     54  C24 UNL     1       5.476   6.006  -6.034 +0.00 +0.00    +0.034 C  
DOCKED: BRANCH  54  55
DOCKED: ATOM     55  C25 UNL     1       4.025   6.089  -5.593 +0.00 +0.00    +0.213 C  
DOCKED: ATOM     56  F2  UNL     1       3.535   4.839  -5.373 +0.00 -0.00    -0.249 F  
DOCKED: ENDBRANCH  54  55
DOCKED: ENDBRANCH  53  54
DOCKED: ENDBRANCH  33  53
DOCKED: ENDBRANCH  32  33
DOCKED: ENDBRANCH  29  32
DOCKED: ENDBRANCH   1  29
DOCKED: TORSDOF 25
DOCKED: TER
DOCKED: ENDMDL
________________________________________________________________________________


    FINAL DOCKED STATE:
    ________________________


Run:   11 / 20
Time taken for this run:   2.777s

DOCKED: MODEL        11
DOCKED: USER    Run = 11
DOCKED: USER
DOCKED: USER    Estimated Free Energy of Binding    =  +7.46 kcal/mol  [=(1)+(2)+(3)-(4)]
DOCKED: USER
DOCKED: USER    (1) Final Intermolecular Energy     =  +0.00 kcal/mol
DOCKED: USER        vdW + Hbond + desolv Energy     =  +0.00 kcal/mol
DOCKED: USER        Electrostatic Energy            =  +0.00 kcal/mol
DOCKED: USER        Moving Ligand-Fixed Receptor    =  +0.00 kcal/mol
DOCKED: USER        Moving Ligand-Moving Receptor   =  +0.00 kcal/mol
DOCKED: USER    (2) Final Total Internal Energy     = -14.59 kcal/mol
DOCKED: USER    (3) Torsional Free Energy           =  +7.46 kcal/mol
DOCKED: USER    (4) Unbound System's Energy         = -14.59 kcal/mol
DOCKED: USER
DOCKED: USER
DOCKED: REMARK  Name = ligands/ligand_21.pdb
DOCKED: REMARK  29 active torsions:
DOCKED: REMARK  status: ('A' for Active; 'I' for Inactive)
DOCKED: REMARK    1  A    between atoms: C1_1  and  C2_2
DOCKED: REMARK    2  A    between atoms: C2_2  and  C3_3
DOCKED: REMARK    3  A    between atoms: C3_3  and  C4_4
DOCKED: REMARK    4  A    between atoms: C3_3  and  C5_5
DOCKED: REMARK    5  A    between atoms: C5_5  and  O1_6
DOCKED: REMARK    6  A    between atoms: C5_5  and  C6_7
DOCKED: REMARK    7  A    between atoms: N1_9  and  C7_10
DOCKED: REMARK    8  A    between atoms: C7_10  and  C8_11
DOCKED: REMARK    9  A    between atoms: C7_10  and  C11_15
DOCKED: REMARK   10  A    between atoms: C8_11  and  C9_12
DOCKED: REMARK   11  A    between atoms: C9_12  and  C10_13
DOCKED: REMARK   12  A    between atoms: N2_17  and  C12_18
DOCKED: REMARK   13  A    between atoms: C12_18  and  C13_19
DOCKED: REMARK   14  A    between atoms: C12_18  and  C20_26
DOCKED: REMARK   15  A    between atoms: C13_19  and  C14_20
DOCKED: REMARK   16  A    between atoms: C20_26  and  O4_27
DOCKED: REMARK   17  A    between atoms: C20_26  and  C21_28
DOCKED: REMARK   18  A    between atoms: C21_28  and  C22_29
DOCKED: REMARK   19  A    between atoms: C22_29  and  C23_30
DOCKED: REMARK   20  A    between atoms: C22_29  and  C26_34
DOCKED: REMARK   21  A    between atoms: C23_30  and  C24_31
DOCKED: REMARK   22  A    between atoms: C24_31  and  C25_32
DOCKED: REMARK   23  A    between atoms: N3_36  and  C27_37
DOCKED: REMARK   24  A    between atoms: C27_37  and  C28_38
DOCKED: REMARK   25  A    between atoms: C27_37  and  C35_48
DOCKED: REMARK   26  A    between atoms: N4_40  and  C29_41
DOCKED: REMARK   27  A    between atoms: C29_41  and  C30_42
DOCKED: REMARK   28  A    between atoms: C35_48  and  C36_49
DOCKED: REMARK   29  A    between atoms: C35_48  and  C37_50
DOCKED: REMARK                            x       y       z     vdW  Elec       q    Type
DOCKED: REMARK                         _______ _______ _______ _____ _____    ______ ____
DOCKED: USER                              x       y       z     vdW  Elec       q    Type
DOCKED: USER                           _______ _______ _______ _____ _____    ______ ____
DOCKED: ROOT
DOCKED: ATOM      1  C12 UNL     1       8.131  -7.367   1.735 +0.00 +0.00    +0.106 C  
DOCKED: ENDROOT
DOCKED: BRANCH   1   4
DOCKED: ATOM      2  C11 UNL     1       6.858  -6.222  -0.066 +0.00 +0.00    +0.234 C  
DOCKED: ATOM      3  O3  UNL     1       5.787  -6.652   0.361 +0.00 -0.00    -0.274 OA 
DOCKED: ATOM      4  N2  UNL     1       8.061  -6.553   0.517 +0.00 -0.00    -0.308 N  
DOCKED: ATOM      5  H20 UNL     1       8.899  -6.090   0.189 +0.00 +0.00    +0.149 HD 
DOCKED: BRANCH   2   6
DOCKED: ATOM      6  C7  UNL     1       6.987  -5.249  -1.256 +0.00 +0.00    +0.159 C  
DOCKED: BRANCH   6   9
DOCKED: ATOM      7  C6  UNL     1       9.375  -5.754  -1.752 +0.00 +0.00    +0.243 C  
DOCKED: ATOM      8  O2  UNL     1       9.126  -6.894  -2.136 +0.00 -0.00    -0.273 OA 
DOCKED: ATOM      9  N1  UNL     1       8.404  -4.879  -1.341 +0.00 -0.00    -0.302 N  
DOCKED: ATOM     10  H12 UNL     1       8.676  -3.976  -0.967 +0.00 +0.00    +0.150 HD 
DOCKED: BRANCH   7  11
DOCKED: ATOM     11  C5  UNL     1      10.820  -5.224  -1.704 +0.00 +0.00    +0.203 C  
DOCKED: BRANCH  11  12
DOCKED: ATOM     12  C3  UNL     1      11.835  -6.311  -2.118 +0.00 +0.00    +0.023 C  
DOCKED: ATOM     13  C4  UNL     1      12.049  -6.310  -3.638 +0.00 +0.00    +0.010 C  
DOCKED: BRANCH  12  15
DOCKED: ATOM     14  C1  UNL     1      13.931  -7.595  -1.220 +0.00 +0.00    +0.004 C  
DOCKED: ATOM     15  C2  UNL     1      13.191  -6.274  -1.376 +0.00 +0.00    +0.003 C  
DOCKED: ENDBRANCH  12  15
DOCKED: ENDBRANCH  11  12
DOCKED: BRANCH  11  16
DOCKED: ATOM     16  O1  UNL     1      11.127  -4.682  -0.430 +0.00 -0.00    -0.382 OA 
DOCKED: ATOM     17  H11 UNL     1      10.372  -4.916   0.155 +0.00 +0.00    +0.210 HD 
DOCKED: ENDBRANCH  11  16
DOCKED: ENDBRANCH   7  11
DOCKED: ENDBRANCH   6   9
DOCKED: BRANCH   6  18
DOCKED: ATOM     18  C8  UNL     1       6.477  -5.889  -2.552 +0.00 +0.00    +0.034 C  
DOCKED: BRANCH  18  19
DOCKED: ATOM     19  C9  UNL     1       6.165  -7.384  -2.468 +0.00 +0.00    +0.036 C  
DOCKED: BRANCH  19  20
DOCKED: ATOM     20  C10 UNL     1       6.712  -8.200  -3.630 +0.00 +0.00    +0.213 C  
DOCKED: ATOM     21  F1  UNL     1       7.463  -7.370  -4.408 +0.00 -0.00    -0.249 F  
DOCKED: ENDBRANCH  19  20
DOCKED: ENDBRANCH  18  19
DOCKED: ENDBRANCH   6  18
DOCKED: ENDBRANCH   2   6
DOCKED: ENDBRANCH   1   4
DOCKED: BRANCH   1  22
DOCKED: ATOM     22  C13 UNL     1       8.099  -8.878   1.407 +0.00 +0.00    +0.060 C  
DOCKED: BRANCH  22  23
DOCKED: ATOM     23  C14 UNL     1       8.952  -9.308   0.225 +0.00 -0.00    -0.046 A  
DOCKED: ATOM     24  C15 UNL     1      10.344  -9.152   0.206 +0.00 +0.00    +0.004 A  
DOCKED: ATOM     25  C16 UNL     1      11.092  -9.525  -0.916 +0.00 +0.00    +0.000 A  
DOCKED: ATOM     26  C17 UNL     1      10.455 -10.032  -2.044 +0.00 +0.00    +0.000 A  
DOCKED: ATOM     27  C18 UNL     1       9.066 -10.172  -2.047 +0.00 +0.00    +0.000 A  
DOCKED: ATOM     28  C19 UNL     1       8.321  -9.810  -0.922 +0.00 +0.00    +0.004 A  
DOCKED: ENDBRANCH  22  23
DOCKED: ENDBRANCH   1  22
DOCKED: BRANCH   1  29
DOCKED: ATOM     29  C20 UNL     1       9.369  -6.974   2.597 +0.00 +0.00    +0.136 C  
DOCKED: BRANCH  29  30
DOCKED: ATOM     30  O4  UNL     1      10.364  -6.378   1.767 +0.00 -0.00    -0.390 OA 
DOCKED: ATOM     31  H30 UNL     1       9.914  -5.708   1.217 +0.00 +0.00    +0.210 HD 
DOCKED: ENDBRANCH  29  30
DOCKED: BRANCH  29  32
DOCKED: ATOM     32  C21 UNL     1       9.028  -6.017   3.753 +0.00 +0.00    +0.046 C  
DOCKED: BRANCH  32  33
DOCKED: ATOM     33  C22 UNL     1       8.249  -4.764   3.279 +0.00 +0.00    +0.078 C  
DOCKED: BRANCH  33  34
DOCKED: ATOM     34  C26 UNL     1       9.043  -3.878   2.305 +0.00 +0.00    +0.217 C  
DOCKED: ATOM     35  O5  UNL     1       9.211  -4.155   1.122 +0.00 -0.00    -0.275 OA 
DOCKED: ATOM     36  N3  UNL     1       9.656  -2.788   2.890 +0.00 -0.00    -0.304 N  
DOCKED: ATOM     37  H40 UNL     1       9.882  -2.877   3.875 +0.00 +0.00    +0.149 HD 
DOCKED: BRANCH  36  38
DOCKED: ATOM     38  C27 UNL     1      10.605  -1.982   2.123 +0.00 +0.00    +0.161 C  
DOCKED: BRANCH  38  39
DOCKED: ATOM     39  C28 UNL     1      11.978  -2.639   2.394 +0.00 +0.00    +0.234 C  
DOCKED: ATOM     40  O6  UNL     1      12.863  -2.060   3.027 +0.00 -0.00    -0.274 OA 
DOCKED: ATOM     41  N4  UNL     1      12.132  -3.893   1.846 +0.00 -0.00    -0.310 N  
DOCKED: ATOM     42  H42 UNL     1      11.289  -4.425   1.688 +0.00 +0.00    +0.149 HD 
DOCKED: BRANCH  41  43
DOCKED: ATOM     43  C29 UNL     1      13.336  -4.662   2.078 +0.00 +0.00    +0.139 C  
DOCKED: BRANCH  43  44
DOCKED: ATOM     44  C30 UNL     1      13.013  -5.957   2.773 +0.00 -0.00    -0.027 A  
DOCKED: ATOM     45  C31 UNL     1      12.520  -5.979   4.080 +0.00 +0.00    +0.025 A  
DOCKED: ATOM     46  C32 UNL     1      12.206  -7.204   4.650 +0.00 +0.00    +0.111 A  
DOCKED: ATOM     47  N5  UNL     1      12.352  -8.387   4.020 +0.00 -0.00    -0.263 NA 
DOCKED: ATOM     48  C33 UNL     1      12.847  -8.348   2.763 +0.00 +0.00    +0.111 A  
DOCKED: ATOM     49  C34 UNL     1      13.185  -7.175   2.106 +0.00 +0.00    +0.025 A  
DOCKED: ENDBRANCH  43  44
DOCKED: ENDBRANCH  41  43
DOCKED: ENDBRANCH  38  39
DOCKED: BRANCH  38  50
DOCKED: ATOM     50  C35 UNL     1      10.597  -0.508   2.588 +0.00 +0.00    +0.012 C  
DOCKED: ATOM     51  C36 UNL     1       9.517   0.301   1.867 +0.00 +0.00    +0.009 C  
DOCKED: ATOM     52  C37 UNL     1      10.375  -0.398   4.104 +0.00 +0.00    +0.009 C  
DOCKED: ENDBRANCH  38  50
DOCKED: ENDBRANCH  36  38
DOCKED: ENDBRANCH  33  34
DOCKED: BRANCH  33  53
DOCKED: ATOM     53  C23 UNL     1       7.606  -3.933   4.414 +0.00 +0.00    +0.015 C  
DOCKED: BRANCH  53  54
DOCKED: ATOM     54  C24 UNL     1       8.127  -4.135   5.843 +0.00 +0.00    +0.034 C  
DOCKED: BRANCH  54  55
DOCKED: ATOM     55  C25 UNL     1       9.409  -3.385   6.165 +0.00 +0.00    +0.213 C  
DOCKED: ATOM     56  F2  UNL     1      10.449  -3.930   5.479 +0.00 -0.00    -0.249 F  
DOCKED: ENDBRANCH  54  55
DOCKED: ENDBRANCH  53  54
DOCKED: ENDBRANCH  33  53
DOCKED: ENDBRANCH  32  33
DOCKED: ENDBRANCH  29  32
DOCKED: ENDBRANCH   1  29
DOCKED: TORSDOF 25
DOCKED: TER
DOCKED: ENDMDL
________________________________________________________________________________


    FINAL DOCKED STATE:
    ________________________


Run:   12 / 20
Time taken for this run:   2.777s

DOCKED: MODEL        12
DOCKED: USER    Run = 12
DOCKED: USER
DOCKED: USER    Estimated Free Energy of Binding    =  +7.46 kcal/mol  [=(1)+(2)+(3)-(4)]
DOCKED: USER
DOCKED: USER    (1) Final Intermolecular Energy     =  +0.00 kcal/mol
DOCKED: USER        vdW + Hbond + desolv Energy     =  +0.00 kcal/mol
DOCKED: USER        Electrostatic Energy            =  +0.00 kcal/mol
DOCKED: USER        Moving Ligand-Fixed Receptor    =  +0.00 kcal/mol
DOCKED: USER        Moving Ligand-Moving Receptor   =  +0.00 kcal/mol
DOCKED: USER    (2) Final Total Internal Energy     = -14.61 kcal/mol
DOCKED: USER    (3) Torsional Free Energy           =  +7.46 kcal/mol
DOCKED: USER    (4) Unbound System's Energy         = -14.61 kcal/mol
DOCKED: USER
DOCKED: USER
DOCKED: REMARK  Name = ligands/ligand_21.pdb
DOCKED: REMARK  29 active torsions:
DOCKED: REMARK  status: ('A' for Active; 'I' for Inactive)
DOCKED: REMARK    1  A    between atoms: C1_1  and  C2_2
DOCKED: REMARK    2  A    between atoms: C2_2  and  C3_3
DOCKED: REMARK    3  A    between atoms: C3_3  and  C4_4
DOCKED: REMARK    4  A    between atoms: C3_3  and  C5_5
DOCKED: REMARK    5  A    between atoms: C5_5  and  O1_6
DOCKED: REMARK    6  A    between atoms: C5_5  and  C6_7
DOCKED: REMARK    7  A    between atoms: N1_9  and  C7_10
DOCKED: REMARK    8  A    between atoms: C7_10  and  C8_11
DOCKED: REMARK    9  A    between atoms: C7_10  and  C11_15
DOCKED: REMARK   10  A    between atoms: C8_11  and  C9_12
DOCKED: REMARK   11  A    between atoms: C9_12  and  C10_13
DOCKED: REMARK   12  A    between atoms: N2_17  and  C12_18
DOCKED: REMARK   13  A    between atoms: C12_18  and  C13_19
DOCKED: REMARK   14  A    between atoms: C12_18  and  C20_26
DOCKED: REMARK   15  A    between atoms: C13_19  and  C14_20
DOCKED: REMARK   16  A    between atoms: C20_26  and  O4_27
DOCKED: REMARK   17  A    between atoms: C20_26  and  C21_28
DOCKED: REMARK   18  A    between atoms: C21_28  and  C22_29
DOCKED: REMARK   19  A    between atoms: C22_29  and  C23_30
DOCKED: REMARK   20  A    between atoms: C22_29  and  C26_34
DOCKED: REMARK   21  A    between atoms: C23_30  and  C24_31
DOCKED: REMARK   22  A    between atoms: C24_31  and  C25_32
DOCKED: REMARK   23  A    between atoms: N3_36  and  C27_37
DOCKED: REMARK   24  A    between atoms: C27_37  and  C28_38
DOCKED: REMARK   25  A    between atoms: C27_37  and  C35_48
DOCKED: REMARK   26  A    between atoms: N4_40  and  C29_41
DOCKED: REMARK   27  A    between atoms: C29_41  and  C30_42
DOCKED: REMARK   28  A    between atoms: C35_48  and  C36_49
DOCKED: REMARK   29  A    between atoms: C35_48  and  C37_50
DOCKED: REMARK                            x       y       z     vdW  Elec       q    Type
DOCKED: REMARK                         _______ _______ _______ _____ _____    ______ ____
DOCKED: USER                              x       y       z     vdW  Elec       q    Type
DOCKED: USER                           _______ _______ _______ _____ _____    ______ ____
DOCKED: ROOT
DOCKED: ATOM      1  C12 UNL     1       6.725   0.966   3.194 +0.00 +0.00    +0.106 C  
DOCKED: ENDROOT
DOCKED: BRANCH   1   4
DOCKED: ATOM      2  C11 UNL     1       5.708  -1.052   2.160 +0.00 +0.00    +0.234 C  
DOCKED: ATOM      3  O3  UNL     1       4.702  -0.426   1.830 +0.00 -0.00    -0.274 OA 
DOCKED: ATOM      4  N2  UNL     1       6.733  -0.464   2.869 +0.00 -0.00    -0.308 N  
DOCKED: ATOM      5  H20 UNL     1       7.579  -0.997   3.023 +0.00 +0.00    +0.149 HD 
DOCKED: BRANCH   2   6
DOCKED: ATOM      6  C7  UNL     1       5.964  -2.530   1.801 +0.00 +0.00    +0.159 C  
DOCKED: BRANCH   6   9
DOCKED: ATOM      7  C6  UNL     1       7.676  -2.936   3.563 +0.00 +0.00    +0.243 C  
DOCKED: ATOM      8  O2  UNL     1       6.859  -2.834   4.477 +0.00 -0.00    -0.273 OA 
DOCKED: ATOM      9  N1  UNL     1       7.329  -2.836   2.242 +0.00 -0.00    -0.302 N  
DOCKED: ATOM     10  H12 UNL     1       8.057  -2.857   1.535 +0.00 +0.00    +0.150 HD 
DOCKED: BRANCH   7  11
DOCKED: ATOM     11  C5  UNL     1       9.169  -3.183   3.849 +0.00 +0.00    +0.203 C  
DOCKED: BRANCH  11  12
DOCKED: ATOM     12  C3  UNL     1       9.455  -3.222   5.366 +0.00 +0.00    +0.023 C  
DOCKED: ATOM     13  C4  UNL     1       9.247  -4.636   5.926 +0.00 +0.00    +0.010 C  
DOCKED: BRANCH  12  15
DOCKED: ATOM     14  C1  UNL     1      10.915  -2.036   7.185 +0.00 +0.00    +0.004 C  
DOCKED: ATOM     15  C2  UNL     1      10.829  -2.660   5.799 +0.00 +0.00    +0.003 C  
DOCKED: ENDBRANCH  12  15
DOCKED: ENDBRANCH  11  12
DOCKED: BRANCH  11  16
DOCKED: ATOM     16  O1  UNL     1       9.984  -2.229   3.189 +0.00 -0.00    -0.382 OA 
DOCKED: ATOM     17  H11 UNL     1       9.369  -1.562   2.808 +0.00 +0.00    +0.210 HD 
DOCKED: ENDBRANCH  11  16
DOCKED: ENDBRANCH   7  11
DOCKED: ENDBRANCH   6   9
DOCKED: BRANCH   6  18
DOCKED: ATOM     18  C8  UNL     1       4.925  -3.447   2.454 +0.00 +0.00    +0.034 C  
DOCKED: BRANCH  18  19
DOCKED: ATOM     19  C9  UNL     1       4.023  -2.781   3.494 +0.00 +0.00    +0.036 C  
DOCKED: BRANCH  19  20
DOCKED: ATOM     20  C10 UNL     1       3.822  -3.602   4.760 +0.00 +0.00    +0.213 C  
DOCKED: ATOM     21  F1  UNL     1       4.729  -4.619   4.749 +0.00 -0.00    -0.249 F  
DOCKED: ENDBRANCH  19  20
DOCKED: ENDBRANCH  18  19
DOCKED: ENDBRANCH   6  18
DOCKED: ENDBRANCH   2   6
DOCKED: ENDBRANCH   1   4
DOCKED: BRANCH   1  22
DOCKED: ATOM     22  C13 UNL     1       5.952   1.243   4.505 +0.00 +0.00    +0.060 C  
DOCKED: BRANCH  22  23
DOCKED: ATOM     23  C14 UNL     1       6.214   0.263   5.636 +0.00 -0.00    -0.046 A  
DOCKED: ATOM     24  C15 UNL     1       7.476   0.118   6.228 +0.00 +0.00    +0.004 A  
DOCKED: ATOM     25  C16 UNL     1       7.688  -0.822   7.242 +0.00 +0.00    +0.000 A  
DOCKED: ATOM     26  C17 UNL     1       6.648  -1.647   7.660 +0.00 +0.00    +0.000 A  
DOCKED: ATOM     27  C18 UNL     1       5.392  -1.528   7.063 +0.00 +0.00    +0.000 A  
DOCKED: ATOM     28  C19 UNL     1       5.178  -0.582   6.059 +0.00 +0.00    +0.004 A  
DOCKED: ENDBRANCH  22  23
DOCKED: ENDBRANCH   1  22
DOCKED: BRANCH   1  29
DOCKED: ATOM     29  C20 UNL     1       8.175   1.536   3.230 +0.00 +0.00    +0.136 C  
DOCKED: BRANCH  29  30
DOCKED: ATOM     30  O4  UNL     1       9.101   0.483   3.495 +0.00 -0.00    -0.390 OA 
DOCKED: ATOM     31  H30 UNL     1       8.861  -0.262   2.911 +0.00 +0.00    +0.210 HD 
DOCKED: ENDBRANCH  29  30
DOCKED: BRANCH  29  32
DOCKED: ATOM     32  C21 UNL     1       8.580   2.256   1.931 +0.00 +0.00    +0.046 C  
DOCKED: BRANCH  32  33
DOCKED: ATOM     33  C22 UNL     1       8.348   1.385   0.670 +0.00 +0.00    +0.078 C  
DOCKED: BRANCH  33  34
DOCKED: ATOM     34  C26 UNL     1       9.188   0.098   0.649 +0.00 +0.00    +0.217 C  
DOCKED: ATOM     35  O5  UNL     1       8.929  -0.891   1.327 +0.00 -0.00    -0.275 OA 
DOCKED: ATOM     36  N3  UNL     1      10.335   0.173  -0.117 +0.00 -0.00    -0.304 N  
DOCKED: ATOM     37  H40 UNL     1      10.729   1.099  -0.242 +0.00 +0.00    +0.149 HD 
DOCKED: BRANCH  36  38
DOCKED: ATOM     38  C27 UNL     1      11.324  -0.902  -0.062 +0.00 +0.00    +0.161 C  
DOCKED: BRANCH  38  39
DOCKED: ATOM     39  C28 UNL     1      12.292  -0.480   1.066 +0.00 +0.00    +0.234 C  
DOCKED: ATOM     40  O6  UNL     1      13.465  -0.176   0.839 +0.00 -0.00    -0.274 OA 
DOCKED: ATOM     41  N4  UNL     1      11.747  -0.506   2.330 +0.00 -0.00    -0.310 N  
DOCKED: ATOM     42  H42 UNL     1      10.745  -0.393   2.393 +0.00 +0.00    +0.149 HD 
DOCKED: BRANCH  41  43
DOCKED: ATOM     43  C29 UNL     1      12.509  -0.065   3.478 +0.00 +0.00    +0.139 C  
DOCKED: BRANCH  43  44
DOCKED: ATOM     44  C30 UNL     1      11.822   1.084   4.165 +0.00 -0.00    -0.027 A  
DOCKED: ATOM     45  C31 UNL     1      11.695   2.331   3.547 +0.00 +0.00    +0.025 A  
DOCKED: ATOM     46  C32 UNL     1      11.017   3.338   4.218 +0.00 +0.00    +0.111 A  
DOCKED: ATOM     47  N5  UNL     1      10.469   3.191   5.442 +0.00 -0.00    -0.263 NA 
DOCKED: ATOM     48  C33 UNL     1      10.619   1.984   6.031 +0.00 +0.00    +0.111 A  
DOCKED: ATOM     49  C34 UNL     1      11.273   0.915   5.440 +0.00 +0.00    +0.025 A  
DOCKED: ENDBRANCH  43  44
DOCKED: ENDBRANCH  41  43
DOCKED: ENDBRANCH  38  39
DOCKED: BRANCH  38  50
DOCKED: ATOM     50  C35 UNL     1      12.073  -1.048  -1.407 +0.00 +0.00    +0.012 C  
DOCKED: ATOM     51  C36 UNL     1      11.361  -2.028  -2.341 +0.00 +0.00    +0.009 C  
DOCKED: ATOM     52  C37 UNL     1      12.218   0.306  -2.119 +0.00 +0.00    +0.009 C  
DOCKED: ENDBRANCH  38  50
DOCKED: ENDBRANCH  36  38
DOCKED: ENDBRANCH  33  34
DOCKED: BRANCH  33  53
DOCKED: ATOM     53  C23 UNL     1       8.439   2.150  -0.671 +0.00 +0.00    +0.015 C  
DOCKED: BRANCH  53  54
DOCKED: ATOM     54  C24 UNL     1       9.146   3.513  -0.680 +0.00 +0.00    +0.034 C  
DOCKED: BRANCH  54  55
DOCKED: ATOM     55  C25 UNL     1      10.663   3.442  -0.733 +0.00 +0.00    +0.213 C  
DOCKED: ATOM     56  F2  UNL     1      11.144   2.932   0.433 +0.00 -0.00    -0.249 F  
DOCKED: ENDBRANCH  54  55
DOCKED: ENDBRANCH  53  54
DOCKED: ENDBRANCH  33  53
DOCKED: ENDBRANCH  32  33
DOCKED: ENDBRANCH  29  32
DOCKED: ENDBRANCH   1  29
DOCKED: TORSDOF 25
DOCKED: TER
DOCKED: ENDMDL
________________________________________________________________________________


    FINAL DOCKED STATE:
    ________________________


Run:   13 / 20
Time taken for this run:   2.777s

DOCKED: MODEL        13
DOCKED: USER    Run = 13
DOCKED: USER
DOCKED: USER    Estimated Free Energy of Binding    =  +7.46 kcal/mol  [=(1)+(2)+(3)-(4)]
DOCKED: USER
DOCKED: USER    (1) Final Intermolecular Energy     =  +0.00 kcal/mol
DOCKED: USER        vdW + Hbond + desolv Energy     =  +0.00 kcal/mol
DOCKED: USER        Electrostatic Energy            =  +0.00 kcal/mol
DOCKED: USER        Moving Ligand-Fixed Receptor    =  +0.00 kcal/mol
DOCKED: USER        Moving Ligand-Moving Receptor   =  +0.00 kcal/mol
DOCKED: USER    (2) Final Total Internal Energy     = -14.58 kcal/mol
DOCKED: USER    (3) Torsional Free Energy           =  +7.46 kcal/mol
DOCKED: USER    (4) Unbound System's Energy         = -14.58 kcal/mol
DOCKED: USER
DOCKED: USER
DOCKED: REMARK  Name = ligands/ligand_21.pdb
DOCKED: REMARK  29 active torsions:
DOCKED: REMARK  status: ('A' for Active; 'I' for Inactive)
DOCKED: REMARK    1  A    between atoms: C1_1  and  C2_2
DOCKED: REMARK    2  A    between atoms: C2_2  and  C3_3
DOCKED: REMARK    3  A    between atoms: C3_3  and  C4_4
DOCKED: REMARK    4  A    between atoms: C3_3  and  C5_5
DOCKED: REMARK    5  A    between atoms: C5_5  and  O1_6
DOCKED: REMARK    6  A    between atoms: C5_5  and  C6_7
DOCKED: REMARK    7  A    between atoms: N1_9  and  C7_10
DOCKED: REMARK    8  A    between atoms: C7_10  and  C8_11
DOCKED: REMARK    9  A    between atoms: C7_10  and  C11_15
DOCKED: REMARK   10  A    between atoms: C8_11  and  C9_12
DOCKED: REMARK   11  A    between atoms: C9_12  and  C10_13
DOCKED: REMARK   12  A    between atoms: N2_17  and  C12_18
DOCKED: REMARK   13  A    between atoms: C12_18  and  C13_19
DOCKED: REMARK   14  A    between atoms: C12_18  and  C20_26
DOCKED: REMARK   15  A    between atoms: C13_19  and  C14_20
DOCKED: REMARK   16  A    between atoms: C20_26  and  O4_27
DOCKED: REMARK   17  A    between atoms: C20_26  and  C21_28
DOCKED: REMARK   18  A    between atoms: C21_28  and  C22_29
DOCKED: REMARK   19  A    between atoms: C22_29  and  C23_30
DOCKED: REMARK   20  A    between atoms: C22_29  and  C26_34
DOCKED: REMARK   21  A    between atoms: C23_30  and  C24_31
DOCKED: REMARK   22  A    between atoms: C24_31  and  C25_32
DOCKED: REMARK   23  A    between atoms: N3_36  and  C27_37
DOCKED: REMARK   24  A    between atoms: C27_37  and  C28_38
DOCKED: REMARK   25  A    between atoms: C27_37  and  C35_48
DOCKED: REMARK   26  A    between atoms: N4_40  and  C29_41
DOCKED: REMARK   27  A    between atoms: C29_41  and  C30_42
DOCKED: REMARK   28  A    between atoms: C35_48  and  C36_49
DOCKED: REMARK   29  A    between atoms: C35_48  and  C37_50
DOCKED: REMARK                            x       y       z     vdW  Elec       q    Type
DOCKED: REMARK                         _______ _______ _______ _____ _____    ______ ____
DOCKED: USER                              x       y       z     vdW  Elec       q    Type
DOCKED: USER                           _______ _______ _______ _____ _____    ______ ____
DOCKED: ROOT
DOCKED: ATOM      1  C12 UNL     1      15.254  -7.421   7.363 +0.00 +0.00    +0.106 C  
DOCKED: ENDROOT
DOCKED: BRANCH   1   4
DOCKED: ATOM      2  C11 UNL     1      16.211  -7.226   5.077 +0.00 +0.00    +0.234 C  
DOCKED: ATOM      3  O3  UNL     1      17.345  -7.051   5.523 +0.00 -0.00    -0.274 OA 
DOCKED: ATOM      4  N2  UNL     1      15.118  -7.374   5.903 +0.00 -0.00    -0.308 N  
DOCKED: ATOM      5  H20 UNL     1      14.229  -7.618   5.486 +0.00 +0.00    +0.149 HD 
DOCKED: BRANCH   2   6
DOCKED: ATOM      6  C7  UNL     1      15.879  -7.337   3.576 +0.00 +0.00    +0.159 C  
DOCKED: BRANCH   6   9
DOCKED: ATOM      7  C6  UNL     1      13.462  -6.781   3.801 +0.00 +0.00    +0.243 C  
DOCKED: ATOM      8  O2  UNL     1      13.689  -5.617   4.125 +0.00 -0.00    -0.273 OA 
DOCKED: ATOM      9  N1  UNL     1      14.454  -7.673   3.486 +0.00 -0.00    -0.302 N  
DOCKED: ATOM     10  H12 UNL     1      14.211  -8.639   3.296 +0.00 +0.00    +0.150 HD 
DOCKED: BRANCH   7  11
DOCKED: ATOM     11  C5  UNL     1      12.024  -7.325   3.729 +0.00 +0.00    +0.203 C  
DOCKED: BRANCH  11  12
DOCKED: ATOM     12  C3  UNL     1      10.991  -6.249   4.131 +0.00 +0.00    +0.023 C  
DOCKED: ATOM     13  C4  UNL     1      10.585  -5.401   2.918 +0.00 +0.00    +0.010 C  
DOCKED: BRANCH  12  15
DOCKED: ATOM     14  C1  UNL     1       9.105  -5.839   5.897 +0.00 +0.00    +0.004 C  
DOCKED: ATOM     15  C2  UNL     1       9.741  -6.771   4.876 +0.00 +0.00    +0.003 C  
DOCKED: ENDBRANCH  12  15
DOCKED: ENDBRANCH  11  12
DOCKED: BRANCH  11  16
DOCKED: ATOM     16  O1  UNL     1      11.879  -8.503   4.506 +0.00 -0.00    -0.382 OA 
DOCKED: ATOM     17  H11 UNL     1      12.731  -8.620   4.983 +0.00 +0.00    +0.210 HD 
DOCKED: ENDBRANCH  11  16
DOCKED: ENDBRANCH   7  11
DOCKED: ENDBRANCH   6   9
DOCKED: BRANCH   6  18
DOCKED: ATOM     18  C8  UNL     1      16.216  -6.037   2.836 +0.00 +0.00    +0.034 C  
DOCKED: BRANCH  18  19
DOCKED: ATOM     19  C9  UNL     1      16.574  -4.848   3.729 +0.00 +0.00    +0.036 C  
DOCKED: BRANCH  19  20
DOCKED: ATOM     20  C10 UNL     1      15.948  -3.531   3.292 +0.00 +0.00    +0.213 C  
DOCKED: ATOM     21  F1  UNL     1      14.947  -3.815   2.411 +0.00 -0.00    -0.249 F  
DOCKED: ENDBRANCH  19  20
DOCKED: ENDBRANCH  18  19
DOCKED: ENDBRANCH   6  18
DOCKED: ENDBRANCH   2   6
DOCKED: ENDBRANCH   1   4
DOCKED: BRANCH   1  22
DOCKED: ATOM     22  C13 UNL     1      15.282  -6.000   7.973 +0.00 +0.00    +0.060 C  
DOCKED: BRANCH  22  23
DOCKED: ATOM     23  C14 UNL     1      14.294  -5.013   7.375 +0.00 -0.00    -0.046 A  
DOCKED: ATOM     24  C15 UNL     1      12.908  -5.208   7.434 +0.00 +0.00    +0.004 A  
DOCKED: ATOM     25  C16 UNL     1      12.030  -4.295   6.839 +0.00 +0.00    +0.000 A  
DOCKED: ATOM     26  C17 UNL     1      12.528  -3.191   6.153 +0.00 +0.00    +0.000 A  
DOCKED: ATOM     27  C18 UNL     1      13.907  -2.998   6.068 +0.00 +0.00    +0.000 A  
DOCKED: ATOM     28  C19 UNL     1      14.783  -3.903   6.672 +0.00 +0.00    +0.004 A  
DOCKED: ENDBRANCH  22  23
DOCKED: ENDBRANCH   1  22
DOCKED: BRANCH   1  29
DOCKED: ATOM     29  C20 UNL     1      14.146  -8.316   7.996 +0.00 +0.00    +0.136 C  
DOCKED: BRANCH  29  30
DOCKED: ATOM     30  O4  UNL     1      13.016  -8.372   7.126 +0.00 -0.00    -0.390 OA 
DOCKED: ATOM     31  H30 UNL     1      13.355  -8.557   6.229 +0.00 +0.00    +0.210 HD 
DOCKED: ENDBRANCH  29  30
DOCKED: BRANCH  29  32
DOCKED: ATOM     32  C21 UNL     1      14.622  -9.746   8.307 +0.00 +0.00    +0.046 C  
DOCKED: BRANCH  32  33
DOCKED: ATOM     33  C22 UNL     1      15.266 -10.440   7.081 +0.00 +0.00    +0.078 C  
DOCKED: BRANCH  33  34
DOCKED: ATOM     34  C26 UNL     1      14.293 -10.644   5.908 +0.00 +0.00    +0.217 C  
DOCKED: ATOM     35  O5  UNL     1      13.967  -9.748   5.135 +0.00 -0.00    -0.275 OA 
DOCKED: ATOM     36  N3  UNL     1      13.718 -11.898   5.850 +0.00 -0.00    -0.304 N  
DOCKED: ATOM     37  H40 UNL     1      13.644 -12.397   6.730 +0.00 +0.00    +0.149 HD 
DOCKED: BRANCH  36  38
DOCKED: ATOM     38  C27 UNL     1      12.627 -12.161   4.913 +0.00 +0.00    +0.161 C  
DOCKED: BRANCH  38  39
DOCKED: ATOM     39  C28 UNL     1      11.344 -11.838   5.713 +0.00 +0.00    +0.234 C  
DOCKED: ATOM     40  O6  UNL     1      10.545 -12.715   6.044 +0.00 -0.00    -0.274 OA 
DOCKED: ATOM     41  N4  UNL     1      11.160 -10.501   5.986 +0.00 -0.00    -0.310 N  
DOCKED: ATOM     42  H42 UNL     1      11.991  -9.928   6.023 +0.00 +0.00    +0.149 HD 
DOCKED: BRANCH  41  43
DOCKED: ATOM     43  C29 UNL     1      10.043 -10.053   6.791 +0.00 +0.00    +0.139 C  
DOCKED: BRANCH  43  44
DOCKED: ATOM     44  C30 UNL     1      10.528  -9.402   8.058 +0.00 -0.00    -0.027 A  
DOCKED: ATOM     45  C31 UNL     1      11.207 -10.131   9.038 +0.00 +0.00    +0.025 A  
DOCKED: ATOM     46  C32 UNL     1      11.660  -9.463  10.166 +0.00 +0.00    +0.111 A  
DOCKED: ATOM     47  N5  UNL     1      11.484  -8.143  10.382 +0.00 -0.00    -0.263 NA 
DOCKED: ATOM     48  C33 UNL     1      10.808  -7.459   9.432 +0.00 +0.00    +0.111 A  
DOCKED: ATOM     49  C34 UNL     1      10.322  -8.035   8.269 +0.00 +0.00    +0.025 A  
DOCKED: ENDBRANCH  43  44
DOCKED: ENDBRANCH  41  43
DOCKED: ENDBRANCH  38  39
DOCKED: BRANCH  38  50
DOCKED: ATOM     50  C35 UNL     1      12.629 -13.634   4.444 +0.00 +0.00    +0.012 C  
DOCKED: ATOM     51  C36 UNL     1      13.498 -13.826   3.200 +0.00 +0.00    +0.009 C  
DOCKED: ATOM     52  C37 UNL     1      13.127 -14.575   5.552 +0.00 +0.00    +0.009 C  
DOCKED: ENDBRANCH  38  50
DOCKED: ENDBRANCH  36  38
DOCKED: ENDBRANCH  33  34
DOCKED: BRANCH  33  53
DOCKED: ATOM     53  C23 UNL     1      16.049 -11.734   7.405 +0.00 +0.00    +0.015 C  
DOCKED: BRANCH  53  54
DOCKED: ATOM     54  C24 UNL     1      15.784 -12.422   8.752 +0.00 +0.00    +0.034 C  
DOCKED: BRANCH  54  55
DOCKED: ATOM     55  C25 UNL     1      14.542 -13.296   8.786 +0.00 +0.00    +0.213 C  
DOCKED: ATOM     56  F2  UNL     1      13.427 -12.519   8.710 +0.00 -0.00    -0.249 F  
DOCKED: ENDBRANCH  54  55
DOCKED: ENDBRANCH  53  54
DOCKED: ENDBRANCH  33  53
DOCKED: ENDBRANCH  32  33
DOCKED: ENDBRANCH  29  32
DOCKED: ENDBRANCH   1  29
DOCKED: TORSDOF 25
DOCKED: TER
DOCKED: ENDMDL
________________________________________________________________________________


    FINAL DOCKED STATE:
    ________________________


Run:   14 / 20
Time taken for this run:   2.777s

DOCKED: MODEL        14
DOCKED: USER    Run = 14
DOCKED: USER
DOCKED: USER    Estimated Free Energy of Binding    =  +7.46 kcal/mol  [=(1)+(2)+(3)-(4)]
DOCKED: USER
DOCKED: USER    (1) Final Intermolecular Energy     =  +0.00 kcal/mol
DOCKED: USER        vdW + Hbond + desolv Energy     =  +0.00 kcal/mol
DOCKED: USER        Electrostatic Energy            =  +0.00 kcal/mol
DOCKED: USER        Moving Ligand-Fixed Receptor    =  +0.00 kcal/mol
DOCKED: USER        Moving Ligand-Moving Receptor   =  +0.00 kcal/mol
DOCKED: USER    (2) Final Total Internal Energy     = -14.60 kcal/mol
DOCKED: USER    (3) Torsional Free Energy           =  +7.46 kcal/mol
DOCKED: USER    (4) Unbound System's Energy         = -14.60 kcal/mol
DOCKED: USER
DOCKED: USER
DOCKED: REMARK  Name = ligands/ligand_21.pdb
DOCKED: REMARK  29 active torsions:
DOCKED: REMARK  status: ('A' for Active; 'I' for Inactive)
DOCKED: REMARK    1  A    between atoms: C1_1  and  C2_2
DOCKED: REMARK    2  A    between atoms: C2_2  and  C3_3
DOCKED: REMARK    3  A    between atoms: C3_3  and  C4_4
DOCKED: REMARK    4  A    between atoms: C3_3  and  C5_5
DOCKED: REMARK    5  A    between atoms: C5_5  and  O1_6
DOCKED: REMARK    6  A    between atoms: C5_5  and  C6_7
DOCKED: REMARK    7  A    between atoms: N1_9  and  C7_10
DOCKED: REMARK    8  A    between atoms: C7_10  and  C8_11
DOCKED: REMARK    9  A    between atoms: C7_10  and  C11_15
DOCKED: REMARK   10  A    between atoms: C8_11  and  C9_12
DOCKED: REMARK   11  A    between atoms: C9_12  and  C10_13
DOCKED: REMARK   12  A    between atoms: N2_17  and  C12_18
DOCKED: REMARK   13  A    between atoms: C12_18  and  C13_19
DOCKED: REMARK   14  A    between atoms: C12_18  and  C20_26
DOCKED: REMARK   15  A    between atoms: C13_19  and  C14_20
DOCKED: REMARK   16  A    between atoms: C20_26  and  O4_27
DOCKED: REMARK   17  A    between atoms: C20_26  and  C21_28
DOCKED: REMARK   18  A    between atoms: C21_28  and  C22_29
DOCKED: REMARK   19  A    between atoms: C22_29  and  C23_30
DOCKED: REMARK   20  A    between atoms: C22_29  and  C26_34
DOCKED: REMARK   21  A    between atoms: C23_30  and  C24_31
DOCKED: REMARK   22  A    between atoms: C24_31  and  C25_32
DOCKED: REMARK   23  A    between atoms: N3_36  and  C27_37
DOCKED: REMARK   24  A    between atoms: C27_37  and  C28_38
DOCKED: REMARK   25  A    between atoms: C27_37  and  C35_48
DOCKED: REMARK   26  A    between atoms: N4_40  and  C29_41
DOCKED: REMARK   27  A    between atoms: C29_41  and  C30_42
DOCKED: REMARK   28  A    between atoms: C35_48  and  C36_49
DOCKED: REMARK   29  A    between atoms: C35_48  and  C37_50
DOCKED: REMARK                            x       y       z     vdW  Elec       q    Type
DOCKED: REMARK                         _______ _______ _______ _____ _____    ______ ____
DOCKED: USER                              x       y       z     vdW  Elec       q    Type
DOCKED: USER                           _______ _______ _______ _____ _____    ______ ____
DOCKED: ROOT
DOCKED: ATOM      1  C12 UNL     1      10.955  -1.427   3.257 +0.00 +0.00    +0.106 C  
DOCKED: ENDROOT
DOCKED: BRANCH   1   4
DOCKED: ATOM      2  C11 UNL     1      12.754   0.235   3.674 +0.00 +0.00    +0.234 C  
DOCKED: ATOM      3  O3  UNL     1      11.986   1.177   3.478 +0.00 -0.00    -0.274 OA 
DOCKED: ATOM      4  N2  UNL     1      12.348  -1.075   3.547 +0.00 -0.00    -0.308 N  
DOCKED: ATOM      5  H20 UNL     1      12.992  -1.807   3.821 +0.00 +0.00    +0.149 HD 
DOCKED: BRANCH   2   6
DOCKED: ATOM      6  C7  UNL     1      14.223   0.395   4.115 +0.00 +0.00    +0.159 C  
DOCKED: BRANCH   6   9
DOCKED: ATOM      7  C6  UNL     1      14.960  -1.865   3.373 +0.00 +0.00    +0.243 C  
DOCKED: ATOM      8  O2  UNL     1      14.813  -1.598   2.182 +0.00 -0.00    -0.273 OA 
DOCKED: ATOM      9  N1  UNL     1      14.731  -0.956   4.372 +0.00 -0.00    -0.302 N  
DOCKED: ATOM     10  H12 UNL     1      14.801  -1.255   5.339 +0.00 +0.00    +0.150 HD 
DOCKED: BRANCH   7  11
DOCKED: ATOM     11  C5  UNL     1      15.416  -3.264   3.828 +0.00 +0.00    +0.203 C  
DOCKED: BRANCH  11  12
DOCKED: ATOM     12  C3  UNL     1      15.597  -4.218   2.627 +0.00 +0.00    +0.023 C  
DOCKED: ATOM     13  C4  UNL     1      17.014  -4.107   2.048 +0.00 +0.00    +0.010 C  
DOCKED: BRANCH  12  15
DOCKED: ATOM     14  C1  UNL     1      14.731  -6.507   1.703 +0.00 +0.00    +0.004 C  
DOCKED: ATOM     15  C2  UNL     1      15.229  -5.696   2.891 +0.00 +0.00    +0.003 C  
DOCKED: ENDBRANCH  12  15
DOCKED: ENDBRANCH  11  12
DOCKED: BRANCH  11  16
DOCKED: ATOM     16  O1  UNL     1      14.531  -3.803   4.795 +0.00 -0.00    -0.382 OA 
DOCKED: ATOM     17  H11 UNL     1      13.766  -3.187   4.839 +0.00 +0.00    +0.210 HD 
DOCKED: ENDBRANCH  11  16
DOCKED: ENDBRANCH   7  11
DOCKED: ENDBRANCH   6   9
DOCKED: BRANCH   6  18
DOCKED: ATOM     18  C8  UNL     1      15.044   1.129   3.048 +0.00 +0.00    +0.034 C  
DOCKED: BRANCH  18  19
DOCKED: ATOM     19  C9  UNL     1      14.348   1.321   1.700 +0.00 +0.00    +0.036 C  
DOCKED: BRANCH  19  20
DOCKED: ATOM     20  C10 UNL     1      15.241   1.057   0.496 +0.00 +0.00    +0.213 C  
DOCKED: ATOM     21  F1  UNL     1      16.325   0.349   0.924 +0.00 -0.00    -0.249 F  
DOCKED: ENDBRANCH  19  20
DOCKED: ENDBRANCH  18  19
DOCKED: ENDBRANCH   6  18
DOCKED: ENDBRANCH   2   6
DOCKED: ENDBRANCH   1   4
DOCKED: BRANCH   1  22
DOCKED: ATOM     22  C13 UNL     1      10.671  -1.403   1.737 +0.00 +0.00    +0.060 C  
DOCKED: BRANCH  22  23
DOCKED: ATOM     23  C14 UNL     1      11.754  -2.011   0.861 +0.00 -0.00    -0.046 A  
DOCKED: ATOM     24  C15 UNL     1      12.110  -3.364   0.935 +0.00 +0.00    +0.004 A  
DOCKED: ATOM     25  C16 UNL     1      13.138  -3.880   0.139 +0.00 +0.00    +0.000 A  
DOCKED: ATOM     26  C17 UNL     1      13.843  -3.042  -0.721 +0.00 +0.00    +0.000 A  
DOCKED: ATOM     27  C18 UNL     1      13.515  -1.687  -0.787 +0.00 +0.00    +0.000 A  
DOCKED: ATOM     28  C19 UNL     1      12.480  -1.176  -0.001 +0.00 +0.00    +0.004 A  
DOCKED: ENDBRANCH  22  23
DOCKED: ENDBRANCH   1  22
DOCKED: BRANCH   1  29
DOCKED: ATOM     29  C20 UNL     1      10.579  -2.792   3.909 +0.00 +0.00    +0.136 C  
DOCKED: BRANCH  29  30
DOCKED: ATOM     30  O4  UNL     1      11.757  -3.573   4.105 +0.00 -0.00    -0.390 OA 
DOCKED: ATOM     31  H30 UNL     1      12.426  -2.986   4.506 +0.00 +0.00    +0.210 HD 
DOCKED: ENDBRANCH  29  30
DOCKED: BRANCH  29  32
DOCKED: ATOM     32  C21 UNL     1       9.836  -2.644   5.249 +0.00 +0.00    +0.046 C  
DOCKED: BRANCH  32  33
DOCKED: ATOM     33  C22 UNL     1      10.586  -1.728   6.248 +0.00 +0.00    +0.078 C  
DOCKED: BRANCH  33  34
DOCKED: ATOM     34  C26 UNL     1      11.962  -2.271   6.667 +0.00 +0.00    +0.217 C  
DOCKED: ATOM     35  O5  UNL     1      12.959  -2.211   5.955 +0.00 -0.00    -0.275 OA 
DOCKED: ATOM     36  N3  UNL     1      11.971  -2.939   7.875 +0.00 -0.00    -0.304 N  
DOCKED: ATOM     37  H40 UNL     1      11.094  -3.361   8.160 +0.00 +0.00    +0.149 HD 
DOCKED: BRANCH  36  38
DOCKED: ATOM     38  C27 UNL     1      13.161  -3.679   8.294 +0.00 +0.00    +0.161 C  
DOCKED: BRANCH  38  39
DOCKED: ATOM     39  C28 UNL     1      12.944  -5.105   7.742 +0.00 +0.00    +0.234 C  
DOCKED: ATOM     40  O6  UNL     1      12.773  -6.073   8.486 +0.00 -0.00    -0.274 OA 
DOCKED: ATOM     41  N4  UNL     1      12.993  -5.203   6.369 +0.00 -0.00    -0.310 N  
DOCKED: ATOM     42  H42 UNL     1      12.761  -4.370   5.848 +0.00 +0.00    +0.149 HD 
DOCKED: BRANCH  41  43
DOCKED: ATOM     43  C29 UNL     1      12.733  -6.461   5.703 +0.00 +0.00    +0.139 C  
DOCKED: BRANCH  43  44
DOCKED: ATOM     44  C30 UNL     1      11.547  -6.343   4.785 +0.00 -0.00    -0.027 A  
DOCKED: ATOM     45  C31 UNL     1      10.259  -6.128   5.283 +0.00 +0.00    +0.025 A  
DOCKED: ATOM     46  C32 UNL     1       9.214  -5.990   4.382 +0.00 +0.00    +0.111 A  
DOCKED: ATOM     47  N5  UNL     1       9.361  -6.054   3.042 +0.00 -0.00    -0.263 NA 
DOCKED: ATOM     48  C33 UNL     1      10.611  -6.282   2.580 +0.00 +0.00    +0.111 A  
DOCKED: ATOM     49  C34 UNL     1      11.719  -6.427   3.399 +0.00 +0.00    +0.025 A  
DOCKED: ENDBRANCH  43  44
DOCKED: ENDBRANCH  41  43
DOCKED: ENDBRANCH  38  39
DOCKED: BRANCH  38  50
DOCKED: ATOM     50  C35 UNL     1      13.300  -3.698   9.834 +0.00 +0.00    +0.012 C  
DOCKED: ATOM     51  C36 UNL     1      14.087  -2.488  10.341 +0.00 +0.00    +0.009 C  
DOCKED: ATOM     52  C37 UNL     1      11.926  -3.725  10.522 +0.00 +0.00    +0.009 C  
DOCKED: ENDBRANCH  38  50
DOCKED: ENDBRANCH  36  38
DOCKED: ENDBRANCH  33  34
DOCKED: BRANCH  33  53
DOCKED: ATOM     53  C23 UNL     1       9.750  -1.281   7.470 +0.00 +0.00    +0.015 C  
DOCKED: BRANCH  53  54
DOCKED: ATOM     54  C24 UNL     1       8.480  -2.075   7.807 +0.00 +0.00    +0.034 C  
DOCKED: BRANCH  54  55
DOCKED: ATOM     55  C25 UNL     1       8.721  -3.365   8.574 +0.00 +0.00    +0.213 C  
DOCKED: ATOM     56  F2  UNL     1       9.365  -4.262   7.780 +0.00 -0.00    -0.249 F  
DOCKED: ENDBRANCH  54  55
DOCKED: ENDBRANCH  53  54
DOCKED: ENDBRANCH  33  53
DOCKED: ENDBRANCH  32  33
DOCKED: ENDBRANCH  29  32
DOCKED: ENDBRANCH   1  29
DOCKED: TORSDOF 25
DOCKED: TER
DOCKED: ENDMDL
________________________________________________________________________________


    FINAL DOCKED STATE:
    ________________________


Run:   15 / 20
Time taken for this run:   2.777s

DOCKED: MODEL        15
DOCKED: USER    Run = 15
DOCKED: USER
DOCKED: USER    Estimated Free Energy of Binding    =  +7.46 kcal/mol  [=(1)+(2)+(3)-(4)]
DOCKED: USER
DOCKED: USER    (1) Final Intermolecular Energy     =  +0.00 kcal/mol
DOCKED: USER        vdW + Hbond + desolv Energy     =  +0.00 kcal/mol
DOCKED: USER        Electrostatic Energy            =  +0.00 kcal/mol
DOCKED: USER        Moving Ligand-Fixed Receptor    =  +0.00 kcal/mol
DOCKED: USER        Moving Ligand-Moving Receptor   =  +0.00 kcal/mol
DOCKED: USER    (2) Final Total Internal Energy     = -14.61 kcal/mol
DOCKED: USER    (3) Torsional Free Energy           =  +7.46 kcal/mol
DOCKED: USER    (4) Unbound System's Energy         = -14.61 kcal/mol
DOCKED: USER
DOCKED: USER
DOCKED: REMARK  Name = ligands/ligand_21.pdb
DOCKED: REMARK  29 active torsions:
DOCKED: REMARK  status: ('A' for Active; 'I' for Inactive)
DOCKED: REMARK    1  A    between atoms: C1_1  and  C2_2
DOCKED: REMARK    2  A    between atoms: C2_2  and  C3_3
DOCKED: REMARK    3  A    between atoms: C3_3  and  C4_4
DOCKED: REMARK    4  A    between atoms: C3_3  and  C5_5
DOCKED: REMARK    5  A    between atoms: C5_5  and  O1_6
DOCKED: REMARK    6  A    between atoms: C5_5  and  C6_7
DOCKED: REMARK    7  A    between atoms: N1_9  and  C7_10
DOCKED: REMARK    8  A    between atoms: C7_10  and  C8_11
DOCKED: REMARK    9  A    between atoms: C7_10  and  C11_15
DOCKED: REMARK   10  A    between atoms: C8_11  and  C9_12
DOCKED: REMARK   11  A    between atoms: C9_12  and  C10_13
DOCKED: REMARK   12  A    between atoms: N2_17  and  C12_18
DOCKED: REMARK   13  A    between atoms: C12_18  and  C13_19
DOCKED: REMARK   14  A    between atoms: C12_18  and  C20_26
DOCKED: REMARK   15  A    between atoms: C13_19  and  C14_20
DOCKED: REMARK   16  A    between atoms: C20_26  and  O4_27
DOCKED: REMARK   17  A    between atoms: C20_26  and  C21_28
DOCKED: REMARK   18  A    between atoms: C21_28  and  C22_29
DOCKED: REMARK   19  A    between atoms: C22_29  and  C23_30
DOCKED: REMARK   20  A    between atoms: C22_29  and  C26_34
DOCKED: REMARK   21  A    between atoms: C23_30  and  C24_31
DOCKED: REMARK   22  A    between atoms: C24_31  and  C25_32
DOCKED: REMARK   23  A    between atoms: N3_36  and  C27_37
DOCKED: REMARK   24  A    between atoms: C27_37  and  C28_38
DOCKED: REMARK   25  A    between atoms: C27_37  and  C35_48
DOCKED: REMARK   26  A    between atoms: N4_40  and  C29_41
DOCKED: REMARK   27  A    between atoms: C29_41  and  C30_42
DOCKED: REMARK   28  A    between atoms: C35_48  and  C36_49
DOCKED: REMARK   29  A    between atoms: C35_48  and  C37_50
DOCKED: REMARK                            x       y       z     vdW  Elec       q    Type
DOCKED: REMARK                         _______ _______ _______ _____ _____    ______ ____
DOCKED: USER                              x       y       z     vdW  Elec       q    Type
DOCKED: USER                           _______ _______ _______ _____ _____    ______ ____
DOCKED: ROOT
DOCKED: ATOM      1  C12 UNL     1       6.613  -3.776   0.461 +0.00 +0.00    +0.106 C  
DOCKED: ENDROOT
DOCKED: BRANCH   1   4
DOCKED: ATOM      2  C11 UNL     1       7.750  -5.986   0.484 +0.00 +0.00    +0.234 C  
DOCKED: ATOM      3  O3  UNL     1       7.296  -6.277  -0.622 +0.00 -0.00    -0.274 OA 
DOCKED: ATOM      4  N2  UNL     1       7.436  -4.801   1.112 +0.00 -0.00    -0.308 N  
DOCKED: ATOM      5  H20 UNL     1       7.919  -4.568   1.970 +0.00 +0.00    +0.149 HD 
DOCKED: BRANCH   2   6
DOCKED: ATOM      6  C7  UNL     1       8.736  -6.870   1.274 +0.00 +0.00    +0.159 C  
DOCKED: BRANCH   6   9
DOCKED: ATOM      7  C6  UNL     1       8.268  -5.851   3.498 +0.00 +0.00    +0.243 C  
DOCKED: ATOM      8  O2  UNL     1       7.125  -6.300   3.540 +0.00 -0.00    -0.273 OA 
DOCKED: ATOM      9  N1  UNL     1       9.128  -6.102   2.461 +0.00 -0.00    -0.302 N  
DOCKED: ATOM     10  H12 UNL     1      10.034  -5.646   2.446 +0.00 +0.00    +0.150 HD 
DOCKED: BRANCH   7  11
DOCKED: ATOM     11  C5  UNL     1       8.819  -4.960   4.626 +0.00 +0.00    +0.203 C  
DOCKED: BRANCH  11  12
DOCKED: ATOM     12  C3  UNL     1       7.757  -4.709   5.719 +0.00 +0.00    +0.023 C  
DOCKED: ATOM     13  C4  UNL     1       7.803  -5.808   6.789 +0.00 +0.00    +0.010 C  
DOCKED: BRANCH  12  15
DOCKED: ATOM     14  C1  UNL     1       6.476  -2.760   6.904 +0.00 +0.00    +0.004 C  
DOCKED: ATOM     15  C2  UNL     1       7.793  -3.309   6.372 +0.00 +0.00    +0.003 C  
DOCKED: ENDBRANCH  12  15
DOCKED: ENDBRANCH  11  12
DOCKED: BRANCH  11  16
DOCKED: ATOM     16  O1  UNL     1       9.338  -3.744   4.114 +0.00 -0.00    -0.382 OA 
DOCKED: ATOM     17  H11 UNL     1       9.102  -3.727   3.160 +0.00 +0.00    +0.210 HD 
DOCKED: ENDBRANCH  11  16
DOCKED: ENDBRANCH   7  11
DOCKED: ENDBRANCH   6   9
DOCKED: BRANCH   6  18
DOCKED: ATOM     18  C8  UNL     1       8.101  -8.216   1.640 +0.00 +0.00    +0.034 C  
DOCKED: BRANCH  18  19
DOCKED: ATOM     19  C9  UNL     1       6.597  -8.325   1.385 +0.00 +0.00    +0.036 C  
DOCKED: BRANCH  19  20
DOCKED: ATOM     20  C10 UNL     1       5.824  -9.010   2.502 +0.00 +0.00    +0.213 C  
DOCKED: ATOM     21  F1  UNL     1       6.632  -9.064   3.599 +0.00 -0.00    -0.249 F  
DOCKED: ENDBRANCH  19  20
DOCKED: ENDBRANCH  18  19
DOCKED: ENDBRANCH   6  18
DOCKED: ENDBRANCH   2   6
DOCKED: ENDBRANCH   1   4
DOCKED: BRANCH   1  22
DOCKED: ATOM     22  C13 UNL     1       5.105  -4.059   0.653 +0.00 +0.00    +0.060 C  
DOCKED: BRANCH  22  23
DOCKED: ATOM     23  C14 UNL     1       4.699  -4.527   2.040 +0.00 -0.00    -0.046 A  
DOCKED: ATOM     24  C15 UNL     1       4.885  -3.738   3.184 +0.00 +0.00    +0.004 A  
DOCKED: ATOM     25  C16 UNL     1       4.534  -4.218   4.450 +0.00 +0.00    +0.000 A  
DOCKED: ATOM     26  C17 UNL     1       4.018  -5.503   4.593 +0.00 +0.00    +0.000 A  
DOCKED: ATOM     27  C18 UNL     1       3.849  -6.307   3.465 +0.00 +0.00    +0.000 A  
DOCKED: ATOM     28  C19 UNL     1       4.189  -5.823   2.200 +0.00 +0.00    +0.004 A  
DOCKED: ENDBRANCH  22  23
DOCKED: ENDBRANCH   1  22
DOCKED: BRANCH   1  29
DOCKED: ATOM     29  C20 UNL     1       7.014  -2.350   0.944 +0.00 +0.00    +0.136 C  
DOCKED: BRANCH  29  30
DOCKED: ATOM     30  O4  UNL     1       7.625  -2.431   2.232 +0.00 -0.00    -0.390 OA 
DOCKED: ATOM     31  H30 UNL     1       8.287  -3.147   2.189 +0.00 +0.00    +0.210 HD 
DOCKED: ENDBRANCH  29  30
DOCKED: BRANCH  29  32
DOCKED: ATOM     32  C21 UNL     1       7.963  -1.622  -0.025 +0.00 +0.00    +0.046 C  
DOCKED: BRANCH  32  33
DOCKED: ATOM     33  C22 UNL     1       9.209  -2.469  -0.388 +0.00 +0.00    +0.078 C  
DOCKED: BRANCH  33  34
DOCKED: ATOM     34  C26 UNL     1      10.114  -2.779   0.815 +0.00 +0.00    +0.217 C  
DOCKED: ATOM     35  O5  UNL     1       9.855  -3.636   1.654 +0.00 -0.00    -0.275 OA 
DOCKED: ATOM     36  N3  UNL     1      11.201  -1.937   0.948 +0.00 -0.00    -0.304 N  
DOCKED: ATOM     37  H40 UNL     1      11.099  -1.010   0.549 +0.00 +0.00    +0.149 HD 
DOCKED: BRANCH  36  38
DOCKED: ATOM     38  C27 UNL     1      12.024  -1.989   2.155 +0.00 +0.00    +0.161 C  
DOCKED: BRANCH  38  39
DOCKED: ATOM     39  C28 UNL     1      11.376  -0.961   3.110 +0.00 +0.00    +0.234 C  
DOCKED: ATOM     40  O6  UNL     1      11.956   0.074   3.444 +0.00 -0.00    -0.274 OA 
DOCKED: ATOM     41  N4  UNL     1      10.128  -1.316   3.574 +0.00 -0.00    -0.310 N  
DOCKED: ATOM     42  H42 UNL     1       9.591  -1.943   2.993 +0.00 +0.00    +0.149 HD 
DOCKED: BRANCH  41  43
DOCKED: ATOM     43  C29 UNL     1       9.366  -0.420   4.416 +0.00 +0.00    +0.139 C  
DOCKED: BRANCH  43  44
DOCKED: ATOM     44  C30 UNL     1       8.061  -0.056   3.763 +0.00 -0.00    -0.027 A  
DOCKED: ATOM     45  C31 UNL     1       8.020   0.704   2.591 +0.00 +0.00    +0.025 A  
DOCKED: ATOM     46  C32 UNL     1       6.786   0.973   2.017 +0.00 +0.00    +0.111 A  
DOCKED: ATOM     47  N5  UNL     1       5.611   0.546   2.524 +0.00 -0.00    -0.263 NA 
DOCKED: ATOM     48  C33 UNL     1       5.669  -0.172   3.667 +0.00 +0.00    +0.111 A  
DOCKED: ATOM     49  C34 UNL     1       6.852  -0.497   4.312 +0.00 +0.00    +0.025 A  
DOCKED: ENDBRANCH  43  44
DOCKED: ENDBRANCH  41  43
DOCKED: ENDBRANCH  38  39
DOCKED: BRANCH  38  50
DOCKED: ATOM     50  C35 UNL     1      13.493  -1.612   1.852 +0.00 +0.00    +0.012 C  
DOCKED: ATOM     51  C36 UNL     1      14.319  -2.840   1.465 +0.00 +0.00    +0.009 C  
DOCKED: ATOM     52  C37 UNL     1      13.584  -0.572   0.725 +0.00 +0.00    +0.009 C  
DOCKED: ENDBRANCH  38  50
DOCKED: ENDBRANCH  36  38
DOCKED: ENDBRANCH  33  34
DOCKED: BRANCH  33  53
DOCKED: ATOM     53  C23 UNL     1      10.021  -1.943  -1.594 +0.00 +0.00    +0.015 C  
DOCKED: BRANCH  53  54
DOCKED: ATOM     54  C24 UNL     1       9.809  -0.487  -2.030 +0.00 +0.00    +0.034 C  
DOCKED: BRANCH  54  55
DOCKED: ATOM     55  C25 UNL     1      10.568   0.540  -1.206 +0.00 +0.00    +0.213 C  
DOCKED: ATOM     56  F2  UNL     1      10.036   0.616   0.044 +0.00 -0.00    -0.249 F  
DOCKED: ENDBRANCH  54  55
DOCKED: ENDBRANCH  53  54
DOCKED: ENDBRANCH  33  53
DOCKED: ENDBRANCH  32  33
DOCKED: ENDBRANCH  29  32
DOCKED: ENDBRANCH   1  29
DOCKED: TORSDOF 25
DOCKED: TER
DOCKED: ENDMDL
________________________________________________________________________________


    FINAL DOCKED STATE:
    ________________________


Run:   16 / 20
Time taken for this run:   2.777s

DOCKED: MODEL        16
DOCKED: USER    Run = 16
DOCKED: USER
DOCKED: USER    Estimated Free Energy of Binding    =  +7.46 kcal/mol  [=(1)+(2)+(3)-(4)]
DOCKED: USER
DOCKED: USER    (1) Final Intermolecular Energy     =  +0.00 kcal/mol
DOCKED: USER        vdW + Hbond + desolv Energy     =  +0.00 kcal/mol
DOCKED: USER        Electrostatic Energy            =  +0.00 kcal/mol
DOCKED: USER        Moving Ligand-Fixed Receptor    =  +0.00 kcal/mol
DOCKED: USER        Moving Ligand-Moving Receptor   =  +0.00 kcal/mol
DOCKED: USER    (2) Final Total Internal Energy     = -14.52 kcal/mol
DOCKED: USER    (3) Torsional Free Energy           =  +7.46 kcal/mol
DOCKED: USER    (4) Unbound System's Energy         = -14.52 kcal/mol
DOCKED: USER
DOCKED: USER
DOCKED: REMARK  Name = ligands/ligand_21.pdb
DOCKED: REMARK  29 active torsions:
DOCKED: REMARK  status: ('A' for Active; 'I' for Inactive)
DOCKED: REMARK    1  A    between atoms: C1_1  and  C2_2
DOCKED: REMARK    2  A    between atoms: C2_2  and  C3_3
DOCKED: REMARK    3  A    between atoms: C3_3  and  C4_4
DOCKED: REMARK    4  A    between atoms: C3_3  and  C5_5
DOCKED: REMARK    5  A    between atoms: C5_5  and  O1_6
DOCKED: REMARK    6  A    between atoms: C5_5  and  C6_7
DOCKED: REMARK    7  A    between atoms: N1_9  and  C7_10
DOCKED: REMARK    8  A    between atoms: C7_10  and  C8_11
DOCKED: REMARK    9  A    between atoms: C7_10  and  C11_15
DOCKED: REMARK   10  A    between atoms: C8_11  and  C9_12
DOCKED: REMARK   11  A    between atoms: C9_12  and  C10_13
DOCKED: REMARK   12  A    between atoms: N2_17  and  C12_18
DOCKED: REMARK   13  A    between atoms: C12_18  and  C13_19
DOCKED: REMARK   14  A    between atoms: C12_18  and  C20_26
DOCKED: REMARK   15  A    between atoms: C13_19  and  C14_20
DOCKED: REMARK   16  A    between atoms: C20_26  and  O4_27
DOCKED: REMARK   17  A    between atoms: C20_26  and  C21_28
DOCKED: REMARK   18  A    between atoms: C21_28  and  C22_29
DOCKED: REMARK   19  A    between atoms: C22_29  and  C23_30
DOCKED: REMARK   20  A    between atoms: C22_29  and  C26_34
DOCKED: REMARK   21  A    between atoms: C23_30  and  C24_31
DOCKED: REMARK   22  A    between atoms: C24_31  and  C25_32
DOCKED: REMARK   23  A    between atoms: N3_36  and  C27_37
DOCKED: REMARK   24  A    between atoms: C27_37  and  C28_38
DOCKED: REMARK   25  A    between atoms: C27_37  and  C35_48
DOCKED: REMARK   26  A    between atoms: N4_40  and  C29_41
DOCKED: REMARK   27  A    between atoms: C29_41  and  C30_42
DOCKED: REMARK   28  A    between atoms: C35_48  and  C36_49
DOCKED: REMARK   29  A    between atoms: C35_48  and  C37_50
DOCKED: REMARK                            x       y       z     vdW  Elec       q    Type
DOCKED: REMARK                         _______ _______ _______ _____ _____    ______ ____
DOCKED: USER                              x       y       z     vdW  Elec       q    Type
DOCKED: USER                           _______ _______ _______ _____ _____    ______ ____
DOCKED: ROOT
DOCKED: ATOM      1  C12 UNL     1      16.716  -4.228   0.462 +0.00 +0.00    +0.106 C  
DOCKED: ENDROOT
DOCKED: BRANCH   1   4
DOCKED: ATOM      2  C11 UNL     1      18.768  -4.059   1.853 +0.00 +0.00    +0.234 C  
DOCKED: ATOM      3  O3  UNL     1      19.445  -4.625   0.995 +0.00 -0.00    -0.274 OA 
DOCKED: ATOM      4  N2  UNL     1      17.414  -3.858   1.697 +0.00 -0.00    -0.308 N  
DOCKED: ATOM      5  H20 UNL     1      16.929  -3.297   2.385 +0.00 +0.00    +0.149 HD 
DOCKED: BRANCH   2   6
DOCKED: ATOM      6  C7  UNL     1      19.339  -3.481   3.163 +0.00 +0.00    +0.159 C  
DOCKED: BRANCH   6   9
DOCKED: ATOM      7  C6  UNL     1      17.224  -3.849   4.425 +0.00 +0.00    +0.243 C  
DOCKED: ATOM      8  O2  UNL     1      17.273  -5.070   4.288 +0.00 -0.00    -0.273 OA 
DOCKED: ATOM      9  N1  UNL     1      18.192  -3.007   3.946 +0.00 -0.00    -0.302 N  
DOCKED: ATOM     10  H12 UNL     1      18.062  -2.004   4.027 +0.00 +0.00    +0.150 HD 
DOCKED: BRANCH   7  11
DOCKED: ATOM     11  C5  UNL     1      16.049  -3.174   5.156 +0.00 +0.00    +0.203 C  
DOCKED: BRANCH  11  12
DOCKED: ATOM     12  C3  UNL     1      15.188  -4.206   5.917 +0.00 +0.00    +0.023 C  
DOCKED: ATOM     13  C4  UNL     1      15.304  -4.004   7.434 +0.00 +0.00    +0.010 C  
DOCKED: BRANCH  12  15
DOCKED: ATOM     14  C1  UNL     1      13.415  -4.817   4.092 +0.00 +0.00    +0.004 C  
DOCKED: ATOM     15  C2  UNL     1      13.705  -4.280   5.487 +0.00 +0.00    +0.003 C  
DOCKED: ENDBRANCH  12  15
DOCKED: ENDBRANCH  11  12
DOCKED: BRANCH  11  16
DOCKED: ATOM     16  O1  UNL     1      15.266  -2.398   4.264 +0.00 -0.00    -0.382 OA 
DOCKED: ATOM     17  H11 UNL     1      15.812  -2.279   3.455 +0.00 +0.00    +0.210 HD 
DOCKED: ENDBRANCH  11  16
DOCKED: ENDBRANCH   7  11
DOCKED: ENDBRANCH   6   9
DOCKED: BRANCH   6  18
DOCKED: ATOM     18  C8  UNL     1      20.162  -4.530   3.919 +0.00 +0.00    +0.034 C  
DOCKED: BRANCH  18  19
DOCKED: ATOM     19  C9  UNL     1      20.347  -4.268   5.415 +0.00 +0.00    +0.036 C  
DOCKED: BRANCH  19  20
DOCKED: ATOM     20  C10 UNL     1      19.671  -5.291   6.315 +0.00 +0.00    +0.213 C  
DOCKED: ATOM     21  F1  UNL     1      18.705  -4.648   7.030 +0.00 -0.00    -0.249 F  
DOCKED: ENDBRANCH  19  20
DOCKED: ENDBRANCH  18  19
DOCKED: ENDBRANCH   6  18
DOCKED: ENDBRANCH   2   6
DOCKED: ENDBRANCH   1   4
DOCKED: BRANCH   1  22
DOCKED: ATOM     22  C13 UNL     1      16.798  -5.750   0.200 +0.00 +0.00    +0.060 C  
DOCKED: BRANCH  22  23
DOCKED: ATOM     23  C14 UNL     1      16.697  -6.631   1.434 +0.00 -0.00    -0.046 A  
DOCKED: ATOM     24  C15 UNL     1      15.514  -6.753   2.175 +0.00 +0.00    +0.004 A  
DOCKED: ATOM     25  C16 UNL     1      15.470  -7.545   3.328 +0.00 +0.00    +0.000 A  
DOCKED: ATOM     26  C17 UNL     1      16.614  -8.201   3.770 +0.00 +0.00    +0.000 A  
DOCKED: ATOM     27  C18 UNL     1      17.805  -8.069   3.054 +0.00 +0.00    +0.000 A  
DOCKED: ATOM     28  C19 UNL     1      17.845  -7.289   1.896 +0.00 +0.00    +0.004 A  
DOCKED: ENDBRANCH  22  23
DOCKED: ENDBRANCH   1  22
DOCKED: BRANCH   1  29
DOCKED: ATOM     29  C20 UNL     1      15.246  -3.708   0.476 +0.00 +0.00    +0.136 C  
DOCKED: BRANCH  29  30
DOCKED: ATOM     30  O4  UNL     1      14.891  -3.305   1.798 +0.00 -0.00    -0.390 OA 
DOCKED: ATOM     31  H30 UNL     1      15.636  -2.778   2.147 +0.00 +0.00    +0.210 HD 
DOCKED: ENDBRANCH  29  30
DOCKED: BRANCH  29  32
DOCKED: ATOM     32  C21 UNL     1      15.003  -2.540  -0.496 +0.00 +0.00    +0.046 C  
DOCKED: BRANCH  32  33
DOCKED: ATOM     33  C22 UNL     1      13.781  -1.675  -0.095 +0.00 +0.00    +0.078 C  
DOCKED: BRANCH  33  34
DOCKED: ATOM     34  C26 UNL     1      14.151  -0.435   0.735 +0.00 +0.00    +0.217 C  
DOCKED: ATOM     35  O5  UNL     1      14.272   0.688   0.257 +0.00 -0.00    -0.275 OA 
DOCKED: ATOM     36  N3  UNL     1      14.449  -0.697   2.058 +0.00 -0.00    -0.304 N  
DOCKED: ATOM     37  H40 UNL     1      14.793  -1.629   2.262 +0.00 +0.00    +0.149 HD 
DOCKED: BRANCH  36  38
DOCKED: ATOM     38  C27 UNL     1      15.011   0.354   2.904 +0.00 +0.00    +0.161 C  
DOCKED: BRANCH  38  39
DOCKED: ATOM     39  C28 UNL     1      16.471  -0.089   3.152 +0.00 +0.00    +0.234 C  
DOCKED: ATOM     40  O6  UNL     1      16.926  -1.130   2.674 +0.00 -0.00    -0.274 OA 
DOCKED: ATOM     41  N4  UNL     1      17.194   0.751   3.969 +0.00 -0.00    -0.310 N  
DOCKED: ATOM     42  H42 UNL     1      16.899   1.715   4.002 +0.00 +0.00    +0.149 HD 
DOCKED: BRANCH  41  43
DOCKED: ATOM     43  C29 UNL     1      18.596   0.506   4.232 +0.00 +0.00    +0.139 C  
DOCKED: BRANCH  43  44
DOCKED: ATOM     44  C30 UNL     1      18.771  -0.261   5.514 +0.00 -0.00    -0.027 A  
DOCKED: ATOM     45  C31 UNL     1      17.684  -0.556   6.341 +0.00 +0.00    +0.025 A  
DOCKED: ATOM     46  C32 UNL     1      17.907  -1.300   7.490 +0.00 +0.00    +0.111 A  
DOCKED: ATOM     47  N5  UNL     1      19.118  -1.759   7.867 +0.00 -0.00    -0.263 NA 
DOCKED: ATOM     48  C33 UNL     1      20.160  -1.448   7.065 +0.00 +0.00    +0.111 A  
DOCKED: ATOM     49  C34 UNL     1      20.038  -0.716   5.894 +0.00 +0.00    +0.025 A  
DOCKED: ENDBRANCH  43  44
DOCKED: ENDBRANCH  41  43
DOCKED: ENDBRANCH  38  39
DOCKED: BRANCH  38  50
DOCKED: ATOM     50  C35 UNL     1      14.238   0.478   4.237 +0.00 +0.00    +0.012 C  
DOCKED: ATOM     51  C36 UNL     1      13.770   1.914   4.482 +0.00 +0.00    +0.009 C  
DOCKED: ATOM     52  C37 UNL     1      13.019  -0.457   4.269 +0.00 +0.00    +0.009 C  
DOCKED: ENDBRANCH  38  50
DOCKED: ENDBRANCH  36  38
DOCKED: ENDBRANCH  33  34
DOCKED: BRANCH  33  53
DOCKED: ATOM     53  C23 UNL     1      12.612  -2.462   0.542 +0.00 +0.00    +0.015 C  
DOCKED: BRANCH  53  54
DOCKED: ATOM     54  C24 UNL     1      11.570  -1.680   1.354 +0.00 +0.00    +0.034 C  
DOCKED: BRANCH  54  55
DOCKED: ATOM     55  C25 UNL     1      10.936  -2.459   2.493 +0.00 +0.00    +0.213 C  
DOCKED: ATOM     56  F2  UNL     1      11.163  -3.790   2.327 +0.00 -0.00    -0.249 F  
DOCKED: ENDBRANCH  54  55
DOCKED: ENDBRANCH  53  54
DOCKED: ENDBRANCH  33  53
DOCKED: ENDBRANCH  32  33
DOCKED: ENDBRANCH  29  32
DOCKED: ENDBRANCH   1  29
DOCKED: TORSDOF 25
DOCKED: TER
DOCKED: ENDMDL
________________________________________________________________________________


    FINAL DOCKED STATE:
    ________________________


Run:   17 / 20
Time taken for this run:   2.777s

DOCKED: MODEL        17
DOCKED: USER    Run = 17
DOCKED: USER
DOCKED: USER    Estimated Free Energy of Binding    =  +7.46 kcal/mol  [=(1)+(2)+(3)-(4)]
DOCKED: USER
DOCKED: USER    (1) Final Intermolecular Energy     =  +0.00 kcal/mol
DOCKED: USER        vdW + Hbond + desolv Energy     =  +0.00 kcal/mol
DOCKED: USER        Electrostatic Energy            =  +0.00 kcal/mol
DOCKED: USER        Moving Ligand-Fixed Receptor    =  +0.00 kcal/mol
DOCKED: USER        Moving Ligand-Moving Receptor   =  +0.00 kcal/mol
DOCKED: USER    (2) Final Total Internal Energy     = -14.60 kcal/mol
DOCKED: USER    (3) Torsional Free Energy           =  +7.46 kcal/mol
DOCKED: USER    (4) Unbound System's Energy         = -14.60 kcal/mol
DOCKED: USER
DOCKED: USER
DOCKED: REMARK  Name = ligands/ligand_21.pdb
DOCKED: REMARK  29 active torsions:
DOCKED: REMARK  status: ('A' for Active; 'I' for Inactive)
DOCKED: REMARK    1  A    between atoms: C1_1  and  C2_2
DOCKED: REMARK    2  A    between atoms: C2_2  and  C3_3
DOCKED: REMARK    3  A    between atoms: C3_3  and  C4_4
DOCKED: REMARK    4  A    between atoms: C3_3  and  C5_5
DOCKED: REMARK    5  A    between atoms: C5_5  and  O1_6
DOCKED: REMARK    6  A    between atoms: C5_5  and  C6_7
DOCKED: REMARK    7  A    between atoms: N1_9  and  C7_10
DOCKED: REMARK    8  A    between atoms: C7_10  and  C8_11
DOCKED: REMARK    9  A    between atoms: C7_10  and  C11_15
DOCKED: REMARK   10  A    between atoms: C8_11  and  C9_12
DOCKED: REMARK   11  A    between atoms: C9_12  and  C10_13
DOCKED: REMARK   12  A    between atoms: N2_17  and  C12_18
DOCKED: REMARK   13  A    between atoms: C12_18  and  C13_19
DOCKED: REMARK   14  A    between atoms: C12_18  and  C20_26
DOCKED: REMARK   15  A    between atoms: C13_19  and  C14_20
DOCKED: REMARK   16  A    between atoms: C20_26  and  O4_27
DOCKED: REMARK   17  A    between atoms: C20_26  and  C21_28
DOCKED: REMARK   18  A    between atoms: C21_28  and  C22_29
DOCKED: REMARK   19  A    between atoms: C22_29  and  C23_30
DOCKED: REMARK   20  A    between atoms: C22_29  and  C26_34
DOCKED: REMARK   21  A    between atoms: C23_30  and  C24_31
DOCKED: REMARK   22  A    between atoms: C24_31  and  C25_32
DOCKED: REMARK   23  A    between atoms: N3_36  and  C27_37
DOCKED: REMARK   24  A    between atoms: C27_37  and  C28_38
DOCKED: REMARK   25  A    between atoms: C27_37  and  C35_48
DOCKED: REMARK   26  A    between atoms: N4_40  and  C29_41
DOCKED: REMARK   27  A    between atoms: C29_41  and  C30_42
DOCKED: REMARK   28  A    between atoms: C35_48  and  C36_49
DOCKED: REMARK   29  A    between atoms: C35_48  and  C37_50
DOCKED: REMARK                            x       y       z     vdW  Elec       q    Type
DOCKED: REMARK                         _______ _______ _______ _____ _____    ______ ____
DOCKED: USER                              x       y       z     vdW  Elec       q    Type
DOCKED: USER                           _______ _______ _______ _____ _____    ______ ____
DOCKED: ROOT
DOCKED: ATOM      1  C12 UNL     1       9.831  -0.743   0.082 +0.00 +0.00    +0.106 C  
DOCKED: ENDROOT
DOCKED: BRANCH   1   4
DOCKED: ATOM      2  C11 UNL     1       9.320   1.531   0.945 +0.00 +0.00    +0.234 C  
DOCKED: ATOM      3  O3  UNL     1      10.272   1.493   1.724 +0.00 -0.00    -0.274 OA 
DOCKED: ATOM      4  N2  UNL     1       9.002   0.466   0.131 +0.00 -0.00    -0.308 N  
DOCKED: ATOM      5  H20 UNL     1       8.275   0.590  -0.562 +0.00 +0.00    +0.149 HD 
DOCKED: BRANCH   2   6
DOCKED: ATOM      6  C7  UNL     1       8.407   2.758   0.754 +0.00 +0.00    +0.159 C  
DOCKED: BRANCH   6   9
DOCKED: ATOM      7  C6  UNL     1       6.494   1.506  -0.234 +0.00 +0.00    +0.243 C  
DOCKED: ATOM      8  O2  UNL     1       6.246   0.920   0.818 +0.00 -0.00    -0.273 OA 
DOCKED: ATOM      9  N1  UNL     1       7.496   2.434  -0.349 +0.00 -0.00    -0.302 N  
DOCKED: ATOM     10  H12 UNL     1       7.701   2.833  -1.259 +0.00 +0.00    +0.150 HD 
DOCKED: BRANCH   7  11
DOCKED: ATOM     11  C5  UNL     1       5.684   1.231  -1.514 +0.00 +0.00    +0.203 C  
DOCKED: BRANCH  11  12
DOCKED: ATOM     12  C3  UNL     1       4.614   0.141  -1.283 +0.00 +0.00    +0.023 C  
DOCKED: ATOM     13  C4  UNL     1       3.314   0.756  -0.749 +0.00 +0.00    +0.010 C  
DOCKED: BRANCH  12  15
DOCKED: ATOM     14  C1  UNL     1       3.908  -2.209  -2.191 +0.00 +0.00    +0.004 C  
DOCKED: ATOM     15  C2  UNL     1       4.328  -0.777  -2.493 +0.00 +0.00    +0.003 C  
DOCKED: ENDBRANCH  12  15
DOCKED: ENDBRANCH  11  12
DOCKED: BRANCH  11  16
DOCKED: ATOM     16  O1  UNL     1       6.535   0.905  -2.601 +0.00 -0.00    -0.382 OA 
DOCKED: ATOM     17  H11 UNL     1       7.438   0.817  -2.223 +0.00 +0.00    +0.210 HD 
DOCKED: ENDBRANCH  11  16
DOCKED: ENDBRANCH   7  11
DOCKED: ENDBRANCH   6   9
DOCKED: BRANCH   6  18
DOCKED: ATOM     18  C8  UNL     1       7.654   3.095   2.047 +0.00 +0.00    +0.034 C  
DOCKED: BRANCH  18  19
DOCKED: ATOM     19  C9  UNL     1       7.770   2.056   3.164 +0.00 +0.00    +0.036 C  
DOCKED: BRANCH  19  20
DOCKED: ATOM     20  C10 UNL     1       6.446   1.708   3.829 +0.00 +0.00    +0.213 C  
DOCKED: ATOM     21  F1  UNL     1       5.454   2.355   3.154 +0.00 -0.00    -0.249 F  
DOCKED: ENDBRANCH  19  20
DOCKED: ENDBRANCH  18  19
DOCKED: ENDBRANCH   6  18
DOCKED: ENDBRANCH   2   6
DOCKED: ENDBRANCH   1   4
DOCKED: BRANCH   1  22
DOCKED: ATOM     22  C13 UNL     1       9.452  -1.734   1.207 +0.00 +0.00    +0.060 C  
DOCKED: BRANCH  22  23
DOCKED: ATOM     23  C14 UNL     1       7.962  -1.914   1.444 +0.00 -0.00    -0.046 A  
DOCKED: ATOM     24  C15 UNL     1       7.102  -2.428   0.465 +0.00 +0.00    +0.004 A  
DOCKED: ATOM     25  C16 UNL     1       5.729  -2.544   0.707 +0.00 +0.00    +0.000 A  
DOCKED: ATOM     26  C17 UNL     1       5.195  -2.123   1.921 +0.00 +0.00    +0.000 A  
DOCKED: ATOM     27  C18 UNL     1       6.038  -1.588   2.896 +0.00 +0.00    +0.000 A  
DOCKED: ATOM     28  C19 UNL     1       7.410  -1.484   2.658 +0.00 +0.00    +0.004 A  
DOCKED: ENDBRANCH  22  23
DOCKED: ENDBRANCH   1  22
DOCKED: BRANCH   1  29
DOCKED: ATOM     29  C20 UNL     1       9.772  -1.400  -1.331 +0.00 +0.00    +0.136 C  
DOCKED: BRANCH  29  30
DOCKED: ATOM     30  O4  UNL     1       8.561  -1.027  -1.986 +0.00 -0.00    -0.390 OA 
DOCKED: ATOM     31  H30 UNL     1       8.466  -0.060  -1.885 +0.00 +0.00    +0.210 HD 
DOCKED: ENDBRANCH  29  30
DOCKED: BRANCH  29  32
DOCKED: ATOM     32  C21 UNL     1      10.970  -1.031  -2.225 +0.00 +0.00    +0.046 C  
DOCKED: BRANCH  32  33
DOCKED: ATOM     33  C22 UNL     1      11.196   0.499  -2.317 +0.00 +0.00    +0.078 C  
DOCKED: BRANCH  33  34
DOCKED: ATOM     34  C26 UNL     1      10.030   1.255  -2.974 +0.00 +0.00    +0.217 C  
DOCKED: ATOM     35  O5  UNL     1       8.978   1.512  -2.397 +0.00 -0.00    -0.275 OA 
DOCKED: ATOM     36  N3  UNL     1      10.208   1.532  -4.315 +0.00 -0.00    -0.304 N  
DOCKED: ATOM     37  H40 UNL     1      10.826   0.907  -4.823 +0.00 +0.00    +0.149 HD 
DOCKED: BRANCH  36  38
DOCKED: ATOM     38  C27 UNL     1       9.099   2.060  -5.108 +0.00 +0.00    +0.161 C  
DOCKED: BRANCH  38  39
DOCKED: ATOM     39  C28 UNL     1       8.397   0.806  -5.675 +0.00 +0.00    +0.234 C  
DOCKED: ATOM     40  O6  UNL     1       8.390   0.552  -6.881 +0.00 -0.00    -0.274 OA 
DOCKED: ATOM     41  N4  UNL     1       7.759   0.030  -4.732 +0.00 -0.00    -0.310 N  
DOCKED: ATOM     42  H42 UNL     1       8.113   0.083  -3.788 +0.00 +0.00    +0.149 HD 
DOCKED: BRANCH  41  43
DOCKED: ATOM     43  C29 UNL     1       7.122  -1.215  -5.103 +0.00 +0.00    +0.139 C  
DOCKED: BRANCH  43  44
DOCKED: ATOM     44  C30 UNL     1       7.750  -2.372  -4.374 +0.00 -0.00    -0.027 A  
DOCKED: ATOM     45  C31 UNL     1       9.074  -2.751  -4.611 +0.00 +0.00    +0.025 A  
DOCKED: ATOM     46  C32 UNL     1       9.605  -3.802  -3.878 +0.00 +0.00    +0.111 A  
DOCKED: ATOM     47  N5  UNL     1       8.918  -4.491  -2.945 +0.00 -0.00    -0.263 NA 
DOCKED: ATOM     48  C33 UNL     1       7.634  -4.123  -2.742 +0.00 +0.00    +0.111 A  
DOCKED: ATOM     49  C34 UNL     1       7.015  -3.084  -3.419 +0.00 +0.00    +0.025 A  
DOCKED: ENDBRANCH  43  44
DOCKED: ENDBRANCH  41  43
DOCKED: ENDBRANCH  38  39
DOCKED: BRANCH  38  50
DOCKED: ATOM     50  C35 UNL     1       9.606   2.972  -6.249 +0.00 +0.00    +0.012 C  
DOCKED: ATOM     51  C36 UNL     1       9.747   4.424  -5.786 +0.00 +0.00    +0.009 C  
DOCKED: ATOM     52  C37 UNL     1      10.958   2.488  -6.796 +0.00 +0.00    +0.009 C  
DOCKED: ENDBRANCH  38  50
DOCKED: ENDBRANCH  36  38
DOCKED: ENDBRANCH  33  34
DOCKED: BRANCH  33  53
DOCKED: ATOM     53  C23 UNL     1      12.559   0.918  -2.916 +0.00 +0.00    +0.015 C  
DOCKED: BRANCH  53  54
DOCKED: ATOM     54  C24 UNL     1      13.344  -0.124  -3.725 +0.00 +0.00    +0.034 C  
DOCKED: BRANCH  54  55
DOCKED: ATOM     55  C25 UNL     1      12.878  -0.298  -5.160 +0.00 +0.00    +0.213 C  
DOCKED: ATOM     56  F2  UNL     1      11.642  -0.868  -5.179 +0.00 -0.00    -0.249 F  
DOCKED: ENDBRANCH  54  55
DOCKED: ENDBRANCH  53  54
DOCKED: ENDBRANCH  33  53
DOCKED: ENDBRANCH  32  33
DOCKED: ENDBRANCH  29  32
DOCKED: ENDBRANCH   1  29
DOCKED: TORSDOF 25
DOCKED: TER
DOCKED: ENDMDL
________________________________________________________________________________


    FINAL DOCKED STATE:
    ________________________


Run:   18 / 20
Time taken for this run:   2.777s

DOCKED: MODEL        18
DOCKED: USER    Run = 18
DOCKED: USER
DOCKED: USER    Estimated Free Energy of Binding    =  +7.46 kcal/mol  [=(1)+(2)+(3)-(4)]
DOCKED: USER
DOCKED: USER    (1) Final Intermolecular Energy     =  +0.00 kcal/mol
DOCKED: USER        vdW + Hbond + desolv Energy     =  +0.00 kcal/mol
DOCKED: USER        Electrostatic Energy            =  +0.00 kcal/mol
DOCKED: USER        Moving Ligand-Fixed Receptor    =  +0.00 kcal/mol
DOCKED: USER        Moving Ligand-Moving Receptor   =  +0.00 kcal/mol
DOCKED: USER    (2) Final Total Internal Energy     = -14.60 kcal/mol
DOCKED: USER    (3) Torsional Free Energy           =  +7.46 kcal/mol
DOCKED: USER    (4) Unbound System's Energy         = -14.60 kcal/mol
DOCKED: USER
DOCKED: USER
DOCKED: REMARK  Name = ligands/ligand_21.pdb
DOCKED: REMARK  29 active torsions:
DOCKED: REMARK  status: ('A' for Active; 'I' for Inactive)
DOCKED: REMARK    1  A    between atoms: C1_1  and  C2_2
DOCKED: REMARK    2  A    between atoms: C2_2  and  C3_3
DOCKED: REMARK    3  A    between atoms: C3_3  and  C4_4
DOCKED: REMARK    4  A    between atoms: C3_3  and  C5_5
DOCKED: REMARK    5  A    between atoms: C5_5  and  O1_6
DOCKED: REMARK    6  A    between atoms: C5_5  and  C6_7
DOCKED: REMARK    7  A    between atoms: N1_9  and  C7_10
DOCKED: REMARK    8  A    between atoms: C7_10  and  C8_11
DOCKED: REMARK    9  A    between atoms: C7_10  and  C11_15
DOCKED: REMARK   10  A    between atoms: C8_11  and  C9_12
DOCKED: REMARK   11  A    between atoms: C9_12  and  C10_13
DOCKED: REMARK   12  A    between atoms: N2_17  and  C12_18
DOCKED: REMARK   13  A    between atoms: C12_18  and  C13_19
DOCKED: REMARK   14  A    between atoms: C12_18  and  C20_26
DOCKED: REMARK   15  A    between atoms: C13_19  and  C14_20
DOCKED: REMARK   16  A    between atoms: C20_26  and  O4_27
DOCKED: REMARK   17  A    between atoms: C20_26  and  C21_28
DOCKED: REMARK   18  A    between atoms: C21_28  and  C22_29
DOCKED: REMARK   19  A    between atoms: C22_29  and  C23_30
DOCKED: REMARK   20  A    between atoms: C22_29  and  C26_34
DOCKED: REMARK   21  A    between atoms: C23_30  and  C24_31
DOCKED: REMARK   22  A    between atoms: C24_31  and  C25_32
DOCKED: REMARK   23  A    between atoms: N3_36  and  C27_37
DOCKED: REMARK   24  A    between atoms: C27_37  and  C28_38
DOCKED: REMARK   25  A    between atoms: C27_37  and  C35_48
DOCKED: REMARK   26  A    between atoms: N4_40  and  C29_41
DOCKED: REMARK   27  A    between atoms: C29_41  and  C30_42
DOCKED: REMARK   28  A    between atoms: C35_48  and  C36_49
DOCKED: REMARK   29  A    between atoms: C35_48  and  C37_50
DOCKED: REMARK                            x       y       z     vdW  Elec       q    Type
DOCKED: REMARK                         _______ _______ _______ _____ _____    ______ ____
DOCKED: USER                              x       y       z     vdW  Elec       q    Type
DOCKED: USER                           _______ _______ _______ _____ _____    ______ ____
DOCKED: ROOT
DOCKED: ATOM      1  C12 UNL     1       9.039  -9.031  -1.183 +0.00 +0.00    +0.106 C  
DOCKED: ENDROOT
DOCKED: BRANCH   1   4
DOCKED: ATOM      2  C11 UNL     1       7.685  -7.077  -1.907 +0.00 +0.00    +0.234 C  
DOCKED: ATOM      3  O3  UNL     1       8.076  -7.185  -3.069 +0.00 -0.00    -0.274 OA 
DOCKED: ATOM      4  N2  UNL     1       8.135  -7.910  -0.906 +0.00 -0.00    -0.308 N  
DOCKED: ATOM      5  H20 UNL     1       7.703  -7.843   0.007 +0.00 +0.00    +0.149 HD 
DOCKED: BRANCH   2   6
DOCKED: ATOM      6  C7  UNL     1       6.638  -6.046  -1.439 +0.00 +0.00    +0.159 C  
DOCKED: BRANCH   6   9
DOCKED: ATOM      7  C6  UNL     1       7.267  -6.118   0.970 +0.00 +0.00    +0.243 C  
DOCKED: ATOM      8  O2  UNL     1       8.360  -5.593   0.771 +0.00 -0.00    -0.273 OA 
DOCKED: ATOM      9  N1  UNL     1       6.358  -6.345  -0.031 +0.00 -0.00    -0.302 N  
DOCKED: ATOM     10  H12 UNL     1       5.502  -6.846   0.181 +0.00 +0.00    +0.150 HD 
DOCKED: BRANCH   7  11
DOCKED: ATOM     11  C5  UNL     1       6.839  -6.566   2.380 +0.00 +0.00    +0.203 C  
DOCKED: BRANCH  11  12
DOCKED: ATOM     12  C3  UNL     1       7.951  -6.302   3.419 +0.00 +0.00    +0.023 C  
DOCKED: ATOM     13  C4  UNL     1       7.838  -4.884   3.993 +0.00 +0.00    +0.010 C  
DOCKED: BRANCH  12  15
DOCKED: ATOM     14  C1  UNL     1       9.440  -7.567   5.158 +0.00 +0.00    +0.004 C  
DOCKED: ATOM     15  C2  UNL     1       8.060  -7.345   4.555 +0.00 +0.00    +0.003 C  
DOCKED: ENDBRANCH  12  15
DOCKED: ENDBRANCH  11  12
DOCKED: BRANCH  11  16
DOCKED: ATOM     16  O1  UNL     1       6.429  -7.923   2.386 +0.00 -0.00    -0.382 OA 
DOCKED: ATOM     17  H11 UNL     1       6.634  -8.274   1.491 +0.00 +0.00    +0.210 HD 
DOCKED: ENDBRANCH  11  16
DOCKED: ENDBRANCH   7  11
DOCKED: ENDBRANCH   6   9
DOCKED: BRANCH   6  18
DOCKED: ATOM     18  C8  UNL     1       7.145  -4.613  -1.637 +0.00 +0.00    +0.034 C  
DOCKED: BRANCH  18  19
DOCKED: ATOM     19  C9  UNL     1       8.622  -4.484  -2.014 +0.00 +0.00    +0.036 C  
DOCKED: BRANCH  19  20
DOCKED: ATOM     20  C10 UNL     1       9.368  -3.402  -1.248 +0.00 +0.00    +0.213 C  
DOCKED: ATOM     21  F1  UNL     1       8.555  -2.962  -0.246 +0.00 -0.00    -0.249 F  
DOCKED: ENDBRANCH  19  20
DOCKED: ENDBRANCH  18  19
DOCKED: ENDBRANCH   6  18
DOCKED: ENDBRANCH   2   6
DOCKED: ENDBRANCH   1   4
DOCKED: BRANCH   1  22
DOCKED: ATOM     22  C13 UNL     1      10.517  -8.575  -1.195 +0.00 +0.00    +0.060 C  
DOCKED: BRANCH  22  23
DOCKED: ATOM     23  C14 UNL     1      10.911  -7.606  -0.093 +0.00 -0.00    -0.046 A  
DOCKED: ATOM     24  C15 UNL     1      10.856  -7.950   1.265 +0.00 +0.00    +0.004 A  
DOCKED: ATOM     25  C16 UNL     1      11.191  -7.018   2.254 +0.00 +0.00    +0.000 A  
DOCKED: ATOM     26  C17 UNL     1      11.557  -5.723   1.899 +0.00 +0.00    +0.000 A  
DOCKED: ATOM     27  C18 UNL     1      11.593  -5.361   0.552 +0.00 +0.00    +0.000 A  
DOCKED: ATOM     28  C19 UNL     1      11.270  -6.295  -0.435 +0.00 +0.00    +0.004 A  
DOCKED: ENDBRANCH  22  23
DOCKED: ENDBRANCH   1  22
DOCKED: BRANCH   1  29
DOCKED: ATOM     29  C20 UNL     1       8.790 -10.205  -0.188 +0.00 +0.00    +0.136 C  
DOCKED: BRANCH  29  30
DOCKED: ATOM     30  O4  UNL     1       8.209  -9.703   1.014 +0.00 -0.00    -0.390 OA 
DOCKED: ATOM     31  H30 UNL     1       7.488  -9.097   0.752 +0.00 +0.00    +0.210 HD 
DOCKED: ENDBRANCH  29  30
DOCKED: BRANCH  29  32
DOCKED: ATOM     32  C21 UNL     1       7.890 -11.312  -0.766 +0.00 +0.00    +0.046 C  
DOCKED: BRANCH  32  33
DOCKED: ATOM     33  C22 UNL     1       6.558 -10.762  -1.334 +0.00 +0.00    +0.078 C  
DOCKED: BRANCH  33  34
DOCKED: ATOM     34  C26 UNL     1       5.663 -10.102  -0.273 +0.00 +0.00    +0.217 C  
DOCKED: ATOM     35  O5  UNL     1       5.861  -8.977   0.176 +0.00 -0.00    -0.275 OA 
DOCKED: ATOM     36  N3  UNL     1       4.669 -10.919   0.229 +0.00 -0.00    -0.304 N  
DOCKED: ATOM     37  H40 UNL     1       4.849 -11.916   0.192 +0.00 +0.00    +0.149 HD 
DOCKED: BRANCH  36  38
DOCKED: ATOM     38  C27 UNL     1       3.881 -10.489   1.383 +0.00 +0.00    +0.161 C  
DOCKED: BRANCH  38  39
DOCKED: ATOM     39  C28 UNL     1       4.655 -11.033   2.604 +0.00 +0.00    +0.234 C  
DOCKED: ATOM     40  O6  UNL     1       4.194 -11.919   3.326 +0.00 -0.00    -0.274 OA 
DOCKED: ATOM     41  N4  UNL     1       5.870 -10.425   2.831 +0.00 -0.00    -0.310 N  
DOCKED: ATOM     42  H42 UNL     1       6.325 -10.011   2.030 +0.00 +0.00    +0.149 HD 
DOCKED: BRANCH  41  43
DOCKED: ATOM     43  C29 UNL     1       6.741 -10.878   3.894 +0.00 +0.00    +0.139 C  
DOCKED: BRANCH  43  44
DOCKED: ATOM     44  C30 UNL     1       8.055 -11.356   3.337 +0.00 -0.00    -0.027 A  
DOCKED: ATOM     45  C31 UNL     1       8.134 -12.494   2.529 +0.00 +0.00    +0.025 A  
DOCKED: ATOM     46  C32 UNL     1       9.369 -12.859   2.017 +0.00 +0.00    +0.111 A  
DOCKED: ATOM     47  N5  UNL     1      10.512 -12.183   2.252 +0.00 -0.00    -0.263 NA 
DOCKED: ATOM     48  C33 UNL     1      10.420 -11.096   3.051 +0.00 +0.00    +0.111 A  
DOCKED: ATOM     49  C34 UNL     1       9.232 -10.648   3.605 +0.00 +0.00    +0.025 A  
DOCKED: ENDBRANCH  43  44
DOCKED: ENDBRANCH  41  43
DOCKED: ENDBRANCH  38  39
DOCKED: BRANCH  38  50
DOCKED: ATOM     50  C35 UNL     1       2.448 -11.069   1.334 +0.00 +0.00    +0.012 C  
DOCKED: ATOM     51  C36 UNL     1       1.509 -10.175   0.522 +0.00 +0.00    +0.009 C  
DOCKED: ATOM     52  C37 UNL     1       2.434 -12.483   0.735 +0.00 +0.00    +0.009 C  
DOCKED: ENDBRANCH  38  50
DOCKED: ENDBRANCH  36  38
DOCKED: ENDBRANCH  33  34
DOCKED: BRANCH  33  53
DOCKED: ATOM     53  C23 UNL     1       5.765 -11.761  -2.209 +0.00 +0.00    +0.015 C  
DOCKED: BRANCH  53  54
DOCKED: ATOM     54  C24 UNL     1       6.105 -13.254  -2.092 +0.00 +0.00    +0.034 C  
DOCKED: BRANCH  54  55
DOCKED: ATOM     55  C25 UNL     1       5.471 -13.959  -0.906 +0.00 +0.00    +0.213 C  
DOCKED: ATOM     56  F2  UNL     1       6.041 -13.524   0.251 +0.00 -0.00    -0.249 F  
DOCKED: ENDBRANCH  54  55
DOCKED: ENDBRANCH  53  54
DOCKED: ENDBRANCH  33  53
DOCKED: ENDBRANCH  32  33
DOCKED: ENDBRANCH  29  32
DOCKED: ENDBRANCH   1  29
DOCKED: TORSDOF 25
DOCKED: TER
DOCKED: ENDMDL
________________________________________________________________________________


    FINAL DOCKED STATE:
    ________________________


Run:   19 / 20
Time taken for this run:   2.777s

DOCKED: MODEL        19
DOCKED: USER    Run = 19
DOCKED: USER
DOCKED: USER    Estimated Free Energy of Binding    =  +7.46 kcal/mol  [=(1)+(2)+(3)-(4)]
DOCKED: USER
DOCKED: USER    (1) Final Intermolecular Energy     =  +0.00 kcal/mol
DOCKED: USER        vdW + Hbond + desolv Energy     =  +0.00 kcal/mol
DOCKED: USER        Electrostatic Energy            =  +0.00 kcal/mol
DOCKED: USER        Moving Ligand-Fixed Receptor    =  +0.00 kcal/mol
DOCKED: USER        Moving Ligand-Moving Receptor   =  +0.00 kcal/mol
DOCKED: USER    (2) Final Total Internal Energy     = -14.59 kcal/mol
DOCKED: USER    (3) Torsional Free Energy           =  +7.46 kcal/mol
DOCKED: USER    (4) Unbound System's Energy         = -14.59 kcal/mol
DOCKED: USER
DOCKED: USER
DOCKED: REMARK  Name = ligands/ligand_21.pdb
DOCKED: REMARK  29 active torsions:
DOCKED: REMARK  status: ('A' for Active; 'I' for Inactive)
DOCKED: REMARK    1  A    between atoms: C1_1  and  C2_2
DOCKED: REMARK    2  A    between atoms: C2_2  and  C3_3
DOCKED: REMARK    3  A    between atoms: C3_3  and  C4_4
DOCKED: REMARK    4  A    between atoms: C3_3  and  C5_5
DOCKED: REMARK    5  A    between atoms: C5_5  and  O1_6
DOCKED: REMARK    6  A    between atoms: C5_5  and  C6_7
DOCKED: REMARK    7  A    between atoms: N1_9  and  C7_10
DOCKED: REMARK    8  A    between atoms: C7_10  and  C8_11
DOCKED: REMARK    9  A    between atoms: C7_10  and  C11_15
DOCKED: REMARK   10  A    between atoms: C8_11  and  C9_12
DOCKED: REMARK   11  A    between atoms: C9_12  and  C10_13
DOCKED: REMARK   12  A    between atoms: N2_17  and  C12_18
DOCKED: REMARK   13  A    between atoms: C12_18  and  C13_19
DOCKED: REMARK   14  A    between atoms: C12_18  and  C20_26
DOCKED: REMARK   15  A    between atoms: C13_19  and  C14_20
DOCKED: REMARK   16  A    between atoms: C20_26  and  O4_27
DOCKED: REMARK   17  A    between atoms: C20_26  and  C21_28
DOCKED: REMARK   18  A    between atoms: C21_28  and  C22_29
DOCKED: REMARK   19  A    between atoms: C22_29  and  C23_30
DOCKED: REMARK   20  A    between atoms: C22_29  and  C26_34
DOCKED: REMARK   21  A    between atoms: C23_30  and  C24_31
DOCKED: REMARK   22  A    between atoms: C24_31  and  C25_32
DOCKED: REMARK   23  A    between atoms: N3_36  and  C27_37
DOCKED: REMARK   24  A    between atoms: C27_37  and  C28_38
DOCKED: REMARK   25  A    between atoms: C27_37  and  C35_48
DOCKED: REMARK   26  A    between atoms: N4_40  and  C29_41
DOCKED: REMARK   27  A    between atoms: C29_41  and  C30_42
DOCKED: REMARK   28  A    between atoms: C35_48  and  C36_49
DOCKED: REMARK   29  A    between atoms: C35_48  and  C37_50
DOCKED: REMARK                            x       y       z     vdW  Elec       q    Type
DOCKED: REMARK                         _______ _______ _______ _____ _____    ______ ____
DOCKED: USER                              x       y       z     vdW  Elec       q    Type
DOCKED: USER                           _______ _______ _______ _____ _____    ______ ____
DOCKED: ROOT
DOCKED: ATOM      1  C12 UNL     1      11.431  -6.346   4.568 +0.00 +0.00    +0.106 C  
DOCKED: ENDROOT
DOCKED: BRANCH   1   4
DOCKED: ATOM      2  C11 UNL     1      10.846  -4.647   2.851 +0.00 +0.00    +0.234 C  
DOCKED: ATOM      3  O3  UNL     1      11.702  -3.868   3.272 +0.00 -0.00    -0.274 OA 
DOCKED: ATOM      4  N2  UNL     1      10.614  -5.866   3.449 +0.00 -0.00    -0.308 N  
DOCKED: ATOM      5  H20 UNL     1       9.973  -6.508   3.000 +0.00 +0.00    +0.149 HD 
DOCKED: BRANCH   2   6
DOCKED: ATOM      6  C7  UNL     1       9.972  -4.383   1.609 +0.00 +0.00    +0.159 C  
DOCKED: BRANCH   6   9
DOCKED: ATOM      7  C6  UNL     1       8.161  -5.969   2.248 +0.00 +0.00    +0.243 C  
DOCKED: ATOM      8  O2  UNL     1       7.816  -5.293   3.215 +0.00 -0.00    -0.273 OA 
DOCKED: ATOM      9  N1  UNL     1       9.169  -5.592   1.399 +0.00 -0.00    -0.302 N  
DOCKED: ATOM     10  H12 UNL     1       9.457  -6.225   0.660 +0.00 +0.00    +0.150 HD 
DOCKED: BRANCH   7  11
DOCKED: ATOM     11  C5  UNL     1       7.475  -7.308   1.923 +0.00 +0.00    +0.203 C  
DOCKED: BRANCH  11  12
DOCKED: ATOM     12  C3  UNL     1       6.218  -7.526   2.794 +0.00 +0.00    +0.023 C  
DOCKED: ATOM     13  C4  UNL     1       5.066  -6.628   2.325 +0.00 +0.00    +0.010 C  
DOCKED: BRANCH  12  15
DOCKED: ATOM     14  C1  UNL     1       6.240  -9.767   4.144 +0.00 +0.00    +0.004 C  
DOCKED: ATOM     15  C2  UNL     1       5.749  -8.993   2.929 +0.00 +0.00    +0.003 C  
DOCKED: ENDBRANCH  12  15
DOCKED: ENDBRANCH  11  12
DOCKED: BRANCH  11  16
DOCKED: ATOM     16  O1  UNL     1       8.382  -8.392   2.035 +0.00 -0.00    -0.382 OA 
DOCKED: ATOM     17  H11 UNL     1       9.278  -7.992   2.103 +0.00 +0.00    +0.210 HD 
DOCKED: ENDBRANCH  11  16
DOCKED: ENDBRANCH   7  11
DOCKED: ENDBRANCH   6   9
DOCKED: BRANCH   6  18
DOCKED: ATOM     18  C8  UNL     1       9.102  -3.136   1.799 +0.00 +0.00    +0.034 C  
DOCKED: BRANCH  18  19
DOCKED: ATOM     19  C9  UNL     1       9.064  -2.571   3.220 +0.00 +0.00    +0.036 C  
DOCKED: BRANCH  19  20
DOCKED: ATOM     20  C10 UNL     1       7.668  -2.222   3.714 +0.00 +0.00    +0.213 C  
DOCKED: ATOM     21  F1  UNL     1       6.768  -2.763   2.844 +0.00 -0.00    -0.249 F  
DOCKED: ENDBRANCH  19  20
DOCKED: ENDBRANCH  18  19
DOCKED: ENDBRANCH   6  18
DOCKED: ENDBRANCH   2   6
DOCKED: ENDBRANCH   1   4
DOCKED: BRANCH   1  22
DOCKED: ATOM     22  C13 UNL     1      10.892  -5.833   5.923 +0.00 +0.00    +0.060 C  
DOCKED: BRANCH  22  23
DOCKED: ATOM     23  C14 UNL     1       9.380  -5.858   6.075 +0.00 -0.00    -0.046 A  
DOCKED: ATOM     24  C15 UNL     1       8.638  -7.046   6.025 +0.00 +0.00    +0.004 A  
DOCKED: ATOM     25  C16 UNL     1       7.243  -7.025   6.132 +0.00 +0.00    +0.000 A  
DOCKED: ATOM     26  C17 UNL     1       6.570  -5.814   6.260 +0.00 +0.00    +0.000 A  
DOCKED: ATOM     27  C18 UNL     1       7.295  -4.621   6.288 +0.00 +0.00    +0.000 A  
DOCKED: ATOM     28  C19 UNL     1       8.688  -4.644   6.194 +0.00 +0.00    +0.004 A  
DOCKED: ENDBRANCH  22  23
DOCKED: ENDBRANCH   1  22
DOCKED: BRANCH   1  29
DOCKED: ATOM     29  C20 UNL     1      11.566  -7.899   4.533 +0.00 +0.00    +0.136 C  
DOCKED: BRANCH  29  30
DOCKED: ATOM     30  O4  UNL     1      10.428  -8.466   3.886 +0.00 -0.00    -0.390 OA 
DOCKED: ATOM     31  H30 UNL     1      10.264  -7.938   3.081 +0.00 +0.00    +0.210 HD 
DOCKED: ENDBRANCH  29  30
DOCKED: BRANCH  29  32
DOCKED: ATOM     32  C21 UNL     1      12.847  -8.384   3.831 +0.00 +0.00    +0.046 C  
DOCKED: BRANCH  32  33
DOCKED: ATOM     33  C22 UNL     1      13.000  -7.804   2.403 +0.00 +0.00    +0.078 C  
DOCKED: BRANCH  33  34
DOCKED: ATOM     34  C26 UNL     1      11.892  -8.249   1.435 +0.00 +0.00    +0.217 C  
DOCKED: ATOM     35  O5  UNL     1      10.772  -7.749   1.411 +0.00 -0.00    -0.275 OA 
DOCKED: ATOM     36  N3  UNL     1      12.215  -9.344   0.657 +0.00 -0.00    -0.304 N  
DOCKED: ATOM     37  H40 UNL     1      12.909  -9.976   1.041 +0.00 +0.00    +0.149 HD 
DOCKED: BRANCH  36  38
DOCKED: ATOM     38  C27 UNL     1      11.187  -9.995  -0.153 +0.00 +0.00    +0.161 C  
DOCKED: BRANCH  38  39
DOCKED: ATOM     39  C28 UNL     1      10.593 -11.079   0.773 +0.00 +0.00    +0.234 C  
DOCKED: ATOM     40  O6  UNL     1      10.766 -12.281   0.564 +0.00 -0.00    -0.274 OA 
DOCKED: ATOM     41  N4  UNL     1       9.835 -10.591   1.815 +0.00 -0.00    -0.310 N  
DOCKED: ATOM     42  H42 UNL     1      10.047  -9.655   2.128 +0.00 +0.00    +0.149 HD 
DOCKED: BRANCH  41  43
DOCKED: ATOM     43  C29 UNL     1       9.276 -11.483   2.809 +0.00 +0.00    +0.139 C  
DOCKED: BRANCH  43  44
DOCKED: ATOM     44  C30 UNL     1       9.944 -11.280   4.141 +0.00 -0.00    -0.027 A  
DOCKED: ATOM     45  C31 UNL     1      11.308 -11.531   4.319 +0.00 +0.00    +0.025 A  
DOCKED: ATOM     46  C32 UNL     1      11.871 -11.288   5.563 +0.00 +0.00    +0.111 A  
DOCKED: ATOM     47  N5  UNL     1      11.180 -10.825   6.624 +0.00 -0.00    -0.263 NA 
DOCKED: ATOM     48  C33 UNL     1       9.859 -10.606   6.439 +0.00 +0.00    +0.111 A  
DOCKED: ATOM     49  C34 UNL     1       9.207 -10.813   5.234 +0.00 +0.00    +0.025 A  
DOCKED: ENDBRANCH  43  44
DOCKED: ENDBRANCH  41  43
DOCKED: ENDBRANCH  38  39
DOCKED: BRANCH  38  50
DOCKED: ATOM     50  C35 UNL     1      11.792 -10.628  -1.428 +0.00 +0.00    +0.012 C  
DOCKED: ATOM     51  C36 UNL     1      11.801  -9.640  -2.595 +0.00 +0.00    +0.009 C  
DOCKED: ATOM     52  C37 UNL     1      13.225 -11.126  -1.182 +0.00 +0.00    +0.009 C  
DOCKED: ENDBRANCH  38  50
DOCKED: ENDBRANCH  36  38
DOCKED: ENDBRANCH  33  34
DOCKED: BRANCH  33  53
DOCKED: ATOM     53  C23 UNL     1      14.406  -7.976   1.781 +0.00 +0.00    +0.015 C  
DOCKED: BRANCH  53  54
DOCKED: ATOM     54  C24 UNL     1      15.346  -9.023   2.396 +0.00 +0.00    +0.034 C  
DOCKED: BRANCH  54  55
DOCKED: ATOM     55  C25 UNL     1      15.091 -10.450   1.944 +0.00 +0.00    +0.213 C  
DOCKED: ATOM     56  F2  UNL     1      13.929 -10.907   2.485 +0.00 -0.00    -0.249 F  
DOCKED: ENDBRANCH  54  55
DOCKED: ENDBRANCH  53  54
DOCKED: ENDBRANCH  33  53
DOCKED: ENDBRANCH  32  33
DOCKED: ENDBRANCH  29  32
DOCKED: ENDBRANCH   1  29
DOCKED: TORSDOF 25
DOCKED: TER
DOCKED: ENDMDL
________________________________________________________________________________


    FINAL DOCKED STATE:
    ________________________


Run:   20 / 20
Time taken for this run:   2.777s

DOCKED: MODEL        20
DOCKED: USER    Run = 20
DOCKED: USER
DOCKED: USER    Estimated Free Energy of Binding    =  +7.46 kcal/mol  [=(1)+(2)+(3)-(4)]
DOCKED: USER
DOCKED: USER    (1) Final Intermolecular Energy     =  +0.00 kcal/mol
DOCKED: USER        vdW + Hbond + desolv Energy     =  +0.00 kcal/mol
DOCKED: USER        Electrostatic Energy            =  +0.00 kcal/mol
DOCKED: USER        Moving Ligand-Fixed Receptor    =  +0.00 kcal/mol
DOCKED: USER        Moving Ligand-Moving Receptor   =  +0.00 kcal/mol
DOCKED: USER    (2) Final Total Internal Energy     = -14.47 kcal/mol
DOCKED: USER    (3) Torsional Free Energy           =  +7.46 kcal/mol
DOCKED: USER    (4) Unbound System's Energy         = -14.47 kcal/mol
DOCKED: USER
DOCKED: USER
DOCKED: REMARK  Name = ligands/ligand_21.pdb
DOCKED: REMARK  29 active torsions:
DOCKED: REMARK  status: ('A' for Active; 'I' for Inactive)
DOCKED: REMARK    1  A    between atoms: C1_1  and  C2_2
DOCKED: REMARK    2  A    between atoms: C2_2  and  C3_3
DOCKED: REMARK    3  A    between atoms: C3_3  and  C4_4
DOCKED: REMARK    4  A    between atoms: C3_3  and  C5_5
DOCKED: REMARK    5  A    between atoms: C5_5  and  O1_6
DOCKED: REMARK    6  A    between atoms: C5_5  and  C6_7
DOCKED: REMARK    7  A    between atoms: N1_9  and  C7_10
DOCKED: REMARK    8  A    between atoms: C7_10  and  C8_11
DOCKED: REMARK    9  A    between atoms: C7_10  and  C11_15
DOCKED: REMARK   10  A    between atoms: C8_11  and  C9_12
DOCKED: REMARK   11  A    between atoms: C9_12  and  C10_13
DOCKED: REMARK   12  A    between atoms: N2_17  and  C12_18
DOCKED: REMARK   13  A    between atoms: C12_18  and  C13_19
DOCKED: REMARK   14  A    between atoms: C12_18  and  C20_26
DOCKED: REMARK   15  A    between atoms: C13_19  and  C14_20
DOCKED: REMARK   16  A    between atoms: C20_26  and  O4_27
DOCKED: REMARK   17  A    between atoms: C20_26  and  C21_28
DOCKED: REMARK   18  A    between atoms: C21_28  and  C22_29
DOCKED: REMARK   19  A    between atoms: C22_29  and  C23_30
DOCKED: REMARK   20  A    between atoms: C22_29  and  C26_34
DOCKED: REMARK   21  A    between atoms: C23_30  and  C24_31
DOCKED: REMARK   22  A    between atoms: C24_31  and  C25_32
DOCKED: REMARK   23  A    between atoms: N3_36  and  C27_37
DOCKED: REMARK   24  A    between atoms: C27_37  and  C28_38
DOCKED: REMARK   25  A    between atoms: C27_37  and  C35_48
DOCKED: REMARK   26  A    between atoms: N4_40  and  C29_41
DOCKED: REMARK   27  A    between atoms: C29_41  and  C30_42
DOCKED: REMARK   28  A    between atoms: C35_48  and  C36_49
DOCKED: REMARK   29  A    between atoms: C35_48  and  C37_50
DOCKED: REMARK                            x       y       z     vdW  Elec       q    Type
DOCKED: REMARK                         _______ _______ _______ _____ _____    ______ ____
DOCKED: USER                              x       y       z     vdW  Elec       q    Type
DOCKED: USER                           _______ _______ _______ _____ _____    ______ ____
DOCKED: ROOT
DOCKED: ATOM      1  C12 UNL     1      12.020  -3.733  -0.301 +0.00 +0.00    +0.106 C  
DOCKED: ENDROOT
DOCKED: BRANCH   1   4
DOCKED: ATOM      2  C11 UNL     1      10.038  -4.707  -1.442 +0.00 +0.00    +0.234 C  
DOCKED: ATOM      3  O3  UNL     1      10.427  -4.314  -2.541 +0.00 -0.00    -0.274 OA 
DOCKED: ATOM      4  N2  UNL     1      10.731  -4.433  -0.283 +0.00 -0.00    -0.308 N  
DOCKED: ATOM      5  H20 UNL     1      10.422  -4.868   0.577 +0.00 +0.00    +0.149 HD 
DOCKED: BRANCH   2   6
DOCKED: ATOM      6  C7  UNL     1       8.777  -5.568  -1.228 +0.00 +0.00    +0.159 C  
DOCKED: BRANCH   6   9
DOCKED: ATOM      7  C6  UNL     1       9.755  -6.709   0.759 +0.00 +0.00    +0.243 C  
DOCKED: ATOM      8  O2  UNL     1      10.752  -7.078   0.141 +0.00 -0.00    -0.273 OA 
DOCKED: ATOM      9  N1  UNL     1       8.767  -5.949   0.189 +0.00 -0.00    -0.302 N  
DOCKED: ATOM     10  H12 UNL     1       7.934  -5.734   0.726 +0.00 +0.00    +0.150 HD 
DOCKED: BRANCH   7  11
DOCKED: ATOM     11  C5  UNL     1       9.545  -7.084   2.237 +0.00 +0.00    +0.203 C  
DOCKED: BRANCH  11  12
DOCKED: ATOM     12  C3  UNL     1       8.818  -5.961   3.008 +0.00 +0.00    +0.023 C  
DOCKED: ATOM     13  C4  UNL     1       7.350  -6.332   3.260 +0.00 +0.00    +0.010 C  
DOCKED: BRANCH  12  15
DOCKED: ATOM     14  C1  UNL     1      10.836  -4.787   4.190 +0.00 +0.00    +0.004 C  
DOCKED: ATOM     15  C2  UNL     1       9.499  -5.505   4.319 +0.00 +0.00    +0.003 C  
DOCKED: ENDBRANCH  12  15
DOCKED: ENDBRANCH  11  12
DOCKED: BRANCH  11  16
DOCKED: ATOM     16  O1  UNL     1      10.771  -7.434   2.858 +0.00 -0.00    -0.382 OA 
DOCKED: ATOM     17  H11 UNL     1      11.481  -7.115   2.258 +0.00 +0.00    +0.210 HD 
DOCKED: ENDBRANCH  11  16
DOCKED: ENDBRANCH   7  11
DOCKED: ENDBRANCH   6   9
DOCKED: BRANCH   6  18
DOCKED: ATOM     18  C8  UNL     1       7.511  -4.805  -1.631 +0.00 +0.00    +0.034 C  
DOCKED: BRANCH  18  19
DOCKED: ATOM     19  C9  UNL     1       7.236  -3.523  -0.842 +0.00 +0.00    +0.036 C  
DOCKED: BRANCH  19  20
DOCKED: ATOM     20  C10 UNL     1       6.330  -3.718   0.365 +0.00 +0.00    +0.213 C  
DOCKED: ATOM     21  F1  UNL     1       7.120  -3.960   1.449 +0.00 -0.00    -0.249 F  
DOCKED: ENDBRANCH  19  20
DOCKED: ENDBRANCH  18  19
DOCKED: ENDBRANCH   6  18
DOCKED: ENDBRANCH   2   6
DOCKED: ENDBRANCH   1   4
DOCKED: BRANCH   1  22
DOCKED: ATOM     22  C13 UNL     1      11.854  -2.236   0.047 +0.00 +0.00    +0.060 C  
DOCKED: BRANCH  22  23
DOCKED: ATOM     23  C14 UNL     1      10.547  -1.865   0.728 +0.00 -0.00    -0.046 A  
DOCKED: ATOM     24  C15 UNL     1       9.605  -1.014   0.135 +0.00 +0.00    +0.004 A  
DOCKED: ATOM     25  C16 UNL     1       8.430  -0.665   0.809 +0.00 +0.00    +0.000 A  
DOCKED: ATOM     26  C17 UNL     1       8.194  -1.140   2.095 +0.00 +0.00    +0.000 A  
DOCKED: ATOM     27  C18 UNL     1       9.135  -1.970   2.707 +0.00 +0.00    +0.000 A  
DOCKED: ATOM     28  C19 UNL     1      10.302  -2.328   2.029 +0.00 +0.00    +0.004 A  
DOCKED: ENDBRANCH  22  23
DOCKED: ENDBRANCH   1  22
DOCKED: BRANCH   1  29
DOCKED: ATOM     29  C20 UNL     1      13.053  -4.445   0.624 +0.00 +0.00    +0.136 C  
DOCKED: BRANCH  29  30
DOCKED: ATOM     30  O4  UNL     1      12.369  -5.289   1.550 +0.00 -0.00    -0.390 OA 
DOCKED: ATOM     31  H30 UNL     1      11.915  -5.978   1.027 +0.00 +0.00    +0.210 HD 
DOCKED: ENDBRANCH  29  30
DOCKED: BRANCH  29  32
DOCKED: ATOM     32  C21 UNL     1      14.094  -5.275  -0.149 +0.00 +0.00    +0.046 C  
DOCKED: BRANCH  32  33
DOCKED: ATOM     33  C22 UNL     1      13.503  -6.588  -0.722 +0.00 +0.00    +0.078 C  
DOCKED: BRANCH  33  34
DOCKED: ATOM     34  C26 UNL     1      13.911  -7.842   0.067 +0.00 +0.00    +0.217 C  
DOCKED: ATOM     35  O5  UNL     1      14.619  -8.732  -0.395 +0.00 -0.00    -0.275 OA 
DOCKED: ATOM     36  N3  UNL     1      13.327  -7.951   1.313 +0.00 -0.00    -0.304 N  
DOCKED: ATOM     37  H40 UNL     1      12.436  -7.482   1.432 +0.00 +0.00    +0.149 HD 
DOCKED: BRANCH  36  38
DOCKED: ATOM     38  C27 UNL     1      13.467  -9.188   2.081 +0.00 +0.00    +0.161 C  
DOCKED: BRANCH  38  39
DOCKED: ATOM     39  C28 UNL     1      12.578 -10.209   1.335 +0.00 +0.00    +0.234 C  
DOCKED: ATOM     40  O6  UNL     1      12.917 -11.385   1.192 +0.00 -0.00    -0.274 OA 
DOCKED: ATOM     41  N4  UNL     1      11.411  -9.687   0.823 +0.00 -0.00    -0.310 N  
DOCKED: ATOM     42  H42 UNL     1      11.041  -8.869   1.284 +0.00 +0.00    +0.149 HD 
DOCKED: BRANCH  41  43
DOCKED: ATOM     43  C29 UNL     1      10.443 -10.538   0.164 +0.00 +0.00    +0.139 C  
DOCKED: BRANCH  43  44
DOCKED: ATOM     44  C30 UNL     1       9.076  -9.911   0.194 +0.00 -0.00    -0.027 A  
DOCKED: ATOM     45  C31 UNL     1       8.290  -9.930   1.350 +0.00 +0.00    +0.025 A  
DOCKED: ATOM     46  C32 UNL     1       7.055  -9.301   1.323 +0.00 +0.00    +0.111 A  
DOCKED: ATOM     47  N5  UNL     1       6.556  -8.668   0.242 +0.00 -0.00    -0.263 NA 
DOCKED: ATOM     48  C33 UNL     1       7.321  -8.676  -0.872 +0.00 +0.00    +0.111 A  
DOCKED: ATOM     49  C34 UNL     1       8.570  -9.272  -0.943 +0.00 +0.00    +0.025 A  
DOCKED: ENDBRANCH  43  44
DOCKED: ENDBRANCH  41  43
DOCKED: ENDBRANCH  38  39
DOCKED: BRANCH  38  50
DOCKED: ATOM     50  C35 UNL     1      12.989  -9.002   3.540 +0.00 +0.00    +0.012 C  
DOCKED: ATOM     51  C36 UNL     1      13.385 -10.192   4.416 +0.00 +0.00    +0.009 C  
DOCKED: ATOM     52  C37 UNL     1      13.557  -7.715   4.158 +0.00 +0.00    +0.009 C  
DOCKED: ENDBRANCH  38  50
DOCKED: ENDBRANCH  36  38
DOCKED: ENDBRANCH  33  34
DOCKED: BRANCH  33  53
DOCKED: ATOM     53  C23 UNL     1      13.704  -6.778  -2.244 +0.00 +0.00    +0.015 C  
DOCKED: BRANCH  53  54
DOCKED: ATOM     54  C24 UNL     1      12.463  -7.022  -3.113 +0.00 +0.00    +0.034 C  
DOCKED: BRANCH  54  55
DOCKED: ATOM     55  C25 UNL     1      11.504  -8.070  -2.573 +0.00 +0.00    +0.213 C  
DOCKED: ATOM     56  F2  UNL     1      10.220  -7.690  -2.813 +0.00 -0.00    -0.249 F  
DOCKED: ENDBRANCH  54  55
DOCKED: ENDBRANCH  53  54
DOCKED: ENDBRANCH  33  53
DOCKED: ENDBRANCH  32  33
DOCKED: ENDBRANCH  29  32
DOCKED: ENDBRANCH   1  29
DOCKED: TORSDOF 25
DOCKED: TER
DOCKED: ENDMDL
________________________________________________________________________________


    CLUSTERING HISTOGRAM
    ____________________


________________________________________________________________________________
     |           |     |           |     |
Clus | Lowest    | Run | Mean      | Num | Histogram
-ter | Binding   |     | Binding   | in  |
Rank | Energy    |     | Energy    | Clus|    5    10   15   20   25   30   35
_____|___________|_____|___________|_____|____:____|____:____|____:____|____:___
   1 |     +7.46 |   1 |     +7.46 |   1 |#
   2 |     +7.46 |   2 |     +7.46 |   1 |#
   3 |     +7.46 |   3 |     +7.46 |   1 |#
   4 |     +7.46 |   4 |     +7.46 |   1 |#
   5 |     +7.46 |   5 |     +7.46 |   1 |#
   6 |     +7.46 |   6 |     +7.46 |   1 |#
   7 |     +7.46 |   7 |     +7.46 |   1 |#
   8 |     +7.46 |   8 |     +7.46 |   1 |#
   9 |     +7.46 |   9 |     +7.46 |   1 |#
  10 |     +7.46 |  10 |     +7.46 |   1 |#
  11 |     +7.46 |  11 |     +7.46 |   1 |#
  12 |     +7.46 |  12 |     +7.46 |   1 |#
  13 |     +7.46 |  13 |     +7.46 |   1 |#
  14 |     +7.46 |  14 |     +7.46 |   1 |#
  15 |     +7.46 |  15 |     +7.46 |   1 |#
  16 |     +7.46 |  16 |     +7.46 |   1 |#
  17 |     +7.46 |  17 |     +7.46 |   1 |#
  18 |     +7.46 |  18 |     +7.46 |   1 |#
  19 |     +7.46 |  19 |     +7.46 |   1 |#
  20 |     +7.46 |  20 |     +7.46 |   1 |#
_____|___________|_____|___________|_____|______________________________________


    RMSD TABLE
    __________


_______________________________________________________________________
     |      |      |           |         |                 |
Rank | Sub- | Run  | Binding   | Cluster | Reference       | Grep
     | Rank |      | Energy    | RMSD    | RMSD            | Pattern
_____|______|______|___________|_________|_________________|___________
   1      1      1       +7.46      0.00      7.82           RANKING
   2      1      2       +7.46      0.00     11.88           RANKING
   3      1      3       +7.46      0.00      7.18           RANKING
   4      1      4       +7.46      0.00     10.13           RANKING
   5      1      5       +7.46      0.00      7.72           RANKING
   6      1      6       +7.46      0.00      7.61           RANKING
   7      1      7       +7.46      0.00     11.88           RANKING
   8      1      8       +7.46      0.00     12.04           RANKING
   9      1      9       +7.46      0.00     12.94           RANKING
  10      1     10       +7.46      0.00      6.23           RANKING
  11      1     11       +7.46      0.00      9.30           RANKING
  12      1     12       +7.46      0.00      8.17           RANKING
  13      1     13       +7.46      0.00     13.62           RANKING
  14      1     14       +7.46      0.00     11.26           RANKING
  15      1     15       +7.46      0.00      7.36           RANKING
  16      1     16       +7.46      0.00     14.43           RANKING
  17      1     17       +7.46      0.00      7.46           RANKING
  18      1     18       +7.46      0.00      9.26           RANKING
  19      1     19       +7.46      0.00     10.24           RANKING
  20      1     20       +7.46      0.00      9.53           RANKING

Run time 55.917 sec
Idle time 0.290 sec
