REMARK  Name = ligands/ligand_38.pdb
REMARK  93 active torsions:
REMARK  status: ('A' for Active; 'I' for Inactive)
REMARK    1  A    between atoms: C1_1  and  C2_2
REMARK    2  A    between atoms: C2_2  and  C3_3
REMARK    3  A    between atoms: C3_3  and  C4_4
REMARK    4  A    between atoms: C3_3  and  C5_5
REMARK    5  A    between atoms: C5_5  and  N1_6
REMARK    6  A    between atoms: C5_5  and  C40_64
REMARK    7  A    between atoms: C6_7  and  C7_9
REMARK    8  A    between atoms: C7_9  and  C8_10
REMARK    9  A    between atoms: C7_9  and  N2_15
REMARK   10  A    between atoms: C8_10  and  C9_11
REMARK   11  A    between atoms: C9_11  and  C10_12
REMARK   12  A    between atoms: C10_12  and  O3_14
REMARK   13  A    between atoms: C11_16  and  C12_18
REMARK   14  A    between atoms: C12_18  and  C13_19
REMARK   15  A    between atoms: C12_18  and  N3_24
REMARK   16  A    between atoms: C13_19  and  C14_20
REMARK   17  A    between atoms: C14_20  and  C15_21
REMARK   18  A    between atoms: C15_21  and  O6_23
REMARK   19  A    between atoms: C16_25  and  C17_27
REMARK   20  A    between atoms: C17_27  and  N4_28
REMARK   21  A    between atoms: C17_27  and  C38_61
REMARK   22  A    between atoms: C18_29  and  C19_31
REMARK   23  A    between atoms: C19_31  and  C20_32
REMARK   24  A    between atoms: C19_31  and  N6_37
REMARK   25  A    between atoms: C20_32  and  C21_33
REMARK   26  A    between atoms: C21_33  and  C22_34
REMARK   27  A    between atoms: C22_34  and  C23_35
REMARK   28  A    between atoms: C23_35  and  N5_36
REMARK   29  A    between atoms: C24_38  and  C25_40
REMARK   30  A    between atoms: C25_40  and  N7_41
REMARK   31  A    between atoms: C25_40  and  C34_57
REMARK   32  A    between atoms: C26_42  and  C27_44
REMARK   33  A    between atoms: C27_44  and  C28_45
REMARK   34  A    between atoms: C27_44  and  N9_49
REMARK   35  A    between atoms: C28_45  and  C29_46
REMARK   36  A    between atoms: C30_50  and  C31_52
REMARK   37  A    between atoms: C31_52  and  N10_53
REMARK   38  A    between atoms: C31_52  and  C32_54
REMARK   39  A    between atoms: C32_54  and  C33_55
REMARK   40  A    between atoms: C32_54  and  O13_56
REMARK   41  A    between atoms: C34_57  and  C35_58
REMARK   42  A    between atoms: C34_57  and  C36_59
REMARK   43  A    between atoms: C36_59  and  C37_60
REMARK   44  A    between atoms: C38_61  and  C39_62
REMARK   45  A    between atoms: C38_61  and  O14_63
REMARK   46  A    between atoms: N11_66  and  C41_67
REMARK   47  A    between atoms: C41_67  and  C42_68
REMARK   48  A    between atoms: C41_67  and  C43_70
REMARK   49  A    between atoms: C42_68  and  O16_69
REMARK   50  A    between atoms: N12_72  and  C44_73
REMARK   51  A    between atoms: C44_73  and  C45_74
REMARK   52  A    between atoms: C44_73  and  C48_79
REMARK   53  A    between atoms: C45_74  and  C46_75
REMARK   54  A    between atoms: C46_75  and  C47_76
REMARK   55  A    between atoms: C47_76  and  O19_78
REMARK   56  A    between atoms: N13_81  and  C49_82
REMARK   57  A    between atoms: C49_82  and  C50_83
REMARK   58  A    between atoms: C49_82  and  C88_148
REMARK   59  A    between atoms: N14_85  and  C51_86
REMARK   60  A    between atoms: C51_86  and  C52_87
REMARK   61  A    between atoms: C51_86  and  C54_91
REMARK   62  A    between atoms: C52_87  and  C53_88
REMARK   63  A    between atoms: N16_93  and  C55_94
REMARK   64  A    between atoms: C55_94  and  C56_95
REMARK   65  A    between atoms: C55_94  and  C60_101
REMARK   66  A    between atoms: C56_95  and  C57_96
REMARK   67  A    between atoms: N19_103  and  C61_104
REMARK   68  A    between atoms: C61_104  and  C62_105
REMARK   69  A    between atoms: C61_104  and  C64_109
REMARK   70  A    between atoms: C62_105  and  C63_106
REMARK   71  A    between atoms: C63_106  and  O26_108
REMARK   72  A    between atoms: N20_111  and  C65_112
REMARK   73  A    between atoms: C65_112  and  C66_113
REMARK   74  A    between atoms: C65_112  and  C67_114
REMARK   75  A    between atoms: N21_116  and  C68_117
REMARK   76  A    between atoms: C68_117  and  C69_118
REMARK   77  A    between atoms: C68_117  and  C72_123
REMARK   78  A    between atoms: C69_118  and  C70_119
REMARK   79  A    between atoms: C70_119  and  C71_120
REMARK   80  A    between atoms: C71_120  and  O30_122
REMARK   81  A    between atoms: N22_125  and  C73_126
REMARK   82  A    between atoms: C73_126  and  C74_127
REMARK   83  A    between atoms: C73_126  and  C81_134
REMARK   84  A    between atoms: C74_127  and  C75_128
REMARK   85  A    between atoms: N23_136  and  C82_137
REMARK   86  A    between atoms: C82_137  and  C83_138
REMARK   87  A    between atoms: C82_137  and  C87_145
REMARK   88  A    between atoms: C83_138  and  C84_139
REMARK   89  A    between atoms: C84_139  and  C85_140
REMARK   90  A    between atoms: C85_140  and  N24_141
REMARK   91  A    between atoms: C87_145  and  O34_147
REMARK   92  A    between atoms: C88_148  and  C89_149
REMARK   93  A    between atoms: C88_148  and  C90_150
REMARK                            x       y       z     vdW  Elec       q    Type
REMARK                         _______ _______ _______ _____ _____    ______ ____
ROOT
ATOM      1  C44 UNL     1       6.487   0.207   7.368  0.00  0.00    +0.159 C 
ENDROOT
BRANCH   1   2
ATOM      2  C48 UNL     1       7.755   0.782   6.704  0.00  0.00    +0.234 C 
ATOM      3  O20 UNL     1       8.569   1.490   7.287  0.00  0.00    -0.274 OA
ATOM      4  N13 UNL     1       7.835   0.491   5.354  0.00  0.00    -0.302 N 
ATOM      5  H82 UNL     1       6.957   0.157   4.954  0.00  0.00    +0.150 HD
BRANCH   4   6
ATOM      6  C49 UNL     1       8.607   1.326   4.431  0.00  0.00    +0.161 C 
BRANCH   6   7
ATOM      7  C50 UNL     1       7.615   2.387   3.886  0.00  0.00    +0.234 C 
ATOM      8  O21 UNL     1       6.395   2.205   3.882  0.00  0.00    -0.274 OA
ATOM      9  N14 UNL     1       8.189   3.529   3.363  0.00  0.00    -0.302 N 
ATOM     10  H84 UNL     1       9.079   3.755   3.810  0.00  0.00    +0.150 HD
BRANCH   9  11
ATOM     11  C51 UNL     1       7.334   4.713   3.147  0.00  0.00    +0.168 C 
BRANCH  11  12
ATOM     12  C54 UNL     1       6.309   4.510   2.008  0.00  0.00    +0.234 C 
ATOM     13  O23 UNL     1       5.253   5.133   1.956  0.00  0.00    -0.274 OA
ATOM     14  N16 UNL     1       6.768   3.736   0.967  0.00  0.00    -0.302 N 
ATOM     15  H90 UNL     1       7.624   3.202   1.110  0.00  0.00    +0.150 HD
BRANCH  14  16
ATOM     16  C55 UNL     1       5.953   3.362  -0.189  0.00  0.00    +0.165 C 
BRANCH  16  17
ATOM     17  C60 UNL     1       6.422   1.950  -0.595  0.00  0.00    +0.234 C 
ATOM     18  O24 UNL     1       7.601   1.604  -0.461  0.00  0.00    -0.274 OA
ATOM     19  N19 UNL     1       5.462   1.125  -1.141  0.00  0.00    -0.302 N 
ATOM     20  H97 UNL     1       4.568   1.530  -1.402  0.00  0.00    +0.150 HD
BRANCH  19  21
ATOM     21  C61 UNL     1       5.835  -0.185  -1.692  0.00  0.00    +0.169 C 
BRANCH  21  22
ATOM     22  C64 UNL     1       6.108  -0.015  -3.204  0.00  0.00    +0.234 C 
ATOM     23  O27 UNL     1       7.203  -0.289  -3.695  0.00  0.00    -0.274 OA
ATOM     24  N20 UNL     1       5.054   0.454  -3.966  0.00  0.00    -0.303 N 
ATOM     25  HA2 UNL     1       4.139   0.584  -3.555  0.00  0.00    +0.149 HD
BRANCH  24  26
ATOM     26  C65 UNL     1       5.237   0.771  -5.385  0.00  0.00    +0.156 C 
ATOM     27  C66 UNL     1       5.311  -0.486  -6.251  0.00  0.00    +0.038 C 
BRANCH  26  28
ATOM     28  C67 UNL     1       4.187   1.819  -5.832  0.00  0.00    +0.234 C 
ATOM     29  O28 UNL     1       4.088   2.912  -5.266  0.00  0.00    -0.274 OA
ATOM     30  N21 UNL     1       3.353   1.468  -6.873  0.00  0.00    -0.302 N 
ATOM     31  HA7 UNL     1       3.090   0.492  -6.931  0.00  0.00    +0.150 HD
BRANCH  30  32
ATOM     32  C68 UNL     1       2.358   2.417  -7.378  0.00  0.00    +0.159 C 
BRANCH  32  33
ATOM     33  C72 UNL     1       1.156   2.455  -6.406  0.00  0.00    +0.234 C 
ATOM     34  O31 UNL     1       0.852   1.505  -5.686  0.00  0.00    -0.274 OA
ATOM     35  N22 UNL     1       0.446   3.639  -6.440  0.00  0.00    -0.302 N 
ATOM     36  HB4 UNL     1       0.552   4.230  -7.255  0.00  0.00    +0.150 HD
BRANCH  35  37
ATOM     37  C73 UNL     1      -0.795   3.807  -5.684  0.00  0.00    +0.163 C 
BRANCH  37  38
ATOM     38  C81 UNL     1      -1.931   3.116  -6.468  0.00  0.00    +0.234 C 
ATOM     39  O32 UNL     1      -1.842   2.840  -7.665  0.00  0.00    -0.274 OA
ATOM     40  N23 UNL     1      -3.067   2.867  -5.736  0.00  0.00    -0.301 N 
ATOM     41  HC3 UNL     1      -3.099   3.091  -4.747  0.00  0.00    +0.150 HD
BRANCH  40  42
ATOM     42  C82 UNL     1      -4.198   2.092  -6.266  0.00  0.00    +0.182 C 
BRANCH  42  43
ATOM     43  C87 UNL     1      -5.446   2.716  -5.640  0.00  0.00    +0.325 C 
ATOM     44  O33 UNL     1      -5.580   3.054  -4.471  0.00  0.00    -0.249 OA
BRANCH  43  45
ATOM     45  O34 UNL     1      -6.439   2.935  -6.525  0.00  0.00    -0.479 OA
ATOM     46  HD5 UNL     1      -7.176   3.242  -5.959  0.00  0.00    +0.295 HD
ENDBRANCH  43  45
ENDBRANCH  42  43
BRANCH  42  47
ATOM     47  C83 UNL     1      -4.016   0.620  -5.872  0.00  0.00    +0.035 C 
BRANCH  47  48
ATOM     48  C84 UNL     1      -4.723  -0.401  -6.771  0.00  0.00    +0.026 C 
BRANCH  48  49
ATOM     49  C85 UNL     1      -6.238  -0.260  -6.893  0.00  0.00    +0.145 C 
BRANCH  49  50
ATOM     50  N24 UNL     1      -6.806  -0.086  -5.564  0.00  0.00    -0.253 NA
ATOM     51  C86 UNL     1      -8.076  -0.122  -5.427  0.00  0.00    +0.188 C 
ATOM     52  N25 UNL     1      -8.621   0.052  -4.204  0.00  0.00    -0.370 N 
ATOM     53  N26 UNL     1      -9.046  -0.307  -6.345  0.00  0.00    -0.370 N 
ATOM     54  HD1 UNL     1      -9.331  -0.642  -4.007  0.00  0.00    +0.159 HD
ATOM     55  HD2 UNL     1      -7.886   0.026  -3.501  0.00  0.00    +0.159 HD
ATOM     56  HD3 UNL     1      -9.865   0.257  -6.168  0.00  0.00    +0.159 HD
ATOM     57  HD4 UNL     1      -8.746  -0.211  -7.311  0.00  0.00    +0.159 HD
ENDBRANCH  49  50
ENDBRANCH  48  49
ENDBRANCH  47  48
ENDBRANCH  42  47
ENDBRANCH  40  42
ENDBRANCH  37  38
BRANCH  37  58
ATOM     58  C74 UNL     1      -1.094   5.306  -5.514  0.00  0.00    +0.067 C 
BRANCH  58  59
ATOM     59  C75 UNL     1      -1.951   5.622  -4.315  0.00  0.00    -0.045 A 
ATOM     60  C76 UNL     1      -1.382   5.667  -3.034  0.00  0.00    +0.004 A 
ATOM     61  C77 UNL     1      -2.173   5.947  -1.920  0.00  0.00    +0.000 A 
ATOM     62  C78 UNL     1      -3.537   6.174  -2.071  0.00  0.00    +0.000 A 
ATOM     63  C79 UNL     1      -4.112   6.137  -3.339  0.00  0.00    +0.000 A 
ATOM     64  C80 UNL     1      -3.322   5.869  -4.459  0.00  0.00    +0.004 A 
ENDBRANCH  58  59
ENDBRANCH  37  58
ENDBRANCH  35  37
ENDBRANCH  32  33
BRANCH  32  65
ATOM     65  C69 UNL     1       1.922   1.998  -8.791  0.00  0.00    +0.043 C 
BRANCH  65  66
ATOM     66  C70 UNL     1       1.246   3.124  -9.578  0.00  0.00    +0.123 C 
BRANCH  66  67
ATOM     67  C71 UNL     1       1.180   2.862 -11.057  0.00  0.00    +0.305 C 
ATOM     68  O29 UNL     1       1.287   3.712 -11.928  0.00  0.00    -0.251 OA
BRANCH  67  69
ATOM     69  O30 UNL     1       0.913   1.585 -11.379  0.00  0.00    -0.481 OA
ATOM     70  HB3 UNL     1       0.822   1.598 -12.353  0.00  0.00    +0.295 HD
ENDBRANCH  67  69
ENDBRANCH  66  67
ENDBRANCH  65  66
ENDBRANCH  32  65
ENDBRANCH  30  32
ENDBRANCH  26  28
ENDBRANCH  24  26
ENDBRANCH  21  22
BRANCH  21  71
ATOM     71  C62 UNL     1       4.770  -1.243  -1.441  0.00  0.00    +0.152 C 
BRANCH  71  72
ATOM     72  C63 UNL     1       5.313  -2.298  -0.522  0.00  0.00    +0.307 C 
ATOM     73  O25 UNL     1       5.530  -2.191   0.674  0.00  0.00    -0.251 OA
BRANCH  72  74
ATOM     74  O26 UNL     1       5.558  -3.464  -1.157  0.00  0.00    -0.481 OA
ATOM     75  HA1 UNL     1       5.934  -4.044  -0.460  0.00  0.00    +0.295 HD
ENDBRANCH  72  74
ENDBRANCH  71  72
ENDBRANCH  21  71
ENDBRANCH  19  21
ENDBRANCH  16  17
BRANCH  16  76
ATOM     76  C56 UNL     1       6.165   4.281  -1.404  0.00  0.00    +0.088 C 
BRANCH  76  77
ATOM     77  C57 UNL     1       5.515   5.621  -1.301  0.00  0.00    +0.061 A 
ATOM     78  C58 UNL     1       4.195   5.934  -1.051  0.00  0.00    +0.107 A 
ATOM     79  N17 UNL     1       4.135   7.298  -1.091  0.00  0.00    -0.351 N 
ATOM     80  C59 UNL     1       5.385   7.760  -1.388  0.00  0.00    +0.196 A 
ATOM     81  N18 UNL     1       6.240   6.772  -1.530  0.00  0.00    -0.241 NA
ATOM     82  H95 UNL     1       3.317   7.868  -0.921  0.00  0.00    +0.166 HD
ENDBRANCH  76  77
ENDBRANCH  16  76
ENDBRANCH  14  16
ENDBRANCH  11  12
BRANCH  11  83
ATOM     83  C52 UNL     1       8.171   5.943   2.769  0.00  0.00    +0.127 C 
BRANCH  83  84
ATOM     84  C53 UNL     1       9.114   6.331   3.877  0.00  0.00    +0.213 C 
ATOM     85  N15 UNL     1       9.532   7.629   3.869  0.00  0.00    -0.329 N 
ATOM     86  O22 UNL     1       9.554   5.535   4.701  0.00  0.00    -0.276 OA
ATOM     87  H88 UNL     1      10.230   7.900   4.551  0.00  0.00    +0.145 HD
ATOM     88  H89 UNL     1       9.285   8.282   3.141  0.00  0.00    +0.145 HD
ENDBRANCH  83  84
ENDBRANCH  11  83
ENDBRANCH   9  11
ENDBRANCH   6   7
BRANCH   6  89
ATOM     89  C88 UNL     1       9.253   0.456   3.326  0.00  0.00    +0.012 C 
ATOM     90  C89 UNL     1      10.228   1.241   2.444  0.00  0.00    +0.009 C 
ATOM     91  C90 UNL     1       8.226  -0.273   2.451  0.00  0.00    +0.009 C 
ENDBRANCH   6  89
ENDBRANCH   4   6
ENDBRANCH   1   2
BRANCH   1  94
ATOM     92  C43 UNL     1       5.795  -1.774   6.052  0.00  0.00    +0.236 C 
ATOM     93  O17 UNL     1       5.431  -1.069   5.107  0.00  0.00    -0.274 OA
ATOM     94  N12 UNL     1       6.396  -1.247   7.162  0.00  0.00    -0.302 N 
ATOM     95  H75 UNL     1       6.821  -1.858   7.856  0.00  0.00    +0.150 HD
BRANCH  92  96
ATOM     96  C41 UNL     1       5.593  -3.294   6.041  0.00  0.00    +0.184 C 
BRANCH  96  99
ATOM     97  C40 UNL     1       3.164  -3.333   5.858  0.00  0.00    +0.234 C 
ATOM     98  O15 UNL     1       3.080  -3.323   7.093  0.00  0.00    -0.274 OA
ATOM     99  N11 UNL     1       4.381  -3.523   5.241  0.00  0.00    -0.301 N 
ATOM    100  H70 UNL     1       4.455  -3.114   4.314  0.00  0.00    +0.150 HD
BRANCH  97 101
ATOM    101  C5  UNL     1       1.905  -3.074   4.985  0.00  0.00    +0.162 C 
BRANCH 101 102
ATOM    102  N1  UNL     1       1.281  -1.882   5.572  0.00  0.00    -0.302 N 
ATOM    103  C6  UNL     1      -0.037  -1.546   5.416  0.00  0.00    +0.234 C 
ATOM    104  O1  UNL     1      -0.845  -2.230   4.786  0.00  0.00    -0.274 OA
ATOM    105  H11 UNL     1       1.871  -1.284   6.156  0.00  0.00    +0.150 HD
BRANCH 103 106
ATOM    106  C7  UNL     1      -0.449  -0.255   6.146  0.00  0.00    +0.159 C 
BRANCH 106 107
ATOM    107  N2  UNL     1      -1.394   0.472   5.287  0.00  0.00    -0.302 N 
ATOM    108  C11 UNL     1      -0.918   1.403   4.392  0.00  0.00    +0.234 C 
ATOM    109  O4  UNL     1       0.283   1.667   4.295  0.00  0.00    -0.274 OA
ATOM    110  H18 UNL     1      -2.161  -0.098   4.945  0.00  0.00    +0.150 HD
BRANCH 108 111
ATOM    111  C12 UNL     1      -1.929   2.115   3.468  0.00  0.00    +0.159 C 
BRANCH 111 112
ATOM    112  N3  UNL     1      -1.454   1.885   2.098  0.00  0.00    -0.302 N 
ATOM    113  C16 UNL     1      -1.752   0.740   1.389  0.00  0.00    +0.236 C 
ATOM    114  O7  UNL     1      -2.585  -0.070   1.791  0.00  0.00    -0.274 OA
ATOM    115  H25 UNL     1      -0.518   2.249   1.957  0.00  0.00    +0.150 HD
BRANCH 113 116
ATOM    116  C17 UNL     1      -0.874   0.470   0.138  0.00  0.00    +0.187 C 
BRANCH 116 117
ATOM    117  N4  UNL     1      -1.277  -0.856  -0.382  0.00  0.00    -0.300 N 
ATOM    118  C18 UNL     1      -2.332  -1.051  -1.241  0.00  0.00    +0.234 C 
ATOM    119  O8  UNL     1      -2.932  -0.137  -1.815  0.00  0.00    -0.274 OA
ATOM    120  H27 UNL     1      -1.132  -1.609   0.282  0.00  0.00    +0.150 HD
BRANCH 118 121
ATOM    121  C19 UNL     1      -2.701  -2.530  -1.473  0.00  0.00    +0.159 C 
BRANCH 121 122
ATOM    122  N6  UNL     1      -4.164  -2.584  -1.478  0.00  0.00    -0.302 N 
ATOM    123  C24 UNL     1      -4.882  -3.265  -0.522  0.00  0.00    +0.234 C 
ATOM    124  O9  UNL     1      -4.358  -3.908   0.384  0.00  0.00    -0.274 OA
ATOM    125  H39 UNL     1      -4.629  -1.926  -2.089  0.00  0.00    +0.150 HD
BRANCH 123 126
ATOM    126  C25 UNL     1      -6.418  -3.175  -0.696  0.00  0.00    +0.162 C 
BRANCH 126 127
ATOM    127  N7  UNL     1      -7.034  -4.234   0.100  0.00  0.00    -0.302 N 
ATOM    128  C26 UNL     1      -7.106  -5.516  -0.402  0.00  0.00    +0.234 C 
ATOM    129  O10 UNL     1      -6.821  -5.791  -1.570  0.00  0.00    -0.274 OA
ATOM    130  H41 UNL     1      -6.960  -4.130   1.103  0.00  0.00    +0.150 HD
BRANCH 128 131
ATOM    131  C27 UNL     1      -7.560  -6.593   0.614  0.00  0.00    +0.168 C 
BRANCH 131 132
ATOM    132  N9  UNL     1      -7.864  -7.793  -0.172  0.00  0.00    -0.302 N 
ATOM    133  C30 UNL     1      -9.017  -7.802  -0.938  0.00  0.00    +0.233 C 
ATOM    134  O12 UNL     1      -9.961  -7.049  -0.709  0.00  0.00    -0.274 OA
ATOM    135  H47 UNL     1      -7.063  -8.285  -0.541  0.00  0.00    +0.150 HD
BRANCH 133 136
ATOM    136  C31 UNL     1      -9.027  -8.825  -2.102  0.00  0.00    +0.166 C 
BRANCH 136 137
ATOM    137  N10 UNL     1     -10.329  -8.731  -2.816  0.00  0.00    -0.318 NA
ATOM    138  H49 UNL     1     -11.046  -8.515  -2.114  0.00  0.00    +0.119 HD
ATOM    139  H50 UNL     1     -10.280  -7.878  -3.385  0.00  0.00    +0.119 HD
ENDBRANCH 136 137
BRANCH 136 140
ATOM    140  C32 UNL     1      -7.841  -8.582  -3.073  0.00  0.00    +0.137 C 
ATOM    141  C33 UNL     1      -7.770  -9.632  -4.178  0.00  0.00    +0.040 C 
BRANCH 140 142
ATOM    142  O13 UNL     1      -7.942  -7.297  -3.695  0.00  0.00    -0.390 OA
ATOM    143  H55 UNL     1      -7.609  -6.632  -3.051  0.00  0.00    +0.210 HD
ENDBRANCH 140 142
ENDBRANCH 136 140
ENDBRANCH 133 136
ENDBRANCH 131 132
BRANCH 131 144
ATOM    144  C28 UNL     1      -6.445  -6.854   1.629  0.00  0.00    +0.127 C 
BRANCH 144 145
ATOM    145  C29 UNL     1      -6.991  -6.997   3.030  0.00  0.00    +0.213 C 
ATOM    146  N8  UNL     1      -6.102  -6.717   4.024  0.00  0.00    -0.329 N 
ATOM    147  O11 UNL     1      -8.126  -7.379   3.296  0.00  0.00    -0.276 OA
ATOM    148  H45 UNL     1      -5.178  -6.326   3.860  0.00  0.00    +0.145 HD
ATOM    149  H46 UNL     1      -6.428  -6.788   4.980  0.00  0.00    +0.145 HD
ENDBRANCH 144 145
ENDBRANCH 131 144
ENDBRANCH 128 131
ENDBRANCH 126 127
BRANCH 126 150
ATOM    150  C34 UNL     1      -6.971  -1.771  -0.349  0.00  0.00    +0.015 C 
ATOM    151  C35 UNL     1      -8.457  -1.693  -0.728  0.00  0.00    +0.010 C 
BRANCH 150 152
ATOM    152  C36 UNL     1      -6.742  -1.382   1.128  0.00  0.00    +0.002 C 
ATOM    153  C37 UNL     1      -7.055   0.079   1.420  0.00  0.00    +0.004 C 
ENDBRANCH 150 152
ENDBRANCH 126 150
ENDBRANCH 123 126
ENDBRANCH 121 122
BRANCH 121 154
ATOM    154  C20 UNL     1      -2.182  -3.060  -2.815  0.00  0.00    +0.032 C 
BRANCH 154 155
ATOM    155  C21 UNL     1      -0.690  -3.416  -2.858  0.00  0.00    +0.003 C 
BRANCH 155 156
ATOM    156  C22 UNL     1       0.224  -2.209  -3.076  0.00  0.00    +0.015 C 
BRANCH 156 157
ATOM    157  C23 UNL     1       1.599  -2.628  -3.588  0.00  0.00    +0.077 C 
BRANCH 157 158
ATOM    158  N5  UNL     1       2.393  -1.448  -3.935  0.00  0.00    -0.330 NA
ATOM    159  H37 UNL     1       1.833  -0.834  -4.536  0.00  0.00    +0.118 HD
ATOM    160  H38 UNL     1       3.190  -1.756  -4.486  0.00  0.00    +0.118 HD
ENDBRANCH 157 158
ENDBRANCH 156 157
ENDBRANCH 155 156
ENDBRANCH 154 155
ENDBRANCH 121 154
ENDBRANCH 118 121
ENDBRANCH 116 117
BRANCH 116 161
ATOM    161  C38 UNL     1      -0.815   1.585  -0.937  0.00  0.00    +0.141 C 
ATOM    162  C39 UNL     1      -0.081   2.852  -0.498  0.00  0.00    +0.040 C 
BRANCH 161 163
ATOM    163  O14 UNL     1      -0.057   1.099  -2.059  0.00  0.00    -0.390 OA
ATOM    164  H69 UNL     1      -0.678   1.013  -2.815  0.00  0.00    +0.210 HD
ENDBRANCH 161 163
ENDBRANCH 116 161
ENDBRANCH 113 116
ENDBRANCH 111 112
BRANCH 111 165
ATOM    165  C13 UNL     1      -3.428   1.893   3.703  0.00  0.00    +0.043 C 
BRANCH 165 166
ATOM    166  C14 UNL     1      -3.928   2.671   4.922  0.00  0.00    +0.123 C 
BRANCH 166 167
ATOM    167  C15 UNL     1      -5.406   2.493   5.137  0.00  0.00    +0.305 C 
ATOM    168  O5  UNL     1      -6.140   1.660   4.636  0.00  0.00    -0.251 OA
BRANCH 167 169
ATOM    169  O6  UNL     1      -5.897   3.396   6.011  0.00  0.00    -0.481 OA
ATOM    170  H24 UNL     1      -6.851   3.173   6.070  0.00  0.00    +0.295 HD
ENDBRANCH 167 169
ENDBRANCH 166 167
ENDBRANCH 165 166
ENDBRANCH 111 165
ENDBRANCH 108 111
ENDBRANCH 106 107
BRANCH 106 171
ATOM    171  C8  UNL     1      -1.101  -0.569   7.502  0.00  0.00    +0.043 C 
BRANCH 171 172
ATOM    172  C9  UNL     1      -0.316  -1.493   8.440  0.00  0.00    +0.123 C 
BRANCH 172 173
ATOM    173  C10 UNL     1       1.004  -0.915   8.877  0.00  0.00    +0.305 C 
ATOM    174  O2  UNL     1       1.826  -0.372   8.153  0.00  0.00    -0.251 OA
BRANCH 173 175
ATOM    175  O3  UNL     1       1.219  -1.065  10.199  0.00  0.00    -0.481 OA
ATOM    176  H17 UNL     1       2.103  -0.658  10.372  0.00  0.00    +0.295 HD
ENDBRANCH 173 175
ENDBRANCH 172 173
ENDBRANCH 171 172
ENDBRANCH 106 171
ENDBRANCH 103 106
ENDBRANCH 101 102
BRANCH 101 177
ATOM    177  C3  UNL     1       1.996  -2.952   3.442  0.00  0.00    +0.015 C 
ATOM    178  C4  UNL     1       2.756  -1.715   2.941  0.00  0.00    +0.010 C 
BRANCH 177 180
ATOM    179  C1  UNL     1       2.309  -4.239   1.252  0.00  0.00    +0.004 C 
ATOM    180  C2  UNL     1       2.465  -4.260   2.771  0.00  0.00    +0.002 C 
ENDBRANCH 177 180
ENDBRANCH 101 177
ENDBRANCH  97 101
ENDBRANCH  96  99
BRANCH  96 181
ATOM    181  C42 UNL     1       6.812  -3.972   5.420  0.00  0.00    +0.187 C 
BRANCH 181 182
ATOM    182  O16 UNL     1       6.664  -5.391   5.461  0.00  0.00    -0.393 OA
ATOM    183  H74 UNL     1       5.765  -5.586   5.131  0.00  0.00    +0.209 HD
ENDBRANCH 181 182
ENDBRANCH  96 181
ENDBRANCH  92  96
ENDBRANCH   1  94
BRANCH   1 184
ATOM    184  C45 UNL     1       6.341   0.546   8.854  0.00  0.00    +0.043 C 
BRANCH 184 185
ATOM    185  C46 UNL     1       4.888   0.343   9.296  0.00  0.00    +0.123 C 
BRANCH 185 186
ATOM    186  C47 UNL     1       4.709   0.499  10.775  0.00  0.00    +0.305 C 
ATOM    187  O18 UNL     1       5.508   0.910  11.592  0.00  0.00    -0.251 OA
BRANCH 186 188
ATOM    188  O19 UNL     1       3.469   0.120  11.170  0.00  0.00    -0.481 OA
ATOM    189  H81 UNL     1       3.493   0.312  12.137  0.00  0.00    +0.295 HD
ENDBRANCH 186 188
ENDBRANCH 185 186
ENDBRANCH 184 185
ENDBRANCH   1 184
TORSDOF 84
