REMARK  Name = ligands/ligand_22.pdb
REMARK  28 active torsions:
REMARK  status: ('A' for Active; 'I' for Inactive)
REMARK    1  A    between atoms: C1_1  and  C2_2
REMARK    2  A    between atoms: C2_2  and  C3_3
REMARK    3  A    between atoms: C3_3  and  C4_4
REMARK    4  A    between atoms: C3_3  and  C5_5
REMARK    5  A    between atoms: C5_5  and  N1_6
REMARK    6  A    between atoms: C5_5  and  C12_15
REMARK    7  A    between atoms: C6_7  and  C7_9
REMARK    8  A    between atoms: N2_17  and  C13_18
REMARK    9  A    between atoms: C13_18  and  C14_19
REMARK   10  A    between atoms: C13_18  and  C15_20
REMARK   11  A    between atoms: N3_22  and  C16_23
REMARK   12  A    between atoms: C16_23  and  C17_24
REMARK   13  A    between atoms: C16_23  and  C21_28
REMARK   14  A    between atoms: C17_24  and  C18_25
REMARK   15  A    between atoms: C18_25  and  C19_26
REMARK   16  A    between atoms: C18_25  and  C20_27
REMARK   17  A    between atoms: C21_28  and  O5_29
REMARK   18  A    between atoms: C21_28  and  C22_30
REMARK   19  A    between atoms: C22_30  and  C23_31
REMARK   20  A    between atoms: N4_33  and  C24_34
REMARK   21  A    between atoms: C24_34  and  C25_35
REMARK   22  A    between atoms: C24_34  and  C34_48
REMARK   23  A    between atoms: N5_37  and  C26_38
REMARK   24  A    between atoms: C26_38  and  C27_39
REMARK   25  A    between atoms: C31_43  and  C32_44
REMARK   26  A    between atoms: C32_44  and  O9_46
REMARK   27  A    between atoms: C34_48  and  C35_49
REMARK   28  A    between atoms: C34_48  and  C36_50
REMARK                            x       y       z     vdW  Elec       q    Type
REMARK                         _______ _______ _______ _____ _____    ______ ____
ROOT
ATOM      1  C16 UNL     1       0.771  -3.777   0.336  0.00  0.00    +0.102 C 
ENDROOT
BRANCH   1   4
ATOM      2  C15 UNL     1       0.638  -1.825  -1.233  0.00  0.00    +0.233 C 
ATOM      3  O4  UNL     1       0.840  -0.994  -0.347  0.00  0.00    -0.274 OA
ATOM      4  N3  UNL     1       0.525  -3.174  -0.981  0.00  0.00    -0.308 N 
ATOM      5  H26 UNL     1       0.620  -3.815  -1.761  0.00  0.00    +0.149 HD
BRANCH   2   6
ATOM      6  C13 UNL     1       0.563  -1.458  -2.729  0.00  0.00    +0.156 C 
ATOM      7  C14 UNL     1       1.860  -1.862  -3.424  0.00  0.00    +0.038 C 
BRANCH   6  10
ATOM      8  C12 UNL     1      -0.929   0.485  -3.000  0.00  0.00    +0.234 C 
ATOM      9  O3  UNL     1      -1.938  -0.224  -3.017  0.00  0.00    -0.274 OA
ATOM     10  N2  UNL     1       0.343  -0.028  -2.893  0.00  0.00    -0.303 N 
ATOM     11  H21 UNL     1       1.070   0.586  -2.549  0.00  0.00    +0.149 HD
BRANCH   8  12
ATOM     12  C5  UNL     1      -1.007   2.025  -3.111  0.00  0.00    +0.162 C 
BRANCH  12  13
ATOM     13  N1  UNL     1      -2.229   2.325  -3.862  0.00  0.00    -0.302 N 
ATOM     14  C6  UNL     1      -2.200   2.378  -5.247  0.00  0.00    +0.243 C 
ATOM     15  O1  UNL     1      -1.150   2.385  -5.888  0.00  0.00    -0.273 OA
ATOM     16  H11 UNL     1      -3.079   1.954  -3.451  0.00  0.00    +0.150 HD
BRANCH  14  17
ATOM     17  C7  UNL     1      -3.602   2.417  -5.898  0.00  0.00    +0.204 C 
ATOM     18  C8  UNL     1      -4.225   1.014  -5.868  0.00  0.00    +0.041 C 
ATOM     19  C9  UNL     1      -3.696   0.149  -7.005  0.00  0.00    +0.005 C 
ATOM     20  C10 UNL     1      -3.740   0.877  -8.347  0.00  0.00    +0.028 C 
ATOM     21  C11 UNL     1      -4.244   2.306  -8.214  0.00  0.00    +0.161 C 
ATOM     22  O2  UNL     1      -3.536   3.003  -7.199  0.00  0.00    -0.367 OA
ENDBRANCH  14  17
ENDBRANCH  12  13
BRANCH  12  23
ATOM     23  C3  UNL     1      -1.012   2.764  -1.750  0.00  0.00    +0.015 C 
ATOM     24  C4  UNL     1      -2.054   2.203  -0.775  0.00  0.00    +0.010 C 
BRANCH  23  26
ATOM     25  C1  UNL     1       0.534   3.856  -0.031  0.00  0.00    +0.004 C 
ATOM     26  C2  UNL     1       0.393   2.794  -1.116  0.00  0.00    +0.002 C 
ENDBRANCH  23  26
ENDBRANCH  12  23
ENDBRANCH   8  12
ENDBRANCH   6  10
ENDBRANCH   2   6
ENDBRANCH   1   4
BRANCH   1  27
ATOM     27  C21 UNL     1       2.252  -4.252   0.421  0.00  0.00    +0.143 C 
BRANCH  27  28
ATOM     28  O5  UNL     1       2.555  -5.021  -0.761  0.00  0.00    -0.389 OA
ATOM     29  H38 UNL     1       3.371  -5.519  -0.573  0.00  0.00    +0.210 HD
ENDBRANCH  27  28
BRANCH  27  30
ATOM     30  C22 UNL     1       3.258  -3.105   0.525  0.00  0.00    +0.129 C 
BRANCH  30  31
ATOM     31  C23 UNL     1       3.212  -2.452   1.887  0.00  0.00    +0.216 C 
ATOM     32  O6  UNL     1       3.011  -3.097   2.912  0.00  0.00    -0.276 OA
ATOM     33  N4  UNL     1       3.497  -1.108   1.885  0.00  0.00    -0.304 N 
ATOM     34  H41 UNL     1       3.343  -0.597   1.017  0.00  0.00    +0.149 HD
BRANCH  33  35
ATOM     35  C24 UNL     1       3.365  -0.308   3.102  0.00  0.00    +0.161 C 
BRANCH  35  36
ATOM     36  C25 UNL     1       2.357   0.820   2.815  0.00  0.00    +0.234 C 
ATOM     37  O7  UNL     1       2.256   1.333   1.700  0.00  0.00    -0.274 OA
ATOM     38  N5  UNL     1       1.617   1.219   3.907  0.00  0.00    -0.310 N 
ATOM     39  H43 UNL     1       1.621   0.629   4.731  0.00  0.00    +0.149 HD
BRANCH  38  40
ATOM     40  C26 UNL     1       0.497   2.123   3.767  0.00  0.00    +0.139 C 
BRANCH  40  41
ATOM     41  C27 UNL     1      -0.802   1.365   3.645  0.00  0.00    -0.030 A 
ATOM     42  C28 UNL     1      -1.052   0.544   2.534  0.00  0.00    +0.005 A 
ATOM     43  C29 UNL     1      -2.250  -0.163   2.421  0.00  0.00    +0.001 A 
ATOM     44  C30 UNL     1      -3.219  -0.051   3.413  0.00  0.00    +0.015 A 
ATOM     45  C31 UNL     1      -2.994   0.771   4.525  0.00  0.00    +0.059 A 
ATOM     46  C33 UNL     1      -1.786   1.474   4.639  0.00  0.00    +0.020 A 
BRANCH  45  47
ATOM     47  C32 UNL     1      -4.059   0.866   5.556  0.00  0.00    +0.337 C 
ATOM     48  O8  UNL     1      -5.125   0.279   5.541  0.00  0.00    -0.245 OA
BRANCH  47  49
ATOM     49  O9  UNL     1      -3.738   1.696   6.565  0.00  0.00    -0.477 OA
ATOM     50  H49 UNL     1      -4.516   1.650   7.160  0.00  0.00    +0.295 HD
ENDBRANCH  47  49
ENDBRANCH  45  47
ENDBRANCH  40  41
ENDBRANCH  38  40
ENDBRANCH  35  36
BRANCH  35  51
ATOM     51  C34 UNL     1       4.709   0.258   3.609  0.00  0.00    +0.012 C 
ATOM     52  C35 UNL     1       5.622  -0.868   4.102  0.00  0.00    +0.009 C 
ATOM     53  C36 UNL     1       5.447   1.101   2.564  0.00  0.00    +0.009 C 
ENDBRANCH  35  51
ENDBRANCH  33  35
ENDBRANCH  30  31
ENDBRANCH  27  30
ENDBRANCH   1  27
BRANCH   1  54
ATOM     54  C17 UNL     1      -0.212  -4.961   0.505  0.00  0.00    +0.028 C 
BRANCH  54  55
ATOM     55  C18 UNL     1      -0.870  -5.047   1.898  0.00  0.00    -0.015 C 
ATOM     56  C19 UNL     1      -1.924  -6.158   1.902  0.00  0.00    +0.007 C 
ATOM     57  C20 UNL     1       0.135  -5.293   3.020  0.00  0.00    +0.007 C 
ENDBRANCH  54  55
ENDBRANCH   1  54
TORSDOF 21
