REMARK  Name = ligands/ligand_26.pdb
REMARK  30 active torsions:
REMARK  status: ('A' for Active; 'I' for Inactive)
REMARK    1  A    between atoms: C1_1  and  S1_2
REMARK    2  A    between atoms: S1_2  and  C2_3
REMARK    3  A    between atoms: C2_3  and  C3_4
REMARK    4  A    between atoms: C3_4  and  C4_5
REMARK    5  A    between atoms: C4_5  and  N1_6
REMARK    6  A    between atoms: C4_5  and  C12_17
REMARK    7  A    between atoms: C5_7  and  C6_9
REMARK    8  A    between atoms: C6_9  and  N2_10
REMARK    9  A    between atoms: C6_9  and  C9_14
REMARK   10  A    between atoms: C7_11  and  C8_12
REMARK   11  A    between atoms: C9_14  and  C10_15
REMARK   12  A    between atoms: C9_14  and  C11_16
REMARK   13  A    between atoms: N3_19  and  C13_20
REMARK   14  A    between atoms: C13_20  and  C14_21
REMARK   15  A    between atoms: C13_20  and  C18_25
REMARK   16  A    between atoms: C14_21  and  C15_22
REMARK   17  A    between atoms: C15_22  and  C16_23
REMARK   18  A    between atoms: C15_22  and  C17_24
REMARK   19  A    between atoms: C18_25  and  O4_26
REMARK   20  A    between atoms: C18_25  and  C19_27
REMARK   21  A    between atoms: C19_27  and  C20_28
REMARK   22  A    between atoms: N4_30  and  C21_31
REMARK   23  A    between atoms: C21_31  and  C22_32
REMARK   24  A    between atoms: C21_31  and  C26_40
REMARK   25  A    between atoms: N5_34  and  C23_35
REMARK   26  A    between atoms: C23_35  and  C24_36
REMARK   27  A    between atoms: C23_35  and  C25_37
REMARK   28  A    between atoms: C25_37  and  O8_39
REMARK   29  A    between atoms: C26_40  and  C27_41
REMARK   30  A    between atoms: C26_40  and  C28_42
REMARK                            x       y       z     vdW  Elec       q    Type
REMARK                         _______ _______ _______ _____ _____    ______ ____
ROOT
ATOM      1  C13 UNL     1       2.012   1.427  -1.342  0.00  0.00    +0.102 C 
ENDROOT
BRANCH   1   4
ATOM      2  C12 UNL     1       0.450   1.792   0.569  0.00  0.00    +0.234 C 
ATOM      3  O3  UNL     1       0.856   2.923   0.840  0.00  0.00    -0.274 OA
ATOM      4  N3  UNL     1       1.040   0.959  -0.355  0.00  0.00    -0.308 N 
ATOM      5  H22 UNL     1       0.506   0.131  -0.632  0.00  0.00    +0.149 HD
BRANCH   2   6
ATOM      6  C4  UNL     1      -0.793   1.186   1.257  0.00  0.00    +0.160 C 
BRANCH   6   7
ATOM      7  N1  UNL     1      -1.019   1.966   2.475  0.00  0.00    -0.302 N 
ATOM      8  C5  UNL     1      -0.721   1.463   3.722  0.00  0.00    +0.234 C 
ATOM      9  O1  UNL     1      -0.511   0.268   3.935  0.00  0.00    -0.274 OA
ATOM     10  H9  UNL     1      -0.912   2.970   2.344  0.00  0.00    +0.150 HD
BRANCH   8  11
ATOM     11  C6  UNL     1      -0.633   2.528   4.840  0.00  0.00    +0.161 C 
BRANCH  11  12
ATOM     12  N2  UNL     1      -0.749   1.845   6.127  0.00  0.00    -0.304 N 
ATOM     13  C7  UNL     1      -1.956   1.789   6.784  0.00  0.00    +0.211 C 
ATOM     14  C8  UNL     1      -1.966   0.850   7.960  0.00  0.00    +0.109 C 
ATOM     15  O2  UNL     1      -2.945   2.436   6.458  0.00  0.00    -0.276 OA
ATOM     16  H11 UNL     1      -0.154   1.029   6.225  0.00  0.00    +0.149 HD
ENDBRANCH  11  12
BRANCH  11  17
ATOM     17  C9  UNL     1       0.670   3.354   4.729  0.00  0.00    +0.012 C 
ATOM     18  C10 UNL     1       1.939   2.513   4.910  0.00  0.00    +0.009 C 
ATOM     19  C11 UNL     1       0.665   4.517   5.726  0.00  0.00    +0.009 C 
ENDBRANCH  11  17
ENDBRANCH   8  11
ENDBRANCH   6   7
BRANCH   6  20
ATOM     20  C3  UNL     1      -2.008   1.269   0.331  0.00  0.00    +0.042 C 
BRANCH  20  21
ATOM     21  C2  UNL     1      -3.210   0.456   0.813  0.00  0.00    +0.071 C 
BRANCH  21  23
ATOM     22  C1  UNL     1      -2.589  -1.961   2.051  0.00  0.00    +0.084 C 
ATOM     23  S1  UNL     1      -3.077  -1.328   0.426  0.00  0.00    -0.164 S 
ENDBRANCH  21  23
ENDBRANCH  20  21
ENDBRANCH   6  20
ENDBRANCH   2   6
ENDBRANCH   1   4
BRANCH   1  24
ATOM     24  C14 UNL     1       3.152   0.396  -1.455  0.00  0.00    +0.028 C 
BRANCH  24  25
ATOM     25  C15 UNL     1       4.340   0.810  -2.345  0.00  0.00    -0.015 C 
ATOM     26  C16 UNL     1       5.327  -0.355  -2.454  0.00  0.00    +0.007 C 
ATOM     27  C17 UNL     1       5.060   2.050  -1.814  0.00  0.00    +0.007 C 
ENDBRANCH  24  25
ENDBRANCH   1  24
BRANCH   1  28
ATOM     28  C18 UNL     1       1.330   1.784  -2.701  0.00  0.00    +0.143 C 
BRANCH  28  29
ATOM     29  O4  UNL     1       0.190   2.629  -2.485  0.00  0.00    -0.389 OA
ATOM     30  H34 UNL     1       0.027   3.129  -3.303  0.00  0.00    +0.210 HD
ENDBRANCH  28  29
BRANCH  28  31
ATOM     31  C19 UNL     1       0.935   0.640  -3.648  0.00  0.00    +0.129 C 
BRANCH  31  32
ATOM     32  C20 UNL     1      -0.049  -0.376  -3.099  0.00  0.00    +0.216 C 
ATOM     33  O5  UNL     1      -0.130  -0.689  -1.917  0.00  0.00    -0.276 OA
ATOM     34  N4  UNL     1      -0.814  -0.983  -4.076  0.00  0.00    -0.304 N 
ATOM     35  H37 UNL     1      -0.367  -1.068  -4.984  0.00  0.00    +0.149 HD
BRANCH  34  36
ATOM     36  C21 UNL     1      -1.671  -2.114  -3.703  0.00  0.00    +0.161 C 
BRANCH  36  37
ATOM     37  C22 UNL     1      -0.770  -3.368  -3.671  0.00  0.00    +0.234 C 
ATOM     38  O6  UNL     1       0.184  -3.505  -4.437  0.00  0.00    -0.274 OA
ATOM     39  N5  UNL     1      -1.125  -4.319  -2.742  0.00  0.00    -0.301 N 
ATOM     40  H39 UNL     1      -2.028  -4.240  -2.292  0.00  0.00    +0.150 HD
BRANCH  39  41
ATOM     41  C23 UNL     1      -0.446  -5.611  -2.696  0.00  0.00    +0.179 C 
ATOM     42  C24 UNL     1      -0.560  -6.219  -1.307  0.00  0.00    +0.040 C 
BRANCH  41  43
ATOM     43  C25 UNL     1      -1.052  -6.554  -3.738  0.00  0.00    +0.325 C 
ATOM     44  O7  UNL     1      -2.102  -6.401  -4.347  0.00  0.00    -0.249 OA
BRANCH  43  45
ATOM     45  O8  UNL     1      -0.299  -7.653  -3.951  0.00  0.00    -0.479 OA
ATOM     46  H44 UNL     1      -0.771  -8.132  -4.665  0.00  0.00    +0.295 HD
ENDBRANCH  43  45
ENDBRANCH  41  43
ENDBRANCH  39  41
ENDBRANCH  36  37
BRANCH  36  47
ATOM     47  C26 UNL     1      -2.872  -2.238  -4.668  0.00  0.00    +0.012 C 
ATOM     48  C27 UNL     1      -2.492  -2.740  -6.065  0.00  0.00    +0.009 C 
ATOM     49  C28 UNL     1      -3.985  -3.113  -4.085  0.00  0.00    +0.009 C 
ENDBRANCH  36  47
ENDBRANCH  34  36
ENDBRANCH  31  32
ENDBRANCH  28  31
ENDBRANCH   1  28
TORSDOF 21
