AutoDock-GPU version: v1.6

**********************************************************
**    AutoDock-GPU AUTODOCKTOOLS-COMPATIBLE DLG FILE    **
**********************************************************


    DOCKING PARAMETERS
    ________________________


Ligand file:                               ligands/ligand_29.pdbqt
Grid fld file:                             protein.maps.fld

Random seed:                               1770973071, 29815
Number of runs:                            20
Number of energy evaluations:              11021374
Number of generations:                     42000
Size of population:                        150
Rate of crossover:                         80.000000%
Tournament selection probability limit:    60.000000%
Rate of mutation:                          2.000000%
Maximal allowed delta movement:            +/- 6.000000A
Maximal allowed delta angle:               +/- 90.000000

Rate of local search:                      100.000000%
Maximal number of local search iterations: 300
Rho lower bound:                           0.010000
Spread of local search delta movement:     2.000000A
Spread of local search delta angle:        74.999999
Limit of consecutive successes/failures:   4

Handle symmetry during clustering:         YES
RMSD tolerance:                            2.000000A

Program call in command line was:          ./autodock-gpu --ffile protein.maps.fld --lfile ligands/ligand_29.pdbqt --nrun 20 


    GRID PARAMETERS
    ________________________


Receptor name:                             #MACROMOLECULE
Number of grid points (x, y, z):           61, 61, 61
Grid center (x, y, z):                     10.261000, -3.492000, -0.127000A
Grid size (x, y, z):                       22.500000, 22.500000, 22.500000A
Grid spacing:                              0.375000A


    LIGAND PARAMETERS
    ________________________


Ligand name:                               ligands/ligand_29
Number of atoms:                           61
Number of rotatable bonds:                 25
Number of atom types:                      5


    DUMMY DATA (only for ADT-compatibility)
    ________________________


DPF> outlev 1
DPF> ga_run 20
DPF> fld protein.maps.fld
DPF> move ligands/ligand_29.pdbqt


    COUNTER STATES
    ________________________


Number of energy evaluations performed:    9357077
Number of generations used:                375


    INPUT LIGAND PDBQT FILE:
    ________________________


INPUT-LIGAND-PDBQT: REMARK  Name = ligands/ligand_29.pdb
INPUT-LIGAND-PDBQT: REMARK  30 active torsions:
INPUT-LIGAND-PDBQT: REMARK  status: ('A' for Active; 'I' for Inactive)
INPUT-LIGAND-PDBQT: REMARK    1  A    between atoms: C1_1  and  C2_2
INPUT-LIGAND-PDBQT: REMARK    2  A    between atoms: C2_2  and  C3_3
INPUT-LIGAND-PDBQT: REMARK    3  A    between atoms: C2_2  and  C4_4
INPUT-LIGAND-PDBQT: REMARK    4  A    between atoms: C4_4  and  C5_5
INPUT-LIGAND-PDBQT: REMARK    5  A    between atoms: C5_5  and  N1_6
INPUT-LIGAND-PDBQT: REMARK    6  A    between atoms: C5_5  and  C14_16
INPUT-LIGAND-PDBQT: REMARK    7  A    between atoms: C6_7  and  C7_9
INPUT-LIGAND-PDBQT: REMARK    8  A    between atoms: C7_9  and  C8_10
INPUT-LIGAND-PDBQT: REMARK    9  A    between atoms: C14_16  and  O2_17
INPUT-LIGAND-PDBQT: REMARK   10  A    between atoms: C14_16  and  C15_18
INPUT-LIGAND-PDBQT: REMARK   11  A    between atoms: C15_18  and  C16_19
INPUT-LIGAND-PDBQT: REMARK   12  A    between atoms: N2_21  and  C17_22
INPUT-LIGAND-PDBQT: REMARK   13  A    between atoms: C17_22  and  C18_23
INPUT-LIGAND-PDBQT: REMARK   14  A    between atoms: C17_22  and  C36_51
INPUT-LIGAND-PDBQT: REMARK   15  A    between atoms: N3_25  and  C19_26
INPUT-LIGAND-PDBQT: REMARK   16  A    between atoms: C19_26  and  C20_27
INPUT-LIGAND-PDBQT: REMARK   17  A    between atoms: C19_26  and  C21_28
INPUT-LIGAND-PDBQT: REMARK   18  A    between atoms: N4_30  and  C22_31
INPUT-LIGAND-PDBQT: REMARK   19  A    between atoms: C22_31  and  C23_32
INPUT-LIGAND-PDBQT: REMARK   20  A    between atoms: C22_31  and  C26_37
INPUT-LIGAND-PDBQT: REMARK   21  A    between atoms: C23_32  and  C24_33
INPUT-LIGAND-PDBQT: REMARK   22  A    between atoms: C24_33  and  C25_34
INPUT-LIGAND-PDBQT: REMARK   23  A    between atoms: C25_34  and  O7_36
INPUT-LIGAND-PDBQT: REMARK   24  A    between atoms: N5_39  and  C27_40
INPUT-LIGAND-PDBQT: REMARK   25  A    between atoms: C27_40  and  C28_41
INPUT-LIGAND-PDBQT: REMARK   26  A    between atoms: C27_40  and  C35_48
INPUT-LIGAND-PDBQT: REMARK   27  A    between atoms: C28_41  and  C29_42
INPUT-LIGAND-PDBQT: REMARK   28  A    between atoms: C35_48  and  O10_50
INPUT-LIGAND-PDBQT: REMARK   29  A    between atoms: C36_51  and  C37_52
INPUT-LIGAND-PDBQT: REMARK   30  A    between atoms: C36_51  and  C38_53
INPUT-LIGAND-PDBQT: REMARK                            x       y       z     vdW  Elec       q    Type
INPUT-LIGAND-PDBQT: REMARK                         _______ _______ _______ _____ _____    ______ ____
INPUT-LIGAND-PDBQT: ROOT
INPUT-LIGAND-PDBQT: ATOM      1  C18 UNL     1      -1.173  -3.262   0.883  0.00  0.00    +0.234 C 
INPUT-LIGAND-PDBQT: ATOM      2  O4  UNL     1      -0.340  -4.076   0.488  0.00  0.00    -0.274 OA
INPUT-LIGAND-PDBQT: ATOM      3  N3  UNL     1      -1.988  -2.555   0.033  0.00  0.00    -0.303 N 
INPUT-LIGAND-PDBQT: ATOM      4  H25 UNL     1      -2.616  -1.843   0.391  0.00  0.00    +0.149 HD
INPUT-LIGAND-PDBQT: ENDROOT
INPUT-LIGAND-PDBQT: BRANCH   3   5
INPUT-LIGAND-PDBQT: ATOM      5  C19 UNL     1      -1.857  -2.620  -1.418  0.00  0.00    +0.156 C 
INPUT-LIGAND-PDBQT: ATOM      6  C20 UNL     1      -0.581  -1.914  -1.886  0.00  0.00    +0.038 C 
INPUT-LIGAND-PDBQT: BRANCH   5   7
INPUT-LIGAND-PDBQT: ATOM      7  C21 UNL     1      -3.116  -1.949  -2.017  0.00  0.00    +0.234 C 
INPUT-LIGAND-PDBQT: ATOM      8  O5  UNL     1      -3.965  -1.403  -1.312  0.00  0.00    -0.274 OA
INPUT-LIGAND-PDBQT: ATOM      9  N4  UNL     1      -3.214  -1.997  -3.399  0.00  0.00    -0.302 N 
INPUT-LIGAND-PDBQT: ATOM     10  H30 UNL     1      -2.341  -2.121  -3.900  0.00  0.00    +0.150 HD
INPUT-LIGAND-PDBQT: BRANCH   9  11
INPUT-LIGAND-PDBQT: ATOM     11  C22 UNL     1      -4.164  -1.106  -4.062  0.00  0.00    +0.159 C 
INPUT-LIGAND-PDBQT: BRANCH  11  12
INPUT-LIGAND-PDBQT: ATOM     12  C26 UNL     1      -3.493   0.279  -4.164  0.00  0.00    +0.234 C 
INPUT-LIGAND-PDBQT: ATOM     13  O8  UNL     1      -2.275   0.413  -4.223  0.00  0.00    -0.274 OA
INPUT-LIGAND-PDBQT: ATOM     14  N5  UNL     1      -4.372   1.338  -4.223  0.00  0.00    -0.301 N 
INPUT-LIGAND-PDBQT: ATOM     15  H37 UNL     1      -5.318   1.152  -4.533  0.00  0.00    +0.150 HD
INPUT-LIGAND-PDBQT: BRANCH  14  16
INPUT-LIGAND-PDBQT: ATOM     16  C27 UNL     1      -3.878   2.711  -4.403  0.00  0.00    +0.186 C 
INPUT-LIGAND-PDBQT: BRANCH  16  17
INPUT-LIGAND-PDBQT: ATOM     17  C35 UNL     1      -3.763   2.949  -5.906  0.00  0.00    +0.326 C 
INPUT-LIGAND-PDBQT: ATOM     18  O9  UNL     1      -4.573   2.582  -6.749  0.00  0.00    -0.249 OA
INPUT-LIGAND-PDBQT: BRANCH  17  19
INPUT-LIGAND-PDBQT: ATOM     19  O10 UNL     1      -2.657   3.625  -6.261  0.00  0.00    -0.479 OA
INPUT-LIGAND-PDBQT: ATOM     20  H46 UNL     1      -2.701   3.696  -7.238  0.00  0.00    +0.295 HD
INPUT-LIGAND-PDBQT: ENDBRANCH  17  19
INPUT-LIGAND-PDBQT: ENDBRANCH  16  17
INPUT-LIGAND-PDBQT: BRANCH  16  21
INPUT-LIGAND-PDBQT: ATOM     21  C28 UNL     1      -4.873   3.702  -3.787  0.00  0.00    +0.069 C 
INPUT-LIGAND-PDBQT: BRANCH  21  22
INPUT-LIGAND-PDBQT: ATOM     22  C29 UNL     1      -4.348   5.112  -3.662  0.00  0.00    -0.045 A 
INPUT-LIGAND-PDBQT: ATOM     23  C30 UNL     1      -4.833   6.129  -4.498  0.00  0.00    +0.004 A 
INPUT-LIGAND-PDBQT: ATOM     24  C31 UNL     1      -4.346   7.433  -4.382  0.00  0.00    +0.000 A 
INPUT-LIGAND-PDBQT: ATOM     25  C32 UNL     1      -3.372   7.733  -3.430  0.00  0.00    +0.000 A 
INPUT-LIGAND-PDBQT: ATOM     26  C33 UNL     1      -2.886   6.733  -2.592  0.00  0.00    +0.000 A 
INPUT-LIGAND-PDBQT: ATOM     27  C34 UNL     1      -3.370   5.428  -2.707  0.00  0.00    +0.004 A 
INPUT-LIGAND-PDBQT: ENDBRANCH  21  22
INPUT-LIGAND-PDBQT: ENDBRANCH  16  21
INPUT-LIGAND-PDBQT: ENDBRANCH  14  16
INPUT-LIGAND-PDBQT: ENDBRANCH  11  12
INPUT-LIGAND-PDBQT: BRANCH  11  28
INPUT-LIGAND-PDBQT: ATOM     28  C23 UNL     1      -4.525  -1.592  -5.469  0.00  0.00    +0.043 C 
INPUT-LIGAND-PDBQT: BRANCH  28  29
INPUT-LIGAND-PDBQT: ATOM     29  C24 UNL     1      -5.420  -2.829  -5.435  0.00  0.00    +0.123 C 
INPUT-LIGAND-PDBQT: BRANCH  29  30
INPUT-LIGAND-PDBQT: ATOM     30  C25 UNL     1      -5.833  -3.232  -6.825  0.00  0.00    +0.305 C 
INPUT-LIGAND-PDBQT: ATOM     31  O6  UNL     1      -5.483  -2.717  -7.875  0.00  0.00    -0.251 OA
INPUT-LIGAND-PDBQT: BRANCH  30  32
INPUT-LIGAND-PDBQT: ATOM     32  O7  UNL     1      -6.674  -4.278  -6.816  0.00  0.00    -0.481 OA
INPUT-LIGAND-PDBQT: ATOM     33  H36 UNL     1      -6.862  -4.434  -7.765  0.00  0.00    +0.295 HD
INPUT-LIGAND-PDBQT: ENDBRANCH  30  32
INPUT-LIGAND-PDBQT: ENDBRANCH  29  30
INPUT-LIGAND-PDBQT: ENDBRANCH  28  29
INPUT-LIGAND-PDBQT: ENDBRANCH  11  28
INPUT-LIGAND-PDBQT: ENDBRANCH   9  11
INPUT-LIGAND-PDBQT: ENDBRANCH   5   7
INPUT-LIGAND-PDBQT: ENDBRANCH   3   5
INPUT-LIGAND-PDBQT: BRANCH   1  34
INPUT-LIGAND-PDBQT: ATOM     34  C17 UNL     1      -1.429  -3.006   2.385  0.00  0.00    +0.161 C 
INPUT-LIGAND-PDBQT: BRANCH  34  37
INPUT-LIGAND-PDBQT: ATOM     35  C16 UNL     1       0.531  -2.108   3.572  0.00  0.00    +0.216 C 
INPUT-LIGAND-PDBQT: ATOM     36  O3  UNL     1       0.063  -0.973   3.627  0.00  0.00    -0.276 OA
INPUT-LIGAND-PDBQT: ATOM     37  N2  UNL     1      -0.171  -3.197   3.100  0.00  0.00    -0.304 N 
INPUT-LIGAND-PDBQT: ATOM     38  H23 UNL     1       0.409  -3.957   2.746  0.00  0.00    +0.149 HD
INPUT-LIGAND-PDBQT: BRANCH  35  39
INPUT-LIGAND-PDBQT: ATOM     39  C15 UNL     1       1.963  -2.404   3.960  0.00  0.00    +0.129 C 
INPUT-LIGAND-PDBQT: BRANCH  39  40
INPUT-LIGAND-PDBQT: ATOM     40  C14 UNL     1       2.838  -2.286   2.708  0.00  0.00    +0.143 C 
INPUT-LIGAND-PDBQT: BRANCH  40  41
INPUT-LIGAND-PDBQT: ATOM     41  O2  UNL     1       2.650  -3.481   1.941  0.00  0.00    -0.389 OA
INPUT-LIGAND-PDBQT: ATOM     42  H20 UNL     1       2.848  -3.258   1.013  0.00  0.00    +0.210 HD
INPUT-LIGAND-PDBQT: ENDBRANCH  40  41
INPUT-LIGAND-PDBQT: BRANCH  40  43
INPUT-LIGAND-PDBQT: ATOM     43  C5  UNL     1       4.346  -2.053   3.015  0.00  0.00    +0.102 C 
INPUT-LIGAND-PDBQT: BRANCH  43  44
INPUT-LIGAND-PDBQT: ATOM     44  N1  UNL     1       4.540  -0.786   3.729  0.00  0.00    -0.310 N 
INPUT-LIGAND-PDBQT: ATOM     45  C6  UNL     1       4.449   0.442   3.090  0.00  0.00    +0.218 C 
INPUT-LIGAND-PDBQT: ATOM     46  O1  UNL     1       4.256   0.544   1.881  0.00  0.00    -0.275 OA
INPUT-LIGAND-PDBQT: ATOM     47  H11 UNL     1       4.495  -0.795   4.740  0.00  0.00    +0.149 HD
INPUT-LIGAND-PDBQT: BRANCH  45  48
INPUT-LIGAND-PDBQT: ATOM     48  C7  UNL     1       4.570   1.613   4.053  0.00  0.00    +0.130 C 
INPUT-LIGAND-PDBQT: BRANCH  48  49
INPUT-LIGAND-PDBQT: ATOM     49  C8  UNL     1       4.937   2.932   3.417  0.00  0.00    -0.039 A 
INPUT-LIGAND-PDBQT: ATOM     50  C9  UNL     1       6.277   3.342   3.328  0.00  0.00    +0.004 A 
INPUT-LIGAND-PDBQT: ATOM     51  C10 UNL     1       6.599   4.572   2.747  0.00  0.00    +0.000 A 
INPUT-LIGAND-PDBQT: ATOM     52  C11 UNL     1       5.592   5.395   2.240  0.00  0.00    +0.000 A 
INPUT-LIGAND-PDBQT: ATOM     53  C12 UNL     1       4.261   4.988   2.317  0.00  0.00    +0.000 A 
INPUT-LIGAND-PDBQT: ATOM     54  C13 UNL     1       3.932   3.763   2.900  0.00  0.00    +0.004 A 
INPUT-LIGAND-PDBQT: ENDBRANCH  48  49
INPUT-LIGAND-PDBQT: ENDBRANCH  45  48
INPUT-LIGAND-PDBQT: ENDBRANCH  43  44
INPUT-LIGAND-PDBQT: BRANCH  43  55
INPUT-LIGAND-PDBQT: ATOM     55  C4  UNL     1       5.064  -3.182   3.798  0.00  0.00    +0.028 C 
INPUT-LIGAND-PDBQT: BRANCH  55  57
INPUT-LIGAND-PDBQT: ATOM     56  C1  UNL     1       4.608  -5.660   3.564  0.00  0.00    +0.007 C 
INPUT-LIGAND-PDBQT: ATOM     57  C2  UNL     1       5.328  -4.451   2.958  0.00  0.00    -0.015 C 
INPUT-LIGAND-PDBQT: ATOM     58  C3  UNL     1       6.836  -4.749   2.859  0.00  0.00    +0.007 C 
INPUT-LIGAND-PDBQT: ENDBRANCH  55  57
INPUT-LIGAND-PDBQT: ENDBRANCH  43  55
INPUT-LIGAND-PDBQT: ENDBRANCH  40  43
INPUT-LIGAND-PDBQT: ENDBRANCH  39  40
INPUT-LIGAND-PDBQT: ENDBRANCH  35  39
INPUT-LIGAND-PDBQT: ENDBRANCH  34  37
INPUT-LIGAND-PDBQT: BRANCH  34  59
INPUT-LIGAND-PDBQT: ATOM     59  C36 UNL     1      -2.569  -3.901   2.908  0.00  0.00    +0.012 C 
INPUT-LIGAND-PDBQT: ATOM     60  C37 UNL     1      -3.042  -3.415   4.282  0.00  0.00    +0.009 C 
INPUT-LIGAND-PDBQT: ATOM     61  C38 UNL     1      -2.191  -5.386   2.981  0.00  0.00    +0.009 C 
INPUT-LIGAND-PDBQT: ENDBRANCH  34  59
INPUT-LIGAND-PDBQT: ENDBRANCH   1  34
INPUT-LIGAND-PDBQT: TORSDOF 25


    FINAL DOCKED STATE:
    ________________________


Run:   1 / 20
Time taken for this run:   3.208s

DOCKED: MODEL        1
DOCKED: USER    Run = 1
DOCKED: USER
DOCKED: USER    Estimated Free Energy of Binding    =  +7.46 kcal/mol  [=(1)+(2)+(3)-(4)]
DOCKED: USER
DOCKED: USER    (1) Final Intermolecular Energy     =  +0.00 kcal/mol
DOCKED: USER        vdW + Hbond + desolv Energy     =  +0.00 kcal/mol
DOCKED: USER        Electrostatic Energy            =  +0.00 kcal/mol
DOCKED: USER        Moving Ligand-Fixed Receptor    =  +0.00 kcal/mol
DOCKED: USER        Moving Ligand-Moving Receptor   =  +0.00 kcal/mol
DOCKED: USER    (2) Final Total Internal Energy     = -19.34 kcal/mol
DOCKED: USER    (3) Torsional Free Energy           =  +7.46 kcal/mol
DOCKED: USER    (4) Unbound System's Energy         = -19.34 kcal/mol
DOCKED: USER
DOCKED: USER
DOCKED: REMARK  Name = ligands/ligand_29.pdb
DOCKED: REMARK  30 active torsions:
DOCKED: REMARK  status: ('A' for Active; 'I' for Inactive)
DOCKED: REMARK    1  A    between atoms: C1_1  and  C2_2
DOCKED: REMARK    2  A    between atoms: C2_2  and  C3_3
DOCKED: REMARK    3  A    between atoms: C2_2  and  C4_4
DOCKED: REMARK    4  A    between atoms: C4_4  and  C5_5
DOCKED: REMARK    5  A    between atoms: C5_5  and  N1_6
DOCKED: REMARK    6  A    between atoms: C5_5  and  C14_16
DOCKED: REMARK    7  A    between atoms: C6_7  and  C7_9
DOCKED: REMARK    8  A    between atoms: C7_9  and  C8_10
DOCKED: REMARK    9  A    between atoms: C14_16  and  O2_17
DOCKED: REMARK   10  A    between atoms: C14_16  and  C15_18
DOCKED: REMARK   11  A    between atoms: C15_18  and  C16_19
DOCKED: REMARK   12  A    between atoms: N2_21  and  C17_22
DOCKED: REMARK   13  A    between atoms: C17_22  and  C18_23
DOCKED: REMARK   14  A    between atoms: C17_22  and  C36_51
DOCKED: REMARK   15  A    between atoms: N3_25  and  C19_26
DOCKED: REMARK   16  A    between atoms: C19_26  and  C20_27
DOCKED: REMARK   17  A    between atoms: C19_26  and  C21_28
DOCKED: REMARK   18  A    between atoms: N4_30  and  C22_31
DOCKED: REMARK   19  A    between atoms: C22_31  and  C23_32
DOCKED: REMARK   20  A    between atoms: C22_31  and  C26_37
DOCKED: REMARK   21  A    between atoms: C23_32  and  C24_33
DOCKED: REMARK   22  A    between atoms: C24_33  and  C25_34
DOCKED: REMARK   23  A    between atoms: C25_34  and  O7_36
DOCKED: REMARK   24  A    between atoms: N5_39  and  C27_40
DOCKED: REMARK   25  A    between atoms: C27_40  and  C28_41
DOCKED: REMARK   26  A    between atoms: C27_40  and  C35_48
DOCKED: REMARK   27  A    between atoms: C28_41  and  C29_42
DOCKED: REMARK   28  A    between atoms: C35_48  and  O10_50
DOCKED: REMARK   29  A    between atoms: C36_51  and  C37_52
DOCKED: REMARK   30  A    between atoms: C36_51  and  C38_53
DOCKED: REMARK                            x       y       z     vdW  Elec       q    Type
DOCKED: REMARK                         _______ _______ _______ _____ _____    ______ ____
DOCKED: USER                              x       y       z     vdW  Elec       q    Type
DOCKED: USER                           _______ _______ _______ _____ _____    ______ ____
DOCKED: ROOT
DOCKED: ATOM      1  C18 UNL     1       8.803  -2.148  -2.398 +0.00 +0.00    +0.234 C  
DOCKED: ATOM      2  O4  UNL     1       7.652  -2.109  -1.968 +0.00 -0.00    -0.274 OA 
DOCKED: ATOM      3  N3  UNL     1       9.669  -3.179  -2.123 +0.00 -0.00    -0.303 N  
DOCKED: ATOM      4  H25 UNL     1      10.632  -3.144  -2.439 +0.00 +0.00    +0.149 HD 
DOCKED: ENDROOT
DOCKED: BRANCH   3   5
DOCKED: ATOM      5  C19 UNL     1       9.338  -4.260  -1.203 +0.00 +0.00    +0.156 C  
DOCKED: ATOM      6  C20 UNL     1       7.934  -4.806  -1.479 +0.00 +0.00    +0.038 C  
DOCKED: BRANCH   5   7
DOCKED: ATOM      7  C21 UNL     1       9.438  -3.683   0.229 +0.00 +0.00    +0.234 C  
DOCKED: ATOM      8  O5  UNL     1      10.480  -3.733   0.884 +0.00 -0.00    -0.274 OA 
DOCKED: ATOM      9  N4  UNL     1       8.280  -3.097   0.716 +0.00 -0.00    -0.302 N  
DOCKED: ATOM     10  H30 UNL     1       7.619  -2.776   0.017 +0.00 +0.00    +0.150 HD 
DOCKED: BRANCH   9  11
DOCKED: ATOM     11  C22 UNL     1       8.376  -2.233   1.891 +0.00 +0.00    +0.159 C  
DOCKED: BRANCH  11  12
DOCKED: ATOM     12  C26 UNL     1       9.118  -0.954   1.455 +0.00 +0.00    +0.234 C  
DOCKED: ATOM     13  O8  UNL     1       9.915  -0.377   2.189 +0.00 -0.00    -0.274 OA 
DOCKED: ATOM     14  N5  UNL     1       8.843  -0.542   0.170 +0.00 -0.00    -0.301 N  
DOCKED: ATOM     15  H37 UNL     1       8.487  -1.230  -0.482 +0.00 +0.00    +0.150 HD 
DOCKED: BRANCH  14  16
DOCKED: ATOM     16  C27 UNL     1       9.539   0.616  -0.410 +0.00 +0.00    +0.186 C  
DOCKED: BRANCH  16  17
DOCKED: ATOM     17  C35 UNL     1       8.936   1.863   0.230 +0.00 +0.00    +0.326 C  
DOCKED: ATOM     18  O9  UNL     1       9.565   2.740   0.811 +0.00 -0.00    -0.249 OA 
DOCKED: BRANCH  17  19
DOCKED: ATOM     19  O10 UNL     1       7.600   1.941   0.105 +0.00 -0.00    -0.479 OA 
DOCKED: ATOM     20  H46 UNL     1       7.306   1.026  -0.089 +0.00 +0.00    +0.295 HD 
DOCKED: ENDBRANCH  17  19
DOCKED: ENDBRANCH  16  17
DOCKED: BRANCH  16  21
DOCKED: ATOM     21  C28 UNL     1      11.036   0.531  -0.091 +0.00 +0.00    +0.069 C  
DOCKED: BRANCH  21  22
DOCKED: ATOM     22  C29 UNL     1      11.825  -0.339  -1.040 +0.00 -0.00    -0.045 A  
DOCKED: ATOM     23  C30 UNL     1      12.290   0.178  -2.259 +0.00 +0.00    +0.004 A  
DOCKED: ATOM     24  C31 UNL     1      13.019  -0.627  -3.137 +0.00 +0.00    +0.000 A  
DOCKED: ATOM     25  C32 UNL     1      13.291  -1.954  -2.806 +0.00 +0.00    +0.000 A  
DOCKED: ATOM     26  C33 UNL     1      12.838  -2.477  -1.597 +0.00 +0.00    +0.000 A  
DOCKED: ATOM     27  C34 UNL     1      12.107  -1.674  -0.718 +0.00 +0.00    +0.004 A  
DOCKED: ENDBRANCH  21  22
DOCKED: ENDBRANCH  16  21
DOCKED: ENDBRANCH  14  16
DOCKED: ENDBRANCH  11  12
DOCKED: BRANCH  11  28
DOCKED: ATOM     28  C23 UNL     1       6.998  -1.850   2.439 +0.00 +0.00    +0.043 C  
DOCKED: BRANCH  28  29
DOCKED: ATOM     29  C24 UNL     1       6.686  -0.371   2.221 +0.00 +0.00    +0.123 C  
DOCKED: BRANCH  29  30
DOCKED: ATOM     30  C25 UNL     1       5.995  -0.157   0.901 +0.00 +0.00    +0.305 C  
DOCKED: ATOM     31  O6  UNL     1       5.197   0.724   0.623 +0.00 -0.00    -0.251 OA 
DOCKED: BRANCH  30  32
DOCKED: ATOM     32  O7  UNL     1       6.354  -1.075  -0.009 +0.00 -0.00    -0.481 OA 
DOCKED: ATOM     33  H36 UNL     1       6.854  -0.559  -0.676 +0.00 +0.00    +0.295 HD 
DOCKED: ENDBRANCH  30  32
DOCKED: ENDBRANCH  29  30
DOCKED: ENDBRANCH  28  29
DOCKED: ENDBRANCH  11  28
DOCKED: ENDBRANCH   9  11
DOCKED: ENDBRANCH   5   7
DOCKED: ENDBRANCH   3   5
DOCKED: BRANCH   1  34
DOCKED: ATOM     34  C17 UNL     1       9.367  -1.067  -3.347 +0.00 +0.00    +0.161 C  
DOCKED: BRANCH  34  37
DOCKED: ATOM     35  C16 UNL     1       8.373   1.146  -3.760 +0.00 +0.00    +0.216 C  
DOCKED: ATOM     36  O3  UNL     1       9.439   1.732  -3.588 +0.00 -0.00    -0.276 OA 
DOCKED: ATOM     37  N2  UNL     1       8.258  -0.228  -3.790 +0.00 -0.00    -0.304 N  
DOCKED: ATOM     38  H23 UNL     1       7.333  -0.583  -3.550 +0.00 +0.00    +0.149 HD 
DOCKED: BRANCH  35  39
DOCKED: ATOM     39  C15 UNL     1       7.061   1.889  -3.889 +0.00 +0.00    +0.129 C  
DOCKED: BRANCH  39  40
DOCKED: ATOM     40  C14 UNL     1       6.047   1.252  -2.934 +0.00 +0.00    +0.143 C  
DOCKED: BRANCH  40  41
DOCKED: ATOM     41  O2  UNL     1       6.786   0.667  -1.855 +0.00 -0.00    -0.389 OA 
DOCKED: ATOM     42  H20 UNL     1       6.269   0.818  -1.042 +0.00 +0.00    +0.210 HD 
DOCKED: ENDBRANCH  40  41
DOCKED: BRANCH  40  43
DOCKED: ATOM     43  C5  UNL     1       5.123   0.198  -3.611 +0.00 +0.00    +0.102 C  
DOCKED: BRANCH  43  44
DOCKED: ATOM     44  N1  UNL     1       5.177  -1.079  -2.890 +0.00 -0.00    -0.310 N  
DOCKED: ATOM     45  C6  UNL     1       4.778  -2.273  -3.473 +0.00 +0.00    +0.218 C  
DOCKED: ATOM     46  O1  UNL     1       4.304  -2.328  -4.605 +0.00 -0.00    -0.275 OA 
DOCKED: ATOM     47  H11 UNL     1       5.739  -1.130  -2.050 +0.00 +0.00    +0.149 HD 
DOCKED: BRANCH  45  48
DOCKED: ATOM     48  C7  UNL     1       5.034  -3.475  -2.577 +0.00 +0.00    +0.130 C  
DOCKED: BRANCH  48  49
DOCKED: ATOM     49  C8  UNL     1       4.569  -3.323  -1.149 +0.00 -0.00    -0.039 A  
DOCKED: ATOM     50  C9  UNL     1       3.534  -2.433  -0.818 +0.00 +0.00    +0.004 A  
DOCKED: ATOM     51  C10 UNL     1       3.124  -2.295   0.511 +0.00 +0.00    +0.000 A  
DOCKED: ATOM     52  C11 UNL     1       3.731  -3.049   1.516 +0.00 +0.00    +0.000 A  
DOCKED: ATOM     53  C12 UNL     1       4.752  -3.941   1.192 +0.00 +0.00    +0.000 A  
DOCKED: ATOM     54  C13 UNL     1       5.170  -4.081  -0.133 +0.00 +0.00    +0.004 A  
DOCKED: ENDBRANCH  48  49
DOCKED: ENDBRANCH  45  48
DOCKED: ENDBRANCH  43  44
DOCKED: BRANCH  43  55
DOCKED: ATOM     55  C4  UNL     1       3.639   0.608  -3.789 +0.00 +0.00    +0.028 C  
DOCKED: BRANCH  55  57
DOCKED: ATOM     56  C1  UNL     1       1.300   0.171  -2.929 +0.00 +0.00    +0.007 C  
DOCKED: ATOM     57  C2  UNL     1       2.769   0.356  -2.538 +0.00 -0.00    -0.015 C  
DOCKED: ATOM     58  C3  UNL     1       2.891   1.517  -1.533 +0.00 +0.00    +0.007 C  
DOCKED: ENDBRANCH  55  57
DOCKED: ENDBRANCH  43  55
DOCKED: ENDBRANCH  40  43
DOCKED: ENDBRANCH  39  40
DOCKED: ENDBRANCH  35  39
DOCKED: ENDBRANCH  34  37
DOCKED: BRANCH  34  59
DOCKED: ATOM     59  C36 UNL     1      10.145  -1.711  -4.511 +0.00 +0.00    +0.012 C  
DOCKED: ATOM     60  C37 UNL     1      10.611  -0.637  -5.500 +0.00 +0.00    +0.009 C  
DOCKED: ATOM     61  C38 UNL     1       9.348  -2.792  -5.251 +0.00 +0.00    +0.009 C  
DOCKED: ENDBRANCH  34  59
DOCKED: ENDBRANCH   1  34
DOCKED: TORSDOF 25
DOCKED: TER
DOCKED: ENDMDL
________________________________________________________________________________


    FINAL DOCKED STATE:
    ________________________


Run:   2 / 20
Time taken for this run:   3.208s

DOCKED: MODEL        2
DOCKED: USER    Run = 2
DOCKED: USER
DOCKED: USER    Estimated Free Energy of Binding    =  +7.46 kcal/mol  [=(1)+(2)+(3)-(4)]
DOCKED: USER
DOCKED: USER    (1) Final Intermolecular Energy     =  +0.00 kcal/mol
DOCKED: USER        vdW + Hbond + desolv Energy     =  +0.00 kcal/mol
DOCKED: USER        Electrostatic Energy            =  +0.00 kcal/mol
DOCKED: USER        Moving Ligand-Fixed Receptor    =  +0.00 kcal/mol
DOCKED: USER        Moving Ligand-Moving Receptor   =  +0.00 kcal/mol
DOCKED: USER    (2) Final Total Internal Energy     = -19.63 kcal/mol
DOCKED: USER    (3) Torsional Free Energy           =  +7.46 kcal/mol
DOCKED: USER    (4) Unbound System's Energy         = -19.63 kcal/mol
DOCKED: USER
DOCKED: USER
DOCKED: REMARK  Name = ligands/ligand_29.pdb
DOCKED: REMARK  30 active torsions:
DOCKED: REMARK  status: ('A' for Active; 'I' for Inactive)
DOCKED: REMARK    1  A    between atoms: C1_1  and  C2_2
DOCKED: REMARK    2  A    between atoms: C2_2  and  C3_3
DOCKED: REMARK    3  A    between atoms: C2_2  and  C4_4
DOCKED: REMARK    4  A    between atoms: C4_4  and  C5_5
DOCKED: REMARK    5  A    between atoms: C5_5  and  N1_6
DOCKED: REMARK    6  A    between atoms: C5_5  and  C14_16
DOCKED: REMARK    7  A    between atoms: C6_7  and  C7_9
DOCKED: REMARK    8  A    between atoms: C7_9  and  C8_10
DOCKED: REMARK    9  A    between atoms: C14_16  and  O2_17
DOCKED: REMARK   10  A    between atoms: C14_16  and  C15_18
DOCKED: REMARK   11  A    between atoms: C15_18  and  C16_19
DOCKED: REMARK   12  A    between atoms: N2_21  and  C17_22
DOCKED: REMARK   13  A    between atoms: C17_22  and  C18_23
DOCKED: REMARK   14  A    between atoms: C17_22  and  C36_51
DOCKED: REMARK   15  A    between atoms: N3_25  and  C19_26
DOCKED: REMARK   16  A    between atoms: C19_26  and  C20_27
DOCKED: REMARK   17  A    between atoms: C19_26  and  C21_28
DOCKED: REMARK   18  A    between atoms: N4_30  and  C22_31
DOCKED: REMARK   19  A    between atoms: C22_31  and  C23_32
DOCKED: REMARK   20  A    between atoms: C22_31  and  C26_37
DOCKED: REMARK   21  A    between atoms: C23_32  and  C24_33
DOCKED: REMARK   22  A    between atoms: C24_33  and  C25_34
DOCKED: REMARK   23  A    between atoms: C25_34  and  O7_36
DOCKED: REMARK   24  A    between atoms: N5_39  and  C27_40
DOCKED: REMARK   25  A    between atoms: C27_40  and  C28_41
DOCKED: REMARK   26  A    between atoms: C27_40  and  C35_48
DOCKED: REMARK   27  A    between atoms: C28_41  and  C29_42
DOCKED: REMARK   28  A    between atoms: C35_48  and  O10_50
DOCKED: REMARK   29  A    between atoms: C36_51  and  C37_52
DOCKED: REMARK   30  A    between atoms: C36_51  and  C38_53
DOCKED: REMARK                            x       y       z     vdW  Elec       q    Type
DOCKED: REMARK                         _______ _______ _______ _____ _____    ______ ____
DOCKED: USER                              x       y       z     vdW  Elec       q    Type
DOCKED: USER                           _______ _______ _______ _____ _____    ______ ____
DOCKED: ROOT
DOCKED: ATOM      1  C18 UNL     1      10.575  -4.769  -1.689 +0.00 +0.00    +0.234 C  
DOCKED: ATOM      2  O4  UNL     1      11.039  -3.638  -1.553 +0.00 -0.00    -0.274 OA 
DOCKED: ATOM      3  N3  UNL     1      11.102  -5.873  -1.066 +0.00 -0.00    -0.303 N  
DOCKED: ATOM      4  H25 UNL     1      10.734  -6.799  -1.256 +0.00 +0.00    +0.149 HD 
DOCKED: ENDROOT
DOCKED: BRANCH   3   5
DOCKED: ATOM      5  C19 UNL     1      12.331  -5.822  -0.282 +0.00 +0.00    +0.156 C  
DOCKED: ATOM      6  C20 UNL     1      12.975  -7.208  -0.181 +0.00 +0.00    +0.038 C  
DOCKED: BRANCH   5   7
DOCKED: ATOM      7  C21 UNL     1      11.952  -5.282   1.118 +0.00 +0.00    +0.234 C  
DOCKED: ATOM      8  O5  UNL     1      12.440  -5.741   2.151 +0.00 -0.00    -0.274 OA 
DOCKED: ATOM      9  N4  UNL     1      11.036  -4.241   1.125 +0.00 -0.00    -0.302 N  
DOCKED: ATOM     10  H30 UNL     1      10.976  -3.700   0.269 +0.00 +0.00    +0.150 HD 
DOCKED: BRANCH   9  11
DOCKED: ATOM     11  C22 UNL     1      10.889  -3.451   2.345 +0.00 +0.00    +0.159 C  
DOCKED: BRANCH  11  12
DOCKED: ATOM     12  C26 UNL     1      11.196  -1.985   1.977 +0.00 +0.00    +0.234 C  
DOCKED: ATOM     13  O8  UNL     1      11.849  -1.249   2.711 +0.00 -0.00    -0.274 OA 
DOCKED: ATOM     14  N5  UNL     1      10.714  -1.590   0.749 +0.00 -0.00    -0.301 N  
DOCKED: ATOM     15  H37 UNL     1      10.520  -2.309   0.062 +0.00 +0.00    +0.150 HD 
DOCKED: BRANCH  14  16
DOCKED: ATOM     16  C27 UNL     1      11.000  -0.244   0.230 +0.00 +0.00    +0.186 C  
DOCKED: BRANCH  16  17
DOCKED: ATOM     17  C35 UNL     1      10.411  -0.174  -1.176 +0.00 +0.00    +0.326 C  
DOCKED: ATOM     18  O9  UNL     1      10.544   0.759  -1.958 +0.00 -0.00    -0.249 OA 
DOCKED: BRANCH  17  19
DOCKED: ATOM     19  O10 UNL     1       9.702  -1.264  -1.517 +0.00 -0.00    -0.479 OA 
DOCKED: ATOM     20  H46 UNL     1      10.314  -2.020  -1.390 +0.00 +0.00    +0.295 HD 
DOCKED: ENDBRANCH  17  19
DOCKED: ENDBRANCH  16  17
DOCKED: BRANCH  16  21
DOCKED: ATOM     21  C28 UNL     1      10.341   0.807   1.131 +0.00 +0.00    +0.069 C  
DOCKED: BRANCH  21  22
DOCKED: ATOM     22  C29 UNL     1       8.889   0.533   1.444 +0.00 -0.00    -0.045 A  
DOCKED: ATOM     23  C30 UNL     1       7.889   0.834   0.507 +0.00 +0.00    +0.004 A  
DOCKED: ATOM     24  C31 UNL     1       6.547   0.580   0.799 +0.00 +0.00    +0.000 A  
DOCKED: ATOM     25  C32 UNL     1       6.192   0.024   2.027 +0.00 +0.00    +0.000 A  
DOCKED: ATOM     26  C33 UNL     1       7.175  -0.283   2.964 +0.00 +0.00    +0.000 A  
DOCKED: ATOM     27  C34 UNL     1       8.518  -0.029   2.675 +0.00 +0.00    +0.004 A  
DOCKED: ENDBRANCH  21  22
DOCKED: ENDBRANCH  16  21
DOCKED: ENDBRANCH  14  16
DOCKED: ENDBRANCH  11  12
DOCKED: BRANCH  11  28
DOCKED: ATOM     28  C23 UNL     1       9.471  -3.536   2.919 +0.00 +0.00    +0.043 C  
DOCKED: BRANCH  28  29
DOCKED: ATOM     29  C24 UNL     1       8.492  -4.169   1.934 +0.00 +0.00    +0.123 C  
DOCKED: BRANCH  29  30
DOCKED: ATOM     30  C25 UNL     1       8.070  -3.178   0.883 +0.00 +0.00    +0.305 C  
DOCKED: ATOM     31  O6  UNL     1       7.095  -2.444   0.913 +0.00 -0.00    -0.251 OA 
DOCKED: BRANCH  30  32
DOCKED: ATOM     32  O7  UNL     1       8.913  -3.163  -0.161 +0.00 -0.00    -0.481 OA 
DOCKED: ATOM     33  H36 UNL     1       8.995  -2.212  -0.382 +0.00 +0.00    +0.295 HD 
DOCKED: ENDBRANCH  30  32
DOCKED: ENDBRANCH  29  30
DOCKED: ENDBRANCH  28  29
DOCKED: ENDBRANCH  11  28
DOCKED: ENDBRANCH   9  11
DOCKED: ENDBRANCH   5   7
DOCKED: ENDBRANCH   3   5
DOCKED: BRANCH   1  34
DOCKED: ATOM     34  C17 UNL     1       9.306  -5.044  -2.526 +0.00 +0.00    +0.161 C  
DOCKED: BRANCH  34  37
DOCKED: ATOM     35  C16 UNL     1       8.107  -3.316  -3.806 +0.00 +0.00    +0.216 C  
DOCKED: ATOM     36  O3  UNL     1       8.156  -3.960  -4.851 +0.00 -0.00    -0.276 OA 
DOCKED: ATOM     37  N2  UNL     1       8.526  -3.811  -2.589 +0.00 -0.00    -0.304 N  
DOCKED: ATOM     38  H23 UNL     1       8.798  -3.100  -1.910 +0.00 +0.00    +0.149 HD 
DOCKED: BRANCH  35  39
DOCKED: ATOM     39  C15 UNL     1       7.638  -1.878  -3.771 +0.00 +0.00    +0.129 C  
DOCKED: BRANCH  39  40
DOCKED: ATOM     40  C14 UNL     1       6.587  -1.738  -2.666 +0.00 +0.00    +0.143 C  
DOCKED: BRANCH  40  41
DOCKED: ATOM     41  O2  UNL     1       7.285  -1.476  -1.443 +0.00 -0.00    -0.389 OA 
DOCKED: ATOM     42  H20 UNL     1       7.759  -2.293  -1.204 +0.00 +0.00    +0.210 HD 
DOCKED: ENDBRANCH  40  41
DOCKED: BRANCH  40  43
DOCKED: ATOM     43  C5  UNL     1       5.658  -2.979  -2.521 +0.00 +0.00    +0.102 C  
DOCKED: BRANCH  43  44
DOCKED: ATOM     44  N1  UNL     1       5.674  -3.481  -1.142 +0.00 -0.00    -0.310 N  
DOCKED: ATOM     45  C6  UNL     1       4.993  -4.629  -0.768 +0.00 +0.00    +0.218 C  
DOCKED: ATOM     46  O1  UNL     1       4.291  -5.265  -1.550 +0.00 -0.00    -0.275 OA 
DOCKED: ATOM     47  H11 UNL     1       6.385  -3.129  -0.513 +0.00 +0.00    +0.149 HD 
DOCKED: BRANCH  45  48
DOCKED: ATOM     48  C7  UNL     1       5.251  -5.017   0.680 +0.00 +0.00    +0.130 C  
DOCKED: BRANCH  48  49
DOCKED: ATOM     49  C8  UNL     1       4.792  -4.010   1.706 +0.00 -0.00    -0.039 A  
DOCKED: ATOM     50  C9  UNL     1       3.865  -3.009   1.371 +0.00 +0.00    +0.004 A  
DOCKED: ATOM     51  C10 UNL     1       3.460  -2.076   2.330 +0.00 +0.00    +0.000 A  
DOCKED: ATOM     52  C11 UNL     1       3.963  -2.141   3.630 +0.00 +0.00    +0.000 A  
DOCKED: ATOM     53  C12 UNL     1       4.875  -3.138   3.971 +0.00 +0.00    +0.000 A  
DOCKED: ATOM     54  C13 UNL     1       5.288  -4.070   3.017 +0.00 +0.00    +0.004 A  
DOCKED: ENDBRANCH  48  49
DOCKED: ENDBRANCH  45  48
DOCKED: ENDBRANCH  43  44
DOCKED: BRANCH  43  55
DOCKED: ATOM     55  C4  UNL     1       4.185  -2.782  -2.963 +0.00 +0.00    +0.028 C  
DOCKED: BRANCH  55  57
DOCKED: ATOM     56  C1  UNL     1       4.608  -4.653  -4.614 +0.00 +0.00    +0.007 C  
DOCKED: ATOM     57  C2  UNL     1       3.883  -3.324  -4.378 +0.00 -0.00    -0.015 C  
DOCKED: ATOM     58  C3  UNL     1       4.301  -2.312  -5.462 +0.00 +0.00    +0.007 C  
DOCKED: ENDBRANCH  55  57
DOCKED: ENDBRANCH  43  55
DOCKED: ENDBRANCH  40  43
DOCKED: ENDBRANCH  39  40
DOCKED: ENDBRANCH  35  39
DOCKED: ENDBRANCH  34  37
DOCKED: BRANCH  34  59
DOCKED: ATOM     59  C36 UNL     1       8.516  -6.235  -1.951 +0.00 +0.00    +0.012 C  
DOCKED: ATOM     60  C37 UNL     1       7.234  -6.466  -2.758 +0.00 +0.00    +0.009 C  
DOCKED: ATOM     61  C38 UNL     1       8.175  -6.077  -0.463 +0.00 +0.00    +0.009 C  
DOCKED: ENDBRANCH  34  59
DOCKED: ENDBRANCH   1  34
DOCKED: TORSDOF 25
DOCKED: TER
DOCKED: ENDMDL
________________________________________________________________________________


    FINAL DOCKED STATE:
    ________________________


Run:   3 / 20
Time taken for this run:   3.208s

DOCKED: MODEL        3
DOCKED: USER    Run = 3
DOCKED: USER
DOCKED: USER    Estimated Free Energy of Binding    =  +7.46 kcal/mol  [=(1)+(2)+(3)-(4)]
DOCKED: USER
DOCKED: USER    (1) Final Intermolecular Energy     =  +0.00 kcal/mol
DOCKED: USER        vdW + Hbond + desolv Energy     =  +0.00 kcal/mol
DOCKED: USER        Electrostatic Energy            =  +0.00 kcal/mol
DOCKED: USER        Moving Ligand-Fixed Receptor    =  +0.00 kcal/mol
DOCKED: USER        Moving Ligand-Moving Receptor   =  +0.00 kcal/mol
DOCKED: USER    (2) Final Total Internal Energy     = -19.47 kcal/mol
DOCKED: USER    (3) Torsional Free Energy           =  +7.46 kcal/mol
DOCKED: USER    (4) Unbound System's Energy         = -19.47 kcal/mol
DOCKED: USER
DOCKED: USER
DOCKED: REMARK  Name = ligands/ligand_29.pdb
DOCKED: REMARK  30 active torsions:
DOCKED: REMARK  status: ('A' for Active; 'I' for Inactive)
DOCKED: REMARK    1  A    between atoms: C1_1  and  C2_2
DOCKED: REMARK    2  A    between atoms: C2_2  and  C3_3
DOCKED: REMARK    3  A    between atoms: C2_2  and  C4_4
DOCKED: REMARK    4  A    between atoms: C4_4  and  C5_5
DOCKED: REMARK    5  A    between atoms: C5_5  and  N1_6
DOCKED: REMARK    6  A    between atoms: C5_5  and  C14_16
DOCKED: REMARK    7  A    between atoms: C6_7  and  C7_9
DOCKED: REMARK    8  A    between atoms: C7_9  and  C8_10
DOCKED: REMARK    9  A    between atoms: C14_16  and  O2_17
DOCKED: REMARK   10  A    between atoms: C14_16  and  C15_18
DOCKED: REMARK   11  A    between atoms: C15_18  and  C16_19
DOCKED: REMARK   12  A    between atoms: N2_21  and  C17_22
DOCKED: REMARK   13  A    between atoms: C17_22  and  C18_23
DOCKED: REMARK   14  A    between atoms: C17_22  and  C36_51
DOCKED: REMARK   15  A    between atoms: N3_25  and  C19_26
DOCKED: REMARK   16  A    between atoms: C19_26  and  C20_27
DOCKED: REMARK   17  A    between atoms: C19_26  and  C21_28
DOCKED: REMARK   18  A    between atoms: N4_30  and  C22_31
DOCKED: REMARK   19  A    between atoms: C22_31  and  C23_32
DOCKED: REMARK   20  A    between atoms: C22_31  and  C26_37
DOCKED: REMARK   21  A    between atoms: C23_32  and  C24_33
DOCKED: REMARK   22  A    between atoms: C24_33  and  C25_34
DOCKED: REMARK   23  A    between atoms: C25_34  and  O7_36
DOCKED: REMARK   24  A    between atoms: N5_39  and  C27_40
DOCKED: REMARK   25  A    between atoms: C27_40  and  C28_41
DOCKED: REMARK   26  A    between atoms: C27_40  and  C35_48
DOCKED: REMARK   27  A    between atoms: C28_41  and  C29_42
DOCKED: REMARK   28  A    between atoms: C35_48  and  O10_50
DOCKED: REMARK   29  A    between atoms: C36_51  and  C37_52
DOCKED: REMARK   30  A    between atoms: C36_51  and  C38_53
DOCKED: REMARK                            x       y       z     vdW  Elec       q    Type
DOCKED: REMARK                         _______ _______ _______ _____ _____    ______ ____
DOCKED: USER                              x       y       z     vdW  Elec       q    Type
DOCKED: USER                           _______ _______ _______ _____ _____    ______ ____
DOCKED: ROOT
DOCKED: ATOM      1  C18 UNL     1       7.211 -11.772   3.110 +0.00 +0.00    +0.234 C  
DOCKED: ATOM      2  O4  UNL     1       8.306 -11.712   2.553 +0.00 -0.00    -0.274 OA 
DOCKED: ATOM      3  N3  UNL     1       6.032 -11.926   2.423 +0.00 -0.00    -0.303 N  
DOCKED: ATOM      4  H25 UNL     1       5.142 -11.903   2.911 +0.00 +0.00    +0.149 HD 
DOCKED: ENDROOT
DOCKED: BRANCH   3   5
DOCKED: ATOM      5  C19 UNL     1       5.962 -11.914   0.967 +0.00 +0.00    +0.156 C  
DOCKED: ATOM      6  C20 UNL     1       6.860 -12.999   0.365 +0.00 +0.00    +0.038 C  
DOCKED: BRANCH   5   7
DOCKED: ATOM      7  C21 UNL     1       6.404 -10.506   0.503 +0.00 +0.00    +0.234 C  
DOCKED: ATOM      8  O5  UNL     1       5.633  -9.546   0.498 +0.00 -0.00    -0.274 OA 
DOCKED: ATOM      9  N4  UNL     1       7.728 -10.400   0.107 +0.00 -0.00    -0.302 N  
DOCKED: ATOM     10  H30 UNL     1       8.359 -11.102   0.478 +0.00 +0.00    +0.150 HD 
DOCKED: BRANCH   9  11
DOCKED: ATOM     11  C22 UNL     1       8.317  -9.067  -0.009 +0.00 +0.00    +0.159 C  
DOCKED: BRANCH  11  12
DOCKED: ATOM     12  C26 UNL     1       8.562  -8.553   1.424 +0.00 +0.00    +0.234 C  
DOCKED: ATOM     13  O8  UNL     1       7.981  -7.571   1.876 +0.00 -0.00    -0.274 OA 
DOCKED: ATOM     14  N5  UNL     1       9.451  -9.306   2.158 +0.00 -0.00    -0.301 N  
DOCKED: ATOM     15  H37 UNL     1       9.604 -10.267   1.876 +0.00 +0.00    +0.150 HD 
DOCKED: BRANCH  14  16
DOCKED: ATOM     16  C27 UNL     1       9.722  -8.983   3.567 +0.00 +0.00    +0.186 C  
DOCKED: BRANCH  16  17
DOCKED: ATOM     17  C35 UNL     1      10.874  -9.877   4.016 +0.00 +0.00    +0.326 C  
DOCKED: ATOM     18  O9  UNL     1      11.793  -9.539   4.752 +0.00 -0.00    -0.249 OA 
DOCKED: BRANCH  17  19
DOCKED: ATOM     19  O10 UNL     1      10.808 -11.127   3.525 +0.00 -0.00    -0.479 OA 
DOCKED: ATOM     20  H46 UNL     1      10.356 -11.040   2.660 +0.00 +0.00    +0.295 HD 
DOCKED: ENDBRANCH  17  19
DOCKED: ENDBRANCH  16  17
DOCKED: BRANCH  16  21
DOCKED: ATOM     21  C28 UNL     1      10.121  -7.507   3.690 +0.00 +0.00    +0.069 C  
DOCKED: BRANCH  21  22
DOCKED: ATOM     22  C29 UNL     1       9.271  -6.712   4.651 +0.00 -0.00    -0.045 A  
DOCKED: ATOM     23  C30 UNL     1       8.061  -7.234   5.131 +0.00 +0.00    +0.004 A  
DOCKED: ATOM     24  C31 UNL     1       7.275  -6.497   6.020 +0.00 +0.00    +0.000 A  
DOCKED: ATOM     25  C32 UNL     1       7.691  -5.233   6.438 +0.00 +0.00    +0.000 A  
DOCKED: ATOM     26  C33 UNL     1       8.892  -4.706   5.971 +0.00 +0.00    +0.000 A  
DOCKED: ATOM     27  C34 UNL     1       9.679  -5.440   5.081 +0.00 +0.00    +0.004 A  
DOCKED: ENDBRANCH  21  22
DOCKED: ENDBRANCH  16  21
DOCKED: ENDBRANCH  14  16
DOCKED: ENDBRANCH  11  12
DOCKED: BRANCH  11  28
DOCKED: ATOM     28  C23 UNL     1       9.647  -9.088  -0.768 +0.00 +0.00    +0.043 C  
DOCKED: BRANCH  28  29
DOCKED: ATOM     29  C24 UNL     1      10.183 -10.507  -0.944 +0.00 +0.00    +0.123 C  
DOCKED: BRANCH  29  30
DOCKED: ATOM     30  C25 UNL     1      10.719 -11.045   0.356 +0.00 +0.00    +0.305 C  
DOCKED: ATOM     31  O6  UNL     1      11.656 -10.606   1.004 +0.00 -0.00    -0.251 OA 
DOCKED: BRANCH  30  32
DOCKED: ATOM     32  O7  UNL     1      10.033 -12.120   0.776 +0.00 -0.00    -0.481 OA 
DOCKED: ATOM     33  H36 UNL     1      10.253 -12.179   1.729 +0.00 +0.00    +0.295 HD 
DOCKED: ENDBRANCH  30  32
DOCKED: ENDBRANCH  29  30
DOCKED: ENDBRANCH  28  29
DOCKED: ENDBRANCH  11  28
DOCKED: ENDBRANCH   9  11
DOCKED: ENDBRANCH   5   7
DOCKED: ENDBRANCH   3   5
DOCKED: BRANCH   1  34
DOCKED: ATOM     34  C17 UNL     1       7.065 -11.747   4.648 +0.00 +0.00    +0.161 C  
DOCKED: BRANCH  34  37
DOCKED: ATOM     35  C16 UNL     1       5.069 -10.338   4.948 +0.00 +0.00    +0.216 C  
DOCKED: ATOM     36  O3  UNL     1       4.296 -11.280   4.788 +0.00 -0.00    -0.276 OA 
DOCKED: ATOM     37  N2  UNL     1       6.438 -10.484   5.025 +0.00 -0.00    -0.304 N  
DOCKED: ATOM     38  H23 UNL     1       6.970  -9.652   4.770 +0.00 +0.00    +0.149 HD 
DOCKED: BRANCH  35  39
DOCKED: ATOM     39  C15 UNL     1       4.585  -8.906   5.010 +0.00 +0.00    +0.129 C  
DOCKED: BRANCH  39  40
DOCKED: ATOM     40  C14 UNL     1       4.724  -8.288   3.615 +0.00 +0.00    +0.143 C  
DOCKED: BRANCH  40  41
DOCKED: ATOM     41  O2  UNL     1       6.044  -8.587   3.144 +0.00 -0.00    -0.389 OA 
DOCKED: ATOM     42  H20 UNL     1       6.063  -8.372   2.194 +0.00 +0.00    +0.210 HD 
DOCKED: ENDBRANCH  40  41
DOCKED: BRANCH  40  43
DOCKED: ATOM     43  C5  UNL     1       4.454  -6.755   3.577 +0.00 +0.00    +0.102 C  
DOCKED: BRANCH  43  44
DOCKED: ATOM     44  N1  UNL     1       5.675  -6.022   3.224 +0.00 -0.00    -0.310 N  
DOCKED: ATOM     45  C6  UNL     1       5.792  -4.652   3.410 +0.00 +0.00    +0.218 C  
DOCKED: ATOM     46  O1  UNL     1       4.866  -3.961   3.827 +0.00 -0.00    -0.275 OA 
DOCKED: ATOM     47  H11 UNL     1       6.525  -6.551   3.076 +0.00 +0.00    +0.149 HD 
DOCKED: BRANCH  45  48
DOCKED: ATOM     48  C7  UNL     1       7.185  -4.135   3.084 +0.00 +0.00    +0.130 C  
DOCKED: BRANCH  48  49
DOCKED: ATOM     49  C8  UNL     1       7.771  -4.641   1.788 +0.00 -0.00    -0.039 A  
DOCKED: ATOM     50  C9  UNL     1       6.945  -4.954   0.696 +0.00 +0.00    +0.004 A  
DOCKED: ATOM     51  C10 UNL     1       7.502  -5.434  -0.493 +0.00 +0.00    +0.000 A  
DOCKED: ATOM     52  C11 UNL     1       8.884  -5.593  -0.607 +0.00 +0.00    +0.000 A  
DOCKED: ATOM     53  C12 UNL     1       9.709  -5.274   0.470 +0.00 +0.00    +0.000 A  
DOCKED: ATOM     54  C13 UNL     1       9.159  -4.799   1.662 +0.00 +0.00    +0.004 A  
DOCKED: ENDBRANCH  48  49
DOCKED: ENDBRANCH  45  48
DOCKED: ENDBRANCH  43  44
DOCKED: BRANCH  43  55
DOCKED: ATOM     55  C4  UNL     1       3.306  -6.289   2.646 +0.00 +0.00    +0.028 C  
DOCKED: BRANCH  55  57
DOCKED: ATOM     56  C1  UNL     1       3.105  -4.986   0.486 +0.00 +0.00    +0.007 C  
DOCKED: ATOM     57  C2  UNL     1       3.700  -6.231   1.154 +0.00 -0.00    -0.015 C  
DOCKED: ATOM     58  C3  UNL     1       3.227  -7.490   0.403 +0.00 +0.00    +0.007 C  
DOCKED: ENDBRANCH  55  57
DOCKED: ENDBRANCH  43  55
DOCKED: ENDBRANCH  40  43
DOCKED: ENDBRANCH  39  40
DOCKED: ENDBRANCH  35  39
DOCKED: ENDBRANCH  34  37
DOCKED: BRANCH  34  59
DOCKED: ATOM     59  C36 UNL     1       8.425 -11.981   5.333 +0.00 +0.00    +0.012 C  
DOCKED: ATOM     60  C37 UNL     1       8.534 -13.429   5.823 +0.00 +0.00    +0.009 C  
DOCKED: ATOM     61  C38 UNL     1       8.695 -11.015   6.494 +0.00 +0.00    +0.009 C  
DOCKED: ENDBRANCH  34  59
DOCKED: ENDBRANCH   1  34
DOCKED: TORSDOF 25
DOCKED: TER
DOCKED: ENDMDL
________________________________________________________________________________


    FINAL DOCKED STATE:
    ________________________


Run:   4 / 20
Time taken for this run:   3.208s

DOCKED: MODEL        4
DOCKED: USER    Run = 4
DOCKED: USER
DOCKED: USER    Estimated Free Energy of Binding    =  +7.46 kcal/mol  [=(1)+(2)+(3)-(4)]
DOCKED: USER
DOCKED: USER    (1) Final Intermolecular Energy     =  +0.00 kcal/mol
DOCKED: USER        vdW + Hbond + desolv Energy     =  +0.00 kcal/mol
DOCKED: USER        Electrostatic Energy            =  +0.00 kcal/mol
DOCKED: USER        Moving Ligand-Fixed Receptor    =  +0.00 kcal/mol
DOCKED: USER        Moving Ligand-Moving Receptor   =  +0.00 kcal/mol
DOCKED: USER    (2) Final Total Internal Energy     = -19.48 kcal/mol
DOCKED: USER    (3) Torsional Free Energy           =  +7.46 kcal/mol
DOCKED: USER    (4) Unbound System's Energy         = -19.48 kcal/mol
DOCKED: USER
DOCKED: USER
DOCKED: REMARK  Name = ligands/ligand_29.pdb
DOCKED: REMARK  30 active torsions:
DOCKED: REMARK  status: ('A' for Active; 'I' for Inactive)
DOCKED: REMARK    1  A    between atoms: C1_1  and  C2_2
DOCKED: REMARK    2  A    between atoms: C2_2  and  C3_3
DOCKED: REMARK    3  A    between atoms: C2_2  and  C4_4
DOCKED: REMARK    4  A    between atoms: C4_4  and  C5_5
DOCKED: REMARK    5  A    between atoms: C5_5  and  N1_6
DOCKED: REMARK    6  A    between atoms: C5_5  and  C14_16
DOCKED: REMARK    7  A    between atoms: C6_7  and  C7_9
DOCKED: REMARK    8  A    between atoms: C7_9  and  C8_10
DOCKED: REMARK    9  A    between atoms: C14_16  and  O2_17
DOCKED: REMARK   10  A    between atoms: C14_16  and  C15_18
DOCKED: REMARK   11  A    between atoms: C15_18  and  C16_19
DOCKED: REMARK   12  A    between atoms: N2_21  and  C17_22
DOCKED: REMARK   13  A    between atoms: C17_22  and  C18_23
DOCKED: REMARK   14  A    between atoms: C17_22  and  C36_51
DOCKED: REMARK   15  A    between atoms: N3_25  and  C19_26
DOCKED: REMARK   16  A    between atoms: C19_26  and  C20_27
DOCKED: REMARK   17  A    between atoms: C19_26  and  C21_28
DOCKED: REMARK   18  A    between atoms: N4_30  and  C22_31
DOCKED: REMARK   19  A    between atoms: C22_31  and  C23_32
DOCKED: REMARK   20  A    between atoms: C22_31  and  C26_37
DOCKED: REMARK   21  A    between atoms: C23_32  and  C24_33
DOCKED: REMARK   22  A    between atoms: C24_33  and  C25_34
DOCKED: REMARK   23  A    between atoms: C25_34  and  O7_36
DOCKED: REMARK   24  A    between atoms: N5_39  and  C27_40
DOCKED: REMARK   25  A    between atoms: C27_40  and  C28_41
DOCKED: REMARK   26  A    between atoms: C27_40  and  C35_48
DOCKED: REMARK   27  A    between atoms: C28_41  and  C29_42
DOCKED: REMARK   28  A    between atoms: C35_48  and  O10_50
DOCKED: REMARK   29  A    between atoms: C36_51  and  C37_52
DOCKED: REMARK   30  A    between atoms: C36_51  and  C38_53
DOCKED: REMARK                            x       y       z     vdW  Elec       q    Type
DOCKED: REMARK                         _______ _______ _______ _____ _____    ______ ____
DOCKED: USER                              x       y       z     vdW  Elec       q    Type
DOCKED: USER                           _______ _______ _______ _____ _____    ______ ____
DOCKED: ROOT
DOCKED: ATOM      1  C18 UNL     1       8.932  -8.241  -2.775 +0.00 +0.00    +0.234 C  
DOCKED: ATOM      2  O4  UNL     1       7.931  -8.956  -2.735 +0.00 -0.00    -0.274 OA 
DOCKED: ATOM      3  N3  UNL     1       9.220  -7.305  -1.812 +0.00 -0.00    -0.303 N  
DOCKED: ATOM      4  H25 UNL     1      10.018  -6.688  -1.913 +0.00 +0.00    +0.149 HD 
DOCKED: ENDROOT
DOCKED: BRANCH   3   5
DOCKED: ATOM      5  C19 UNL     1       8.306  -6.994  -0.719 +0.00 +0.00    +0.156 C  
DOCKED: ATOM      6  C20 UNL     1       7.982  -8.247   0.100 +0.00 +0.00    +0.038 C  
DOCKED: BRANCH   5   7
DOCKED: ATOM      7  C21 UNL     1       7.026  -6.399  -1.354 +0.00 +0.00    +0.234 C  
DOCKED: ATOM      8  O5  UNL     1       6.951  -5.217  -1.690 +0.00 -0.00    -0.274 OA 
DOCKED: ATOM      9  N4  UNL     1       5.980  -7.291  -1.528 +0.00 -0.00    -0.302 N  
DOCKED: ATOM     10  H30 UNL     1       6.237  -8.271  -1.576 +0.00 +0.00    +0.150 HD 
DOCKED: BRANCH   9  11
DOCKED: ATOM     11  C22 UNL     1       4.884  -6.915  -2.420 +0.00 +0.00    +0.159 C  
DOCKED: BRANCH  11  12
DOCKED: ATOM     12  C26 UNL     1       5.411  -7.042  -3.865 +0.00 +0.00    +0.234 C  
DOCKED: ATOM     13  O8  UNL     1       5.514  -6.074  -4.611 +0.00 -0.00    -0.274 OA 
DOCKED: ATOM     14  N5  UNL     1       5.789  -8.316  -4.226 +0.00 -0.00    -0.301 N  
DOCKED: ATOM     15  H37 UNL     1       6.022  -8.969  -3.488 +0.00 +0.00    +0.150 HD 
DOCKED: BRANCH  14  16
DOCKED: ATOM     16  C27 UNL     1       6.385  -8.574  -5.546 +0.00 +0.00    +0.186 C  
DOCKED: BRANCH  16  17
DOCKED: ATOM     17  C35 UNL     1       6.509 -10.088  -5.690 +0.00 +0.00    +0.326 C  
DOCKED: ATOM     18  O9  UNL     1       6.311 -10.723  -6.719 +0.00 -0.00    -0.249 OA 
DOCKED: BRANCH  17  19
DOCKED: ATOM     19  O10 UNL     1       6.871 -10.709  -4.555 +0.00 -0.00    -0.479 OA 
DOCKED: ATOM     20  H46 UNL     1       6.511 -10.154  -3.831 +0.00 +0.00    +0.295 HD 
DOCKED: ENDBRANCH  17  19
DOCKED: ENDBRANCH  16  17
DOCKED: BRANCH  16  21
DOCKED: ATOM     21  C28 UNL     1       5.472  -8.013  -6.642 +0.00 +0.00    +0.069 C  
DOCKED: BRANCH  21  22
DOCKED: ATOM     22  C29 UNL     1       6.148  -7.034  -7.573 +0.00 -0.00    -0.045 A  
DOCKED: ATOM     23  C30 UNL     1       7.407  -6.503  -7.255 +0.00 +0.00    +0.004 A  
DOCKED: ATOM     24  C31 UNL     1       8.031  -5.598  -8.116 +0.00 +0.00    +0.000 A  
DOCKED: ATOM     25  C32 UNL     1       7.404  -5.216  -9.302 +0.00 +0.00    +0.000 A  
DOCKED: ATOM     26  C33 UNL     1       6.157  -5.739  -9.630 +0.00 +0.00    +0.000 A  
DOCKED: ATOM     27  C34 UNL     1       5.530  -6.644  -8.770 +0.00 +0.00    +0.004 A  
DOCKED: ENDBRANCH  21  22
DOCKED: ENDBRANCH  16  21
DOCKED: ENDBRANCH  14  16
DOCKED: ENDBRANCH  11  12
DOCKED: BRANCH  11  28
DOCKED: ATOM     28  C23 UNL     1       3.664  -7.826  -2.251 +0.00 +0.00    +0.043 C  
DOCKED: BRANCH  28  29
DOCKED: ATOM     29  C24 UNL     1       3.991  -9.073  -1.432 +0.00 +0.00    +0.123 C  
DOCKED: BRANCH  29  30
DOCKED: ATOM     30  C25 UNL     1       4.818 -10.041  -2.235 +0.00 +0.00    +0.305 C  
DOCKED: ATOM     31  O6  UNL     1       4.494 -10.607  -3.267 +0.00 -0.00    -0.251 OA 
DOCKED: BRANCH  30  32
DOCKED: ATOM     32  O7  UNL     1       6.026 -10.245  -1.686 +0.00 -0.00    -0.481 OA 
DOCKED: ATOM     33  H36 UNL     1       6.562 -10.599  -2.427 +0.00 +0.00    +0.295 HD 
DOCKED: ENDBRANCH  30  32
DOCKED: ENDBRANCH  29  30
DOCKED: ENDBRANCH  28  29
DOCKED: ENDBRANCH  11  28
DOCKED: ENDBRANCH   9  11
DOCKED: ENDBRANCH   5   7
DOCKED: ENDBRANCH   3   5
DOCKED: BRANCH   1  34
DOCKED: ATOM     34  C17 UNL     1       9.999  -8.377  -3.884 +0.00 +0.00    +0.161 C  
DOCKED: BRANCH  34  37
DOCKED: ATOM     35  C16 UNL     1      10.554  -6.025  -4.347 +0.00 +0.00    +0.216 C  
DOCKED: ATOM     36  O3  UNL     1      11.366  -5.964  -3.426 +0.00 -0.00    -0.276 OA 
DOCKED: ATOM     37  N2  UNL     1       9.928  -7.192  -4.732 +0.00 -0.00    -0.304 N  
DOCKED: ATOM     38  H23 UNL     1       9.035  -7.060  -5.206 +0.00 +0.00    +0.149 HD 
DOCKED: BRANCH  35  39
DOCKED: ATOM     39  C15 UNL     1      10.110  -4.794  -5.107 +0.00 +0.00    +0.129 C  
DOCKED: BRANCH  39  40
DOCKED: ATOM     40  C14 UNL     1       8.802  -4.289  -4.490 +0.00 +0.00    +0.143 C  
DOCKED: BRANCH  40  41
DOCKED: ATOM     41  O2  UNL     1       7.928  -5.416  -4.359 +0.00 -0.00    -0.389 OA 
DOCKED: ATOM     42  H20 UNL     1       7.245  -5.173  -3.707 +0.00 +0.00    +0.210 HD 
DOCKED: ENDBRANCH  40  41
DOCKED: BRANCH  40  43
DOCKED: ATOM     43  C5  UNL     1       8.123  -3.149  -5.303 +0.00 +0.00    +0.102 C  
DOCKED: BRANCH  43  44
DOCKED: ATOM     44  N1  UNL     1       6.834  -3.596  -5.844 +0.00 -0.00    -0.310 N  
DOCKED: ATOM     45  C6  UNL     1       6.168  -2.892  -6.837 +0.00 +0.00    +0.218 C  
DOCKED: ATOM     46  O1  UNL     1       6.585  -1.826  -7.283 +0.00 -0.00    -0.275 OA 
DOCKED: ATOM     47  H11 UNL     1       6.548  -4.551  -5.672 +0.00 +0.00    +0.149 HD 
DOCKED: BRANCH  45  48
DOCKED: ATOM     48  C7  UNL     1       4.915  -3.606  -7.320 +0.00 +0.00    +0.130 C  
DOCKED: BRANCH  48  49
DOCKED: ATOM     49  C8  UNL     1       4.018  -4.139  -6.229 +0.00 -0.00    -0.039 A  
DOCKED: ATOM     50  C9  UNL     1       3.931  -3.492  -4.986 +0.00 +0.00    +0.004 A  
DOCKED: ATOM     51  C10 UNL     1       3.106  -4.005  -3.982 +0.00 +0.00    +0.000 A  
DOCKED: ATOM     52  C11 UNL     1       2.352  -5.157  -4.212 +0.00 +0.00    +0.000 A  
DOCKED: ATOM     53  C12 UNL     1       2.427  -5.798  -5.447 +0.00 +0.00    +0.000 A  
DOCKED: ATOM     54  C13 UNL     1       3.253  -5.293  -6.453 +0.00 +0.00    +0.004 A  
DOCKED: ENDBRANCH  48  49
DOCKED: ENDBRANCH  45  48
DOCKED: ENDBRANCH  43  44
DOCKED: BRANCH  43  55
DOCKED: ATOM     55  C4  UNL     1       7.911  -1.810  -4.552 +0.00 +0.00    +0.028 C  
DOCKED: BRANCH  55  57
DOCKED: ATOM     56  C1  UNL     1       5.985  -0.436  -3.652 +0.00 +0.00    +0.007 C  
DOCKED: ATOM     57  C2  UNL     1       6.675  -1.804  -3.626 +0.00 -0.00    -0.015 C  
DOCKED: ATOM     58  C3  UNL     1       7.064  -2.154  -2.177 +0.00 +0.00    +0.007 C  
DOCKED: ENDBRANCH  55  57
DOCKED: ENDBRANCH  43  55
DOCKED: ENDBRANCH  40  43
DOCKED: ENDBRANCH  39  40
DOCKED: ENDBRANCH  35  39
DOCKED: ENDBRANCH  34  37
DOCKED: BRANCH  34  59
DOCKED: ATOM     59  C36 UNL     1       9.818  -9.695  -4.662 +0.00 +0.00    +0.012 C  
DOCKED: ATOM     60  C37 UNL     1      10.829 -10.741  -4.183 +0.00 +0.00    +0.009 C  
DOCKED: ATOM     61  C38 UNL     1       9.926  -9.522  -6.182 +0.00 +0.00    +0.009 C  
DOCKED: ENDBRANCH  34  59
DOCKED: ENDBRANCH   1  34
DOCKED: TORSDOF 25
DOCKED: TER
DOCKED: ENDMDL
________________________________________________________________________________


    FINAL DOCKED STATE:
    ________________________


Run:   5 / 20
Time taken for this run:   3.208s

DOCKED: MODEL        5
DOCKED: USER    Run = 5
DOCKED: USER
DOCKED: USER    Estimated Free Energy of Binding    =  +7.46 kcal/mol  [=(1)+(2)+(3)-(4)]
DOCKED: USER
DOCKED: USER    (1) Final Intermolecular Energy     =  +0.00 kcal/mol
DOCKED: USER        vdW + Hbond + desolv Energy     =  +0.00 kcal/mol
DOCKED: USER        Electrostatic Energy            =  +0.00 kcal/mol
DOCKED: USER        Moving Ligand-Fixed Receptor    =  +0.00 kcal/mol
DOCKED: USER        Moving Ligand-Moving Receptor   =  +0.00 kcal/mol
DOCKED: USER    (2) Final Total Internal Energy     = -19.48 kcal/mol
DOCKED: USER    (3) Torsional Free Energy           =  +7.46 kcal/mol
DOCKED: USER    (4) Unbound System's Energy         = -19.48 kcal/mol
DOCKED: USER
DOCKED: USER
DOCKED: REMARK  Name = ligands/ligand_29.pdb
DOCKED: REMARK  30 active torsions:
DOCKED: REMARK  status: ('A' for Active; 'I' for Inactive)
DOCKED: REMARK    1  A    between atoms: C1_1  and  C2_2
DOCKED: REMARK    2  A    between atoms: C2_2  and  C3_3
DOCKED: REMARK    3  A    between atoms: C2_2  and  C4_4
DOCKED: REMARK    4  A    between atoms: C4_4  and  C5_5
DOCKED: REMARK    5  A    between atoms: C5_5  and  N1_6
DOCKED: REMARK    6  A    between atoms: C5_5  and  C14_16
DOCKED: REMARK    7  A    between atoms: C6_7  and  C7_9
DOCKED: REMARK    8  A    between atoms: C7_9  and  C8_10
DOCKED: REMARK    9  A    between atoms: C14_16  and  O2_17
DOCKED: REMARK   10  A    between atoms: C14_16  and  C15_18
DOCKED: REMARK   11  A    between atoms: C15_18  and  C16_19
DOCKED: REMARK   12  A    between atoms: N2_21  and  C17_22
DOCKED: REMARK   13  A    between atoms: C17_22  and  C18_23
DOCKED: REMARK   14  A    between atoms: C17_22  and  C36_51
DOCKED: REMARK   15  A    between atoms: N3_25  and  C19_26
DOCKED: REMARK   16  A    between atoms: C19_26  and  C20_27
DOCKED: REMARK   17  A    between atoms: C19_26  and  C21_28
DOCKED: REMARK   18  A    between atoms: N4_30  and  C22_31
DOCKED: REMARK   19  A    between atoms: C22_31  and  C23_32
DOCKED: REMARK   20  A    between atoms: C22_31  and  C26_37
DOCKED: REMARK   21  A    between atoms: C23_32  and  C24_33
DOCKED: REMARK   22  A    between atoms: C24_33  and  C25_34
DOCKED: REMARK   23  A    between atoms: C25_34  and  O7_36
DOCKED: REMARK   24  A    between atoms: N5_39  and  C27_40
DOCKED: REMARK   25  A    between atoms: C27_40  and  C28_41
DOCKED: REMARK   26  A    between atoms: C27_40  and  C35_48
DOCKED: REMARK   27  A    between atoms: C28_41  and  C29_42
DOCKED: REMARK   28  A    between atoms: C35_48  and  O10_50
DOCKED: REMARK   29  A    between atoms: C36_51  and  C37_52
DOCKED: REMARK   30  A    between atoms: C36_51  and  C38_53
DOCKED: REMARK                            x       y       z     vdW  Elec       q    Type
DOCKED: REMARK                         _______ _______ _______ _____ _____    ______ ____
DOCKED: USER                              x       y       z     vdW  Elec       q    Type
DOCKED: USER                           _______ _______ _______ _____ _____    ______ ____
DOCKED: ROOT
DOCKED: ATOM      1  C18 UNL     1       8.689  -5.890   0.645 +0.00 +0.00    +0.234 C  
DOCKED: ATOM      2  O4  UNL     1       9.542  -6.687   0.257 +0.00 -0.00    -0.274 OA 
DOCKED: ATOM      3  N3  UNL     1       8.053  -5.008  -0.195 +0.00 -0.00    -0.303 N  
DOCKED: ATOM      4  H25 UNL     1       7.404  -4.320   0.172 +0.00 +0.00    +0.149 HD 
DOCKED: ENDROOT
DOCKED: BRANCH   3   5
DOCKED: ATOM      5  C19 UNL     1       8.417  -4.858  -1.599 +0.00 +0.00    +0.156 C  
DOCKED: ATOM      6  C20 UNL     1       8.309  -6.194  -2.340 +0.00 +0.00    +0.038 C  
DOCKED: BRANCH   5   7
DOCKED: ATOM      7  C21 UNL     1       9.867  -4.317  -1.636 +0.00 +0.00    +0.234 C  
DOCKED: ATOM      8  O5  UNL     1      10.122  -3.121  -1.497 +0.00 -0.00    -0.274 OA 
DOCKED: ATOM      9  N4  UNL     1      10.853  -5.273  -1.824 +0.00 -0.00    -0.302 N  
DOCKED: ATOM     10  H30 UNL     1      10.605  -6.221  -1.565 +0.00 +0.00    +0.150 HD 
DOCKED: BRANCH   9  11
DOCKED: ATOM     11  C22 UNL     1      12.238  -4.913  -1.528 +0.00 +0.00    +0.159 C  
DOCKED: BRANCH  11  12
DOCKED: ATOM     12  C26 UNL     1      12.388  -4.908   0.007 +0.00 +0.00    +0.234 C  
DOCKED: ATOM     13  O8  UNL     1      12.667  -3.891   0.633 +0.00 -0.00    -0.274 OA 
DOCKED: ATOM     14  N5  UNL     1      12.143  -6.122   0.611 +0.00 -0.00    -0.301 N  
DOCKED: ATOM     15  H37 UNL     1      11.579  -6.796   0.107 +0.00 +0.00    +0.150 HD 
DOCKED: BRANCH  14  16
DOCKED: ATOM     16  C27 UNL     1      12.169  -6.248   2.075 +0.00 +0.00    +0.186 C  
DOCKED: BRANCH  16  17
DOCKED: ATOM     17  C35 UNL     1      12.043  -7.735   2.396 +0.00 +0.00    +0.326 C  
DOCKED: ATOM     18  O9  UNL     1      12.643  -8.324   3.286 +0.00 -0.00    -0.249 OA 
DOCKED: BRANCH  17  19
DOCKED: ATOM     19  O10 UNL     1      11.182  -8.387   1.596 +0.00 -0.00    -0.479 OA 
DOCKED: ATOM     20  H46 UNL     1      11.240  -7.932   0.729 +0.00 +0.00    +0.295 HD 
DOCKED: ENDBRANCH  17  19
DOCKED: ENDBRANCH  16  17
DOCKED: BRANCH  16  21
DOCKED: ATOM     21  C28 UNL     1      13.496  -5.703   2.616 +0.00 +0.00    +0.069 C  
DOCKED: BRANCH  21  22
DOCKED: ATOM     22  C29 UNL     1      13.344  -4.623   3.660 +0.00 -0.00    -0.045 A  
DOCKED: ATOM     23  C30 UNL     1      12.107  -3.992   3.857 +0.00 +0.00    +0.004 A  
DOCKED: ATOM     24  C31 UNL     1      11.967  -2.992   4.823 +0.00 +0.00    +0.000 A  
DOCKED: ATOM     25  C32 UNL     1      13.061  -2.616   5.602 +0.00 +0.00    +0.000 A  
DOCKED: ATOM     26  C33 UNL     1      14.293  -3.238   5.419 +0.00 +0.00    +0.000 A  
DOCKED: ATOM     27  C34 UNL     1      14.436  -4.237   4.452 +0.00 +0.00    +0.004 A  
DOCKED: ENDBRANCH  21  22
DOCKED: ENDBRANCH  16  21
DOCKED: ENDBRANCH  14  16
DOCKED: ENDBRANCH  11  12
DOCKED: BRANCH  11  28
DOCKED: ATOM     28  C23 UNL     1      13.233  -5.913  -2.124 +0.00 +0.00    +0.043 C  
DOCKED: BRANCH  28  29
DOCKED: ATOM     29  C24 UNL     1      12.545  -7.189  -2.605 +0.00 +0.00    +0.123 C  
DOCKED: BRANCH  29  30
DOCKED: ATOM     30  C25 UNL     1      12.095  -8.029  -1.440 +0.00 +0.00    +0.305 C  
DOCKED: ATOM     31  O6  UNL     1      12.803  -8.556  -0.596 +0.00 -0.00    -0.251 OA 
DOCKED: BRANCH  30  32
DOCKED: ATOM     32  O7  UNL     1      10.760  -8.158  -1.399 +0.00 -0.00    -0.481 OA 
DOCKED: ATOM     33  H36 UNL     1      10.581  -8.433  -0.475 +0.00 +0.00    +0.295 HD 
DOCKED: ENDBRANCH  30  32
DOCKED: ENDBRANCH  29  30
DOCKED: ENDBRANCH  28  29
DOCKED: ENDBRANCH  11  28
DOCKED: ENDBRANCH   9  11
DOCKED: ENDBRANCH   5   7
DOCKED: ENDBRANCH   3   5
DOCKED: BRANCH   1  34
DOCKED: ATOM     34  C17 UNL     1       8.201  -5.852   2.111 +0.00 +0.00    +0.161 C  
DOCKED: BRANCH  34  37
DOCKED: ATOM     35  C16 UNL     1       8.007  -3.432   2.518 +0.00 +0.00    +0.216 C  
DOCKED: ATOM     36  O3  UNL     1       6.881  -3.371   2.031 +0.00 -0.00    -0.276 OA 
DOCKED: ATOM     37  N2  UNL     1       8.685  -4.616   2.719 +0.00 -0.00    -0.304 N  
DOCKED: ATOM     38  H23 UNL     1       9.700  -4.527   2.751 +0.00 +0.00    +0.149 HD 
DOCKED: BRANCH  35  39
DOCKED: ATOM     39  C15 UNL     1       8.791  -2.191   2.885 +0.00 +0.00    +0.129 C  
DOCKED: BRANCH  39  40
DOCKED: ATOM     40  C14 UNL     1       9.729  -1.850   1.723 +0.00 +0.00    +0.143 C  
DOCKED: BRANCH  40  41
DOCKED: ATOM     41  O2  UNL     1      10.404  -3.057   1.350 +0.00 -0.00    -0.389 OA 
DOCKED: ATOM     42  H20 UNL     1      10.778  -2.912   0.462 +0.00 +0.00    +0.210 HD 
DOCKED: ENDBRANCH  40  41
DOCKED: BRANCH  40  43
DOCKED: ATOM     43  C5  UNL     1      10.748  -0.720   2.049 +0.00 +0.00    +0.102 C  
DOCKED: BRANCH  43  44
DOCKED: ATOM     44  N1  UNL     1      12.118  -1.244   2.059 +0.00 -0.00    -0.310 N  
DOCKED: ATOM     45  C6  UNL     1      13.176  -0.534   2.609 +0.00 +0.00    +0.218 C  
DOCKED: ATOM     46  O1  UNL     1      13.042   0.597   3.070 +0.00 -0.00    -0.275 OA 
DOCKED: ATOM     47  H11 UNL     1      12.253  -2.232   1.888 +0.00 +0.00    +0.149 HD 
DOCKED: BRANCH  45  48
DOCKED: ATOM     48  C7  UNL     1      14.474  -1.325   2.609 +0.00 +0.00    +0.130 C  
DOCKED: BRANCH  48  49
DOCKED: ATOM     49  C8  UNL     1      14.809  -2.011   1.307 +0.00 -0.00    -0.039 A  
DOCKED: ATOM     50  C9  UNL     1      14.402  -1.466   0.079 +0.00 +0.00    +0.004 A  
DOCKED: ATOM     51  C10 UNL     1      14.709  -2.120  -1.118 +0.00 +0.00    +0.000 A  
DOCKED: ATOM     52  C11 UNL     1      15.434  -3.313  -1.101 +0.00 +0.00    +0.000 A  
DOCKED: ATOM     53  C12 UNL     1      15.850  -3.853   0.116 +0.00 +0.00    +0.000 A  
DOCKED: ATOM     54  C13 UNL     1      15.542  -3.207   1.314 +0.00 +0.00    +0.004 A  
DOCKED: ENDBRANCH  48  49
DOCKED: ENDBRANCH  45  48
DOCKED: ENDBRANCH  43  44
DOCKED: BRANCH  43  55
DOCKED: ATOM     55  C4  UNL     1      10.698   0.528   1.130 +0.00 +0.00    +0.028 C  
DOCKED: BRANCH  55  57
DOCKED: ATOM     56  C1  UNL     1      12.184   1.604  -0.613 +0.00 +0.00    +0.007 C  
DOCKED: ATOM     57  C2  UNL     1      11.420   0.335  -0.221 +0.00 -0.00    -0.015 C  
DOCKED: ATOM     58  C3  UNL     1      10.423  -0.027  -1.338 +0.00 +0.00    +0.007 C  
DOCKED: ENDBRANCH  55  57
DOCKED: ENDBRANCH  43  55
DOCKED: ENDBRANCH  40  43
DOCKED: ENDBRANCH  39  40
DOCKED: ENDBRANCH  35  39
DOCKED: ENDBRANCH  34  37
DOCKED: BRANCH  34  59
DOCKED: ATOM     59  C36 UNL     1       8.642  -7.118   2.869 +0.00 +0.00    +0.012 C  
DOCKED: ATOM     60  C37 UNL     1       7.466  -8.091   3.014 +0.00 +0.00    +0.009 C  
DOCKED: ATOM     61  C38 UNL     1       9.246  -6.821   4.248 +0.00 +0.00    +0.009 C  
DOCKED: ENDBRANCH  34  59
DOCKED: ENDBRANCH   1  34
DOCKED: TORSDOF 25
DOCKED: TER
DOCKED: ENDMDL
________________________________________________________________________________


    FINAL DOCKED STATE:
    ________________________


Run:   6 / 20
Time taken for this run:   3.208s

DOCKED: MODEL        6
DOCKED: USER    Run = 6
DOCKED: USER
DOCKED: USER    Estimated Free Energy of Binding    =  +7.46 kcal/mol  [=(1)+(2)+(3)-(4)]
DOCKED: USER
DOCKED: USER    (1) Final Intermolecular Energy     =  +0.00 kcal/mol
DOCKED: USER        vdW + Hbond + desolv Energy     =  +0.00 kcal/mol
DOCKED: USER        Electrostatic Energy            =  +0.00 kcal/mol
DOCKED: USER        Moving Ligand-Fixed Receptor    =  +0.00 kcal/mol
DOCKED: USER        Moving Ligand-Moving Receptor   =  +0.00 kcal/mol
DOCKED: USER    (2) Final Total Internal Energy     = -19.58 kcal/mol
DOCKED: USER    (3) Torsional Free Energy           =  +7.46 kcal/mol
DOCKED: USER    (4) Unbound System's Energy         = -19.58 kcal/mol
DOCKED: USER
DOCKED: USER
DOCKED: REMARK  Name = ligands/ligand_29.pdb
DOCKED: REMARK  30 active torsions:
DOCKED: REMARK  status: ('A' for Active; 'I' for Inactive)
DOCKED: REMARK    1  A    between atoms: C1_1  and  C2_2
DOCKED: REMARK    2  A    between atoms: C2_2  and  C3_3
DOCKED: REMARK    3  A    between atoms: C2_2  and  C4_4
DOCKED: REMARK    4  A    between atoms: C4_4  and  C5_5
DOCKED: REMARK    5  A    between atoms: C5_5  and  N1_6
DOCKED: REMARK    6  A    between atoms: C5_5  and  C14_16
DOCKED: REMARK    7  A    between atoms: C6_7  and  C7_9
DOCKED: REMARK    8  A    between atoms: C7_9  and  C8_10
DOCKED: REMARK    9  A    between atoms: C14_16  and  O2_17
DOCKED: REMARK   10  A    between atoms: C14_16  and  C15_18
DOCKED: REMARK   11  A    between atoms: C15_18  and  C16_19
DOCKED: REMARK   12  A    between atoms: N2_21  and  C17_22
DOCKED: REMARK   13  A    between atoms: C17_22  and  C18_23
DOCKED: REMARK   14  A    between atoms: C17_22  and  C36_51
DOCKED: REMARK   15  A    between atoms: N3_25  and  C19_26
DOCKED: REMARK   16  A    between atoms: C19_26  and  C20_27
DOCKED: REMARK   17  A    between atoms: C19_26  and  C21_28
DOCKED: REMARK   18  A    between atoms: N4_30  and  C22_31
DOCKED: REMARK   19  A    between atoms: C22_31  and  C23_32
DOCKED: REMARK   20  A    between atoms: C22_31  and  C26_37
DOCKED: REMARK   21  A    between atoms: C23_32  and  C24_33
DOCKED: REMARK   22  A    between atoms: C24_33  and  C25_34
DOCKED: REMARK   23  A    between atoms: C25_34  and  O7_36
DOCKED: REMARK   24  A    between atoms: N5_39  and  C27_40
DOCKED: REMARK   25  A    between atoms: C27_40  and  C28_41
DOCKED: REMARK   26  A    between atoms: C27_40  and  C35_48
DOCKED: REMARK   27  A    between atoms: C28_41  and  C29_42
DOCKED: REMARK   28  A    between atoms: C35_48  and  O10_50
DOCKED: REMARK   29  A    between atoms: C36_51  and  C37_52
DOCKED: REMARK   30  A    between atoms: C36_51  and  C38_53
DOCKED: REMARK                            x       y       z     vdW  Elec       q    Type
DOCKED: REMARK                         _______ _______ _______ _____ _____    ______ ____
DOCKED: USER                              x       y       z     vdW  Elec       q    Type
DOCKED: USER                           _______ _______ _______ _____ _____    ______ ____
DOCKED: ROOT
DOCKED: ATOM      1  C18 UNL     1       8.387  -5.767  -1.939 +0.00 +0.00    +0.234 C  
DOCKED: ATOM      2  O4  UNL     1       7.180  -5.698  -1.714 +0.00 -0.00    -0.274 OA 
DOCKED: ATOM      3  N3  UNL     1       8.998  -6.908  -2.398 +0.00 -0.00    -0.303 N  
DOCKED: ATOM      4  H25 UNL     1      10.006  -6.948  -2.508 +0.00 +0.00    +0.149 HD 
DOCKED: ENDROOT
DOCKED: BRANCH   3   5
DOCKED: ATOM      5  C19 UNL     1       8.289  -8.174  -2.547 +0.00 +0.00    +0.156 C  
DOCKED: ATOM      6  C20 UNL     1       6.841  -7.943  -2.992 +0.00 +0.00    +0.038 C  
DOCKED: BRANCH   5   7
DOCKED: ATOM      7  C21 UNL     1       8.343  -8.888  -1.176 +0.00 +0.00    +0.234 C  
DOCKED: ATOM      8  O5  UNL     1       7.526  -9.751  -0.854 +0.00 -0.00    -0.274 OA 
DOCKED: ATOM      9  N4  UNL     1       9.378  -8.495  -0.342 +0.00 -0.00    -0.302 N  
DOCKED: ATOM     10  H30 UNL     1      10.182  -8.081  -0.801 +0.00 +0.00    +0.150 HD 
DOCKED: BRANCH   9  11
DOCKED: ATOM     11  C22 UNL     1       9.712  -9.342   0.802 +0.00 +0.00    +0.159 C  
DOCKED: BRANCH  11  12
DOCKED: ATOM     12  C26 UNL     1      10.725 -10.395   0.307 +0.00 +0.00    +0.234 C  
DOCKED: ATOM     13  O8  UNL     1      10.472 -11.595   0.304 +0.00 -0.00    -0.274 OA 
DOCKED: ATOM     14  N5  UNL     1      11.910  -9.872  -0.162 +0.00 -0.00    -0.301 N  
DOCKED: ATOM     15  H37 UNL     1      11.914  -8.907  -0.468 +0.00 +0.00    +0.150 HD 
DOCKED: BRANCH  14  16
DOCKED: ATOM     16  C27 UNL     1      12.938 -10.751  -0.740 +0.00 +0.00    +0.186 C  
DOCKED: BRANCH  16  17
DOCKED: ATOM     17  C35 UNL     1      13.783  -9.891  -1.676 +0.00 +0.00    +0.326 C  
DOCKED: ATOM     18  O9  UNL     1      14.363 -10.289  -2.680 +0.00 -0.00    -0.249 OA 
DOCKED: BRANCH  17  19
DOCKED: ATOM     19  O10 UNL     1      13.850  -8.600  -1.308 +0.00 -0.00    -0.479 OA 
DOCKED: ATOM     20  H46 UNL     1      12.926  -8.274  -1.341 +0.00 +0.00    +0.295 HD 
DOCKED: ENDBRANCH  17  19
DOCKED: ENDBRANCH  16  17
DOCKED: BRANCH  16  21
DOCKED: ATOM     21  C28 UNL     1      13.813 -11.327   0.380 +0.00 +0.00    +0.069 C  
DOCKED: BRANCH  21  22
DOCKED: ATOM     22  C29 UNL     1      13.961 -10.423   1.579 +0.00 -0.00    -0.045 A  
DOCKED: ATOM     23  C30 UNL     1      14.940  -9.418   1.596 +0.00 +0.00    +0.004 A  
DOCKED: ATOM     24  C31 UNL     1      15.077  -8.582   2.707 +0.00 +0.00    +0.000 A  
DOCKED: ATOM     25  C32 UNL     1      14.238  -8.741   3.809 +0.00 +0.00    +0.000 A  
DOCKED: ATOM     26  C33 UNL     1      13.260  -9.732   3.802 +0.00 +0.00    +0.000 A  
DOCKED: ATOM     27  C34 UNL     1      13.122 -10.570   2.694 +0.00 +0.00    +0.004 A  
DOCKED: ENDBRANCH  21  22
DOCKED: ENDBRANCH  16  21
DOCKED: ENDBRANCH  14  16
DOCKED: ENDBRANCH  11  12
DOCKED: BRANCH  11  28
DOCKED: ATOM     28  C23 UNL     1      10.340  -8.543   1.947 +0.00 +0.00    +0.043 C  
DOCKED: BRANCH  28  29
DOCKED: ATOM     29  C24 UNL     1      10.699  -7.120   1.523 +0.00 +0.00    +0.123 C  
DOCKED: BRANCH  29  30
DOCKED: ATOM     30  C25 UNL     1      11.776  -7.129   0.472 +0.00 +0.00    +0.305 C  
DOCKED: ATOM     31  O6  UNL     1      12.969  -7.324   0.642 +0.00 -0.00    -0.251 OA 
DOCKED: BRANCH  30  32
DOCKED: ATOM     32  O7  UNL     1      11.284  -6.890  -0.754 +0.00 -0.00    -0.481 OA 
DOCKED: ATOM     33  H36 UNL     1      11.688  -7.591  -1.307 +0.00 +0.00    +0.295 HD 
DOCKED: ENDBRANCH  30  32
DOCKED: ENDBRANCH  29  30
DOCKED: ENDBRANCH  28  29
DOCKED: ENDBRANCH  11  28
DOCKED: ENDBRANCH   9  11
DOCKED: ENDBRANCH   5   7
DOCKED: ENDBRANCH   3   5
DOCKED: BRANCH   1  34
DOCKED: ATOM     34  C17 UNL     1       9.326  -4.548  -1.789 +0.00 +0.00    +0.161 C  
DOCKED: BRANCH  34  37
DOCKED: ATOM     35  C16 UNL     1      10.977  -4.536  -3.613 +0.00 +0.00    +0.216 C  
DOCKED: ATOM     36  O3  UNL     1      10.342  -3.719  -4.275 +0.00 -0.00    -0.276 OA 
DOCKED: ATOM     37  N2  UNL     1      10.631  -4.910  -2.332 +0.00 -0.00    -0.304 N  
DOCKED: ATOM     38  H23 UNL     1      10.970  -5.829  -2.050 +0.00 +0.00    +0.149 HD 
DOCKED: BRANCH  35  39
DOCKED: ATOM     39  C15 UNL     1      12.176  -5.267  -4.178 +0.00 +0.00    +0.129 C  
DOCKED: BRANCH  39  40
DOCKED: ATOM     40  C14 UNL     1      12.376  -6.559  -3.380 +0.00 +0.00    +0.143 C  
DOCKED: BRANCH  40  41
DOCKED: ATOM     41  O2  UNL     1      13.113  -6.221  -2.199 +0.00 -0.00    -0.389 OA 
DOCKED: ATOM     42  H20 UNL     1      12.776  -6.788  -1.481 +0.00 +0.00    +0.210 HD 
DOCKED: ENDBRANCH  40  41
DOCKED: BRANCH  40  43
DOCKED: ATOM     43  C5  UNL     1      13.090  -7.687  -4.179 +0.00 +0.00    +0.102 C  
DOCKED: BRANCH  43  44
DOCKED: ATOM     44  N1  UNL     1      12.157  -8.779  -4.482 +0.00 -0.00    -0.310 N  
DOCKED: ATOM     45  C6  UNL     1      11.218  -9.223  -3.562 +0.00 +0.00    +0.218 C  
DOCKED: ATOM     46  O1  UNL     1      11.146  -8.770  -2.422 +0.00 -0.00    -0.275 OA 
DOCKED: ATOM     47  H11 UNL     1      12.030  -9.044  -5.450 +0.00 +0.00    +0.149 HD 
DOCKED: BRANCH  45  48
DOCKED: ATOM     48  C7  UNL     1      10.288 -10.278  -4.139 +0.00 +0.00    +0.130 C  
DOCKED: BRANCH  48  49
DOCKED: ATOM     49  C8  UNL     1      10.139 -11.528  -3.306 +0.00 -0.00    -0.039 A  
DOCKED: ATOM     50  C9  UNL     1       8.904 -11.871  -2.733 +0.00 +0.00    +0.004 A  
DOCKED: ATOM     51  C10 UNL     1       8.786 -13.025  -1.954 +0.00 +0.00    +0.000 A  
DOCKED: ATOM     52  C11 UNL     1       9.893 -13.852  -1.751 +0.00 +0.00    +0.000 A  
DOCKED: ATOM     53  C12 UNL     1      11.119 -13.522  -2.326 +0.00 +0.00    +0.000 A  
DOCKED: ATOM     54  C13 UNL     1      11.244 -12.368  -3.101 +0.00 +0.00    +0.004 A  
DOCKED: ENDBRANCH  48  49
DOCKED: ENDBRANCH  45  48
DOCKED: ENDBRANCH  43  44
DOCKED: BRANCH  43  55
DOCKED: ATOM     55  C4  UNL     1      13.793  -7.253  -5.490 +0.00 +0.00    +0.028 C  
DOCKED: BRANCH  55  57
DOCKED: ATOM     56  C1  UNL     1      15.843  -7.626  -4.054 +0.00 +0.00    +0.007 C  
DOCKED: ATOM     57  C2  UNL     1      15.299  -6.957  -5.320 +0.00 -0.00    -0.015 C  
DOCKED: ATOM     58  C3  UNL     1      15.564  -5.441  -5.253 +0.00 +0.00    +0.007 C  
DOCKED: ENDBRANCH  55  57
DOCKED: ENDBRANCH  43  55
DOCKED: ENDBRANCH  40  43
DOCKED: ENDBRANCH  39  40
DOCKED: ENDBRANCH  35  39
DOCKED: ENDBRANCH  34  37
DOCKED: BRANCH  34  59
DOCKED: ATOM     59  C36 UNL     1       9.384  -4.077  -0.323 +0.00 +0.00    +0.012 C  
DOCKED: ATOM     60  C37 UNL     1      10.840  -3.962   0.143 +0.00 +0.00    +0.009 C  
DOCKED: ATOM     61  C38 UNL     1       8.599  -4.980   0.637 +0.00 +0.00    +0.009 C  
DOCKED: ENDBRANCH  34  59
DOCKED: ENDBRANCH   1  34
DOCKED: TORSDOF 25
DOCKED: TER
DOCKED: ENDMDL
________________________________________________________________________________


    FINAL DOCKED STATE:
    ________________________


Run:   7 / 20
Time taken for this run:   3.208s

DOCKED: MODEL        7
DOCKED: USER    Run = 7
DOCKED: USER
DOCKED: USER    Estimated Free Energy of Binding    =  +7.46 kcal/mol  [=(1)+(2)+(3)-(4)]
DOCKED: USER
DOCKED: USER    (1) Final Intermolecular Energy     =  +0.00 kcal/mol
DOCKED: USER        vdW + Hbond + desolv Energy     =  +0.00 kcal/mol
DOCKED: USER        Electrostatic Energy            =  +0.00 kcal/mol
DOCKED: USER        Moving Ligand-Fixed Receptor    =  +0.00 kcal/mol
DOCKED: USER        Moving Ligand-Moving Receptor   =  +0.00 kcal/mol
DOCKED: USER    (2) Final Total Internal Energy     = -19.47 kcal/mol
DOCKED: USER    (3) Torsional Free Energy           =  +7.46 kcal/mol
DOCKED: USER    (4) Unbound System's Energy         = -19.47 kcal/mol
DOCKED: USER
DOCKED: USER
DOCKED: REMARK  Name = ligands/ligand_29.pdb
DOCKED: REMARK  30 active torsions:
DOCKED: REMARK  status: ('A' for Active; 'I' for Inactive)
DOCKED: REMARK    1  A    between atoms: C1_1  and  C2_2
DOCKED: REMARK    2  A    between atoms: C2_2  and  C3_3
DOCKED: REMARK    3  A    between atoms: C2_2  and  C4_4
DOCKED: REMARK    4  A    between atoms: C4_4  and  C5_5
DOCKED: REMARK    5  A    between atoms: C5_5  and  N1_6
DOCKED: REMARK    6  A    between atoms: C5_5  and  C14_16
DOCKED: REMARK    7  A    between atoms: C6_7  and  C7_9
DOCKED: REMARK    8  A    between atoms: C7_9  and  C8_10
DOCKED: REMARK    9  A    between atoms: C14_16  and  O2_17
DOCKED: REMARK   10  A    between atoms: C14_16  and  C15_18
DOCKED: REMARK   11  A    between atoms: C15_18  and  C16_19
DOCKED: REMARK   12  A    between atoms: N2_21  and  C17_22
DOCKED: REMARK   13  A    between atoms: C17_22  and  C18_23
DOCKED: REMARK   14  A    between atoms: C17_22  and  C36_51
DOCKED: REMARK   15  A    between atoms: N3_25  and  C19_26
DOCKED: REMARK   16  A    between atoms: C19_26  and  C20_27
DOCKED: REMARK   17  A    between atoms: C19_26  and  C21_28
DOCKED: REMARK   18  A    between atoms: N4_30  and  C22_31
DOCKED: REMARK   19  A    between atoms: C22_31  and  C23_32
DOCKED: REMARK   20  A    between atoms: C22_31  and  C26_37
DOCKED: REMARK   21  A    between atoms: C23_32  and  C24_33
DOCKED: REMARK   22  A    between atoms: C24_33  and  C25_34
DOCKED: REMARK   23  A    between atoms: C25_34  and  O7_36
DOCKED: REMARK   24  A    between atoms: N5_39  and  C27_40
DOCKED: REMARK   25  A    between atoms: C27_40  and  C28_41
DOCKED: REMARK   26  A    between atoms: C27_40  and  C35_48
DOCKED: REMARK   27  A    between atoms: C28_41  and  C29_42
DOCKED: REMARK   28  A    between atoms: C35_48  and  O10_50
DOCKED: REMARK   29  A    between atoms: C36_51  and  C37_52
DOCKED: REMARK   30  A    between atoms: C36_51  and  C38_53
DOCKED: REMARK                            x       y       z     vdW  Elec       q    Type
DOCKED: REMARK                         _______ _______ _______ _____ _____    ______ ____
DOCKED: USER                              x       y       z     vdW  Elec       q    Type
DOCKED: USER                           _______ _______ _______ _____ _____    ______ ____
DOCKED: ROOT
DOCKED: ATOM      1  C18 UNL     1      13.138  -4.598   4.526 +0.00 +0.00    +0.234 C  
DOCKED: ATOM      2  O4  UNL     1      13.808  -3.658   4.100 +0.00 -0.00    -0.274 OA 
DOCKED: ATOM      3  N3  UNL     1      12.317  -5.353   3.725 +0.00 -0.00    -0.303 N  
DOCKED: ATOM      4  H25 UNL     1      11.728  -6.077   4.123 +0.00 +0.00    +0.149 HD 
DOCKED: ENDROOT
DOCKED: BRANCH   3   5
DOCKED: ATOM      5  C19 UNL     1      12.076  -5.034   2.322 +0.00 +0.00    +0.156 C  
DOCKED: ATOM      6  C20 UNL     1      13.391  -4.980   1.538 +0.00 +0.00    +0.038 C  
DOCKED: BRANCH   5   7
DOCKED: ATOM      7  C21 UNL     1      11.350  -3.669   2.286 +0.00 +0.00    +0.234 C  
DOCKED: ATOM      8  O5  UNL     1      10.135  -3.569   2.458 +0.00 -0.00    -0.274 OA 
DOCKED: ATOM      9  N4  UNL     1      12.162  -2.569   2.057 +0.00 -0.00    -0.302 N  
DOCKED: ATOM     10  H30 UNL     1      13.142  -2.688   2.290 +0.00 +0.00    +0.150 HD 
DOCKED: BRANCH   9  11
DOCKED: ATOM     11  C22 UNL     1      11.633  -1.239   2.349 +0.00 +0.00    +0.159 C  
DOCKED: BRANCH  11  12
DOCKED: ATOM     12  C26 UNL     1      11.640  -1.073   3.882 +0.00 +0.00    +0.234 C  
DOCKED: ATOM     13  O8  UNL     1      10.607  -0.935   4.530 +0.00 -0.00    -0.274 OA 
DOCKED: ATOM     14  N5  UNL     1      12.890  -1.134   4.459 +0.00 -0.00    -0.301 N  
DOCKED: ATOM     15  H37 UNL     1      13.627  -1.601   3.945 +0.00 +0.00    +0.150 HD 
DOCKED: BRANCH  14  16
DOCKED: ATOM     16  C27 UNL     1      13.043  -1.073   5.920 +0.00 +0.00    +0.186 C  
DOCKED: BRANCH  16  17
DOCKED: ATOM     17  C35 UNL     1      14.540  -1.000   6.208 +0.00 +0.00    +0.326 C  
DOCKED: ATOM     18  O9  UNL     1      15.064  -0.323   7.084 +0.00 -0.00    -0.249 OA 
DOCKED: BRANCH  17  19
DOCKED: ATOM     19  O10 UNL     1      15.283  -1.769   5.394 +0.00 -0.00    -0.479 OA 
DOCKED: ATOM     20  H46 UNL     1      14.797  -1.788   4.543 +0.00 +0.00    +0.295 HD 
DOCKED: ENDBRANCH  17  19
DOCKED: ENDBRANCH  16  17
DOCKED: BRANCH  16  21
DOCKED: ATOM     21  C28 UNL     1      12.340   0.179   6.460 +0.00 +0.00    +0.069 C  
DOCKED: BRANCH  21  22
DOCKED: ATOM     22  C29 UNL     1      11.282  -0.103   7.499 +0.00 -0.00    -0.045 A  
DOCKED: ATOM     23  C30 UNL     1      10.844  -1.416   7.732 +0.00 +0.00    +0.004 A  
DOCKED: ATOM     24  C31 UNL     1       9.864  -1.675   8.692 +0.00 +0.00    +0.000 A  
DOCKED: ATOM     25  C32 UNL     1       9.314  -0.627   9.430 +0.00 +0.00    +0.000 A  
DOCKED: ATOM     26  C33 UNL     1       9.743   0.679   9.211 +0.00 +0.00    +0.000 A  
DOCKED: ATOM     27  C34 UNL     1      10.722   0.941   8.250 +0.00 +0.00    +0.004 A  
DOCKED: ENDBRANCH  21  22
DOCKED: ENDBRANCH  16  21
DOCKED: ENDBRANCH  14  16
DOCKED: ENDBRANCH  11  12
DOCKED: BRANCH  11  28
DOCKED: ATOM     28  C23 UNL     1      12.484  -0.130   1.722 +0.00 +0.00    +0.043 C  
DOCKED: BRANCH  28  29
DOCKED: ATOM     29  C24 UNL     1      13.826  -0.655   1.215 +0.00 +0.00    +0.123 C  
DOCKED: BRANCH  29  30
DOCKED: ATOM     30  C25 UNL     1      14.748  -0.970   2.362 +0.00 +0.00    +0.305 C  
DOCKED: ATOM     31  O6  UNL     1      15.198  -0.185   3.182 +0.00 -0.00    -0.251 OA 
DOCKED: BRANCH  30  32
DOCKED: ATOM     32  O7  UNL     1      15.054  -2.276   2.417 +0.00 -0.00    -0.481 OA 
DOCKED: ATOM     33  H36 UNL     1      15.390  -2.398   3.329 +0.00 +0.00    +0.295 HD 
DOCKED: ENDBRANCH  30  32
DOCKED: ENDBRANCH  29  30
DOCKED: ENDBRANCH  28  29
DOCKED: ENDBRANCH  11  28
DOCKED: ENDBRANCH   9  11
DOCKED: ENDBRANCH   5   7
DOCKED: ENDBRANCH   3   5
DOCKED: BRANCH   1  34
DOCKED: ATOM     34  C17 UNL     1      13.209  -5.062   5.998 +0.00 +0.00    +0.161 C  
DOCKED: BRANCH  34  37
DOCKED: ATOM     35  C16 UNL     1      10.853  -5.583   6.486 +0.00 +0.00    +0.216 C  
DOCKED: ATOM     36  O3  UNL     1      10.937  -6.717   6.019 +0.00 -0.00    -0.276 OA 
DOCKED: ATOM     37  N2  UNL     1      11.936  -4.743   6.637 +0.00 -0.00    -0.304 N  
DOCKED: ATOM     38  H23 UNL     1      11.706  -3.750   6.655 +0.00 +0.00    +0.149 HD 
DOCKED: BRANCH  35  39
DOCKED: ATOM     39  C15 UNL     1       9.526  -4.973   6.879 +0.00 +0.00    +0.129 C  
DOCKED: BRANCH  39  40
DOCKED: ATOM     40  C14 UNL     1       9.017  -4.126   5.708 +0.00 +0.00    +0.143 C  
DOCKED: BRANCH  40  41
DOCKED: ATOM     41  O2  UNL     1      10.099  -3.290   5.283 +0.00 -0.00    -0.389 OA 
DOCKED: ATOM     42  H20 UNL     1       9.811  -2.845   4.465 +0.00 +0.00    +0.210 HD 
DOCKED: ENDBRANCH  40  41
DOCKED: BRANCH  40  43
DOCKED: ATOM     43  C5  UNL     1       7.757  -3.277   6.048 +0.00 +0.00    +0.102 C  
DOCKED: BRANCH  43  44
DOCKED: ATOM     44  N1  UNL     1       8.068  -1.844   5.996 +0.00 -0.00    -0.310 N  
DOCKED: ATOM     45  C6  UNL     1       7.211  -0.884   6.514 +0.00 +0.00    +0.218 C  
DOCKED: ATOM     46  O1  UNL     1       6.118  -1.168   6.997 +0.00 -0.00    -0.275 OA 
DOCKED: ATOM     47  H11 UNL     1       9.023  -1.569   5.805 +0.00 +0.00    +0.149 HD 
DOCKED: BRANCH  45  48
DOCKED: ATOM     48  C7  UNL     1       7.797   0.518   6.453 +0.00 +0.00    +0.130 C  
DOCKED: BRANCH  48  49
DOCKED: ATOM     49  C8  UNL     1       8.419   0.896   5.130 +0.00 -0.00    -0.039 A  
DOCKED: ATOM     50  C9  UNL     1       7.936   0.359   3.926 +0.00 +0.00    +0.004 A  
DOCKED: ATOM     51  C10 UNL     1       8.531   0.711   2.711 +0.00 +0.00    +0.000 A  
DOCKED: ATOM     52  C11 UNL     1       9.601   1.607   2.685 +0.00 +0.00    +0.000 A  
DOCKED: ATOM     53  C12 UNL     1      10.078   2.150   3.877 +0.00 +0.00    +0.000 A  
DOCKED: ATOM     54  C13 UNL     1       9.491   1.800   5.094 +0.00 +0.00    +0.004 A  
DOCKED: ENDBRANCH  48  49
DOCKED: ENDBRANCH  45  48
DOCKED: ENDBRANCH  43  44
DOCKED: BRANCH  43  55
DOCKED: ATOM     55  C4  UNL     1       6.500  -3.546   5.181 +0.00 +0.00    +0.028 C  
DOCKED: BRANCH  55  57
DOCKED: ATOM     56  C1  UNL     1       5.144  -2.347   3.413 +0.00 +0.00    +0.007 C  
DOCKED: ATOM     57  C2  UNL     1       6.537  -2.854   3.801 +0.00 -0.00    -0.015 C  
DOCKED: ATOM     58  C3  UNL     1       7.055  -3.811   2.711 +0.00 +0.00    +0.007 C  
DOCKED: ENDBRANCH  55  57
DOCKED: ENDBRANCH  43  55
DOCKED: ENDBRANCH  40  43
DOCKED: ENDBRANCH  39  40
DOCKED: ENDBRANCH  35  39
DOCKED: ENDBRANCH  34  37
DOCKED: BRANCH  34  59
DOCKED: ATOM     59  C36 UNL     1      14.423  -4.438   6.712 +0.00 +0.00    +0.012 C  
DOCKED: ATOM     60  C37 UNL     1      15.556  -5.463   6.834 +0.00 +0.00    +0.009 C  
DOCKED: ATOM     61  C38 UNL     1      14.087  -3.865   8.095 +0.00 +0.00    +0.009 C  
DOCKED: ENDBRANCH  34  59
DOCKED: ENDBRANCH   1  34
DOCKED: TORSDOF 25
DOCKED: TER
DOCKED: ENDMDL
________________________________________________________________________________


    FINAL DOCKED STATE:
    ________________________


Run:   8 / 20
Time taken for this run:   3.208s

DOCKED: MODEL        8
DOCKED: USER    Run = 8
DOCKED: USER
DOCKED: USER    Estimated Free Energy of Binding    =  +7.46 kcal/mol  [=(1)+(2)+(3)-(4)]
DOCKED: USER
DOCKED: USER    (1) Final Intermolecular Energy     =  +0.00 kcal/mol
DOCKED: USER        vdW + Hbond + desolv Energy     =  +0.00 kcal/mol
DOCKED: USER        Electrostatic Energy            =  +0.00 kcal/mol
DOCKED: USER        Moving Ligand-Fixed Receptor    =  +0.00 kcal/mol
DOCKED: USER        Moving Ligand-Moving Receptor   =  +0.00 kcal/mol
DOCKED: USER    (2) Final Total Internal Energy     = -19.68 kcal/mol
DOCKED: USER    (3) Torsional Free Energy           =  +7.46 kcal/mol
DOCKED: USER    (4) Unbound System's Energy         = -19.68 kcal/mol
DOCKED: USER
DOCKED: USER
DOCKED: REMARK  Name = ligands/ligand_29.pdb
DOCKED: REMARK  30 active torsions:
DOCKED: REMARK  status: ('A' for Active; 'I' for Inactive)
DOCKED: REMARK    1  A    between atoms: C1_1  and  C2_2
DOCKED: REMARK    2  A    between atoms: C2_2  and  C3_3
DOCKED: REMARK    3  A    between atoms: C2_2  and  C4_4
DOCKED: REMARK    4  A    between atoms: C4_4  and  C5_5
DOCKED: REMARK    5  A    between atoms: C5_5  and  N1_6
DOCKED: REMARK    6  A    between atoms: C5_5  and  C14_16
DOCKED: REMARK    7  A    between atoms: C6_7  and  C7_9
DOCKED: REMARK    8  A    between atoms: C7_9  and  C8_10
DOCKED: REMARK    9  A    between atoms: C14_16  and  O2_17
DOCKED: REMARK   10  A    between atoms: C14_16  and  C15_18
DOCKED: REMARK   11  A    between atoms: C15_18  and  C16_19
DOCKED: REMARK   12  A    between atoms: N2_21  and  C17_22
DOCKED: REMARK   13  A    between atoms: C17_22  and  C18_23
DOCKED: REMARK   14  A    between atoms: C17_22  and  C36_51
DOCKED: REMARK   15  A    between atoms: N3_25  and  C19_26
DOCKED: REMARK   16  A    between atoms: C19_26  and  C20_27
DOCKED: REMARK   17  A    between atoms: C19_26  and  C21_28
DOCKED: REMARK   18  A    between atoms: N4_30  and  C22_31
DOCKED: REMARK   19  A    between atoms: C22_31  and  C23_32
DOCKED: REMARK   20  A    between atoms: C22_31  and  C26_37
DOCKED: REMARK   21  A    between atoms: C23_32  and  C24_33
DOCKED: REMARK   22  A    between atoms: C24_33  and  C25_34
DOCKED: REMARK   23  A    between atoms: C25_34  and  O7_36
DOCKED: REMARK   24  A    between atoms: N5_39  and  C27_40
DOCKED: REMARK   25  A    between atoms: C27_40  and  C28_41
DOCKED: REMARK   26  A    between atoms: C27_40  and  C35_48
DOCKED: REMARK   27  A    between atoms: C28_41  and  C29_42
DOCKED: REMARK   28  A    between atoms: C35_48  and  O10_50
DOCKED: REMARK   29  A    between atoms: C36_51  and  C37_52
DOCKED: REMARK   30  A    between atoms: C36_51  and  C38_53
DOCKED: REMARK                            x       y       z     vdW  Elec       q    Type
DOCKED: REMARK                         _______ _______ _______ _____ _____    ______ ____
DOCKED: USER                              x       y       z     vdW  Elec       q    Type
DOCKED: USER                           _______ _______ _______ _____ _____    ______ ____
DOCKED: ROOT
DOCKED: ATOM      1  C18 UNL     1      12.814   0.344   3.613 +0.00 +0.00    +0.234 C  
DOCKED: ATOM      2  O4  UNL     1      12.068  -0.135   2.761 +0.00 -0.00    -0.274 OA 
DOCKED: ATOM      3  N3  UNL     1      13.199  -0.341   4.739 +0.00 -0.00    -0.303 N  
DOCKED: ATOM      4  H25 UNL     1      13.761   0.111   5.453 +0.00 +0.00    +0.149 HD 
DOCKED: ENDROOT
DOCKED: BRANCH   3   5
DOCKED: ATOM      5  C19 UNL     1      12.665  -1.653   5.084 +0.00 +0.00    +0.156 C  
DOCKED: ATOM      6  C20 UNL     1      12.756  -1.905   6.592 +0.00 +0.00    +0.038 C  
DOCKED: BRANCH   5   7
DOCKED: ATOM      7  C21 UNL     1      13.488  -2.699   4.294 +0.00 +0.00    +0.234 C  
DOCKED: ATOM      8  O5  UNL     1      13.643  -3.851   4.699 +0.00 -0.00    -0.274 OA 
DOCKED: ATOM      9  N4  UNL     1      14.026  -2.251   3.098 +0.00 -0.00    -0.302 N  
DOCKED: ATOM     10  H30 UNL     1      13.563  -1.453   2.676 +0.00 +0.00    +0.150 HD 
DOCKED: BRANCH   9  11
DOCKED: ATOM     11  C22 UNL     1      14.510  -3.240   2.137 +0.00 +0.00    +0.159 C  
DOCKED: BRANCH  11  12
DOCKED: ATOM     12  C26 UNL     1      13.271  -3.836   1.436 +0.00 +0.00    +0.234 C  
DOCKED: ATOM     13  O8  UNL     1      13.201  -5.021   1.128 +0.00 -0.00    -0.274 OA 
DOCKED: ATOM     14  N5  UNL     1      12.247  -2.940   1.225 +0.00 -0.00    -0.301 N  
DOCKED: ATOM     15  H37 UNL     1      12.214  -2.111   1.806 +0.00 +0.00    +0.150 HD 
DOCKED: BRANCH  14  16
DOCKED: ATOM     16  C27 UNL     1      10.973  -3.384   0.640 +0.00 +0.00    +0.186 C  
DOCKED: BRANCH  16  17
DOCKED: ATOM     17  C35 UNL     1      10.140  -2.131   0.383 +0.00 +0.00    +0.326 C  
DOCKED: ATOM     18  O9  UNL     1       9.267  -2.019  -0.469 +0.00 -0.00    -0.249 OA 
DOCKED: BRANCH  17  19
DOCKED: ATOM     19  O10 UNL     1      10.444  -1.107   1.198 +0.00 -0.00    -0.479 OA 
DOCKED: ATOM     20  H46 UNL     1      11.207  -0.659   0.776 +0.00 +0.00    +0.295 HD 
DOCKED: ENDBRANCH  17  19
DOCKED: ENDBRANCH  16  17
DOCKED: BRANCH  16  21
DOCKED: ATOM     21  C28 UNL     1      11.240  -4.119  -0.679 +0.00 +0.00    +0.069 C  
DOCKED: BRANCH  21  22
DOCKED: ATOM     22  C29 UNL     1      11.370  -3.213  -1.879 +0.00 -0.00    -0.045 A  
DOCKED: ATOM     23  C30 UNL     1      10.346  -3.146  -2.836 +0.00 +0.00    +0.004 A  
DOCKED: ATOM     24  C31 UNL     1      10.468  -2.308  -3.947 +0.00 +0.00    +0.000 A  
DOCKED: ATOM     25  C32 UNL     1      11.613  -1.528  -4.111 +0.00 +0.00    +0.000 A  
DOCKED: ATOM     26  C33 UNL     1      12.634  -1.582  -3.166 +0.00 +0.00    +0.000 A  
DOCKED: ATOM     27  C34 UNL     1      12.515  -2.421  -2.055 +0.00 +0.00    +0.004 A  
DOCKED: ENDBRANCH  21  22
DOCKED: ENDBRANCH  16  21
DOCKED: ENDBRANCH  14  16
DOCKED: ENDBRANCH  11  12
DOCKED: BRANCH  11  28
DOCKED: ATOM     28  C23 UNL     1      15.430  -2.618   1.083 +0.00 +0.00    +0.043 C  
DOCKED: BRANCH  28  29
DOCKED: ATOM     29  C24 UNL     1      14.642  -1.937  -0.035 +0.00 +0.00    +0.123 C  
DOCKED: BRANCH  29  30
DOCKED: ATOM     30  C25 UNL     1      14.098  -0.610   0.423 +0.00 +0.00    +0.305 C  
DOCKED: ATOM     31  O6  UNL     1      14.738   0.345   0.833 +0.00 -0.00    -0.251 OA 
DOCKED: BRANCH  30  32
DOCKED: ATOM     32  O7  UNL     1      12.760  -0.559   0.335 +0.00 -0.00    -0.481 OA 
DOCKED: ATOM     33  H36 UNL     1      12.480  -0.241   1.219 +0.00 +0.00    +0.295 HD 
DOCKED: ENDBRANCH  30  32
DOCKED: ENDBRANCH  29  30
DOCKED: ENDBRANCH  28  29
DOCKED: ENDBRANCH  11  28
DOCKED: ENDBRANCH   9  11
DOCKED: ENDBRANCH   5   7
DOCKED: ENDBRANCH   3   5
DOCKED: BRANCH   1  34
DOCKED: ATOM     34  C17 UNL     1      13.445   1.746   3.462 +0.00 +0.00    +0.161 C  
DOCKED: BRANCH  34  37
DOCKED: ATOM     35  C16 UNL     1      12.680   3.299   1.712 +0.00 +0.00    +0.216 C  
DOCKED: ATOM     36  O3  UNL     1      12.341   4.155   2.525 +0.00 -0.00    -0.276 OA 
DOCKED: ATOM     37  N2  UNL     1      13.345   2.142   2.061 +0.00 -0.00    -0.304 N  
DOCKED: ATOM     38  H23 UNL     1      13.226   1.369   1.407 +0.00 +0.00    +0.149 HD 
DOCKED: BRANCH  35  39
DOCKED: ATOM     39  C15 UNL     1      12.334   3.406   0.243 +0.00 +0.00    +0.129 C  
DOCKED: BRANCH  39  40
DOCKED: ATOM     40  C14 UNL     1      11.207   2.414  -0.062 +0.00 +0.00    +0.143 C  
DOCKED: BRANCH  40  41
DOCKED: ATOM     41  O2  UNL     1      11.155   1.479   1.022 +0.00 -0.00    -0.389 OA 
DOCKED: ATOM     42  H20 UNL     1      11.600   0.667   0.720 +0.00 +0.00    +0.210 HD 
DOCKED: ENDBRANCH  40  41
DOCKED: BRANCH  40  43
DOCKED: ATOM     43  C5  UNL     1      11.370   1.678  -1.424 +0.00 +0.00    +0.102 C  
DOCKED: BRANCH  43  44
DOCKED: ATOM     44  N1  UNL     1      12.761   1.256  -1.622 +0.00 -0.00    -0.310 N  
DOCKED: ATOM     45  C6  UNL     1      13.467   1.561  -2.777 +0.00 +0.00    +0.218 C  
DOCKED: ATOM     46  O1  UNL     1      12.956   2.152  -3.726 +0.00 -0.00    -0.275 OA 
DOCKED: ATOM     47  H11 UNL     1      13.290   0.956  -0.813 +0.00 +0.00    +0.149 HD 
DOCKED: BRANCH  45  48
DOCKED: ATOM     48  C7  UNL     1      14.922   1.123  -2.707 +0.00 +0.00    +0.130 C  
DOCKED: BRANCH  48  49
DOCKED: ATOM     49  C8  UNL     1      15.711   1.703  -1.558 +0.00 -0.00    -0.039 A  
DOCKED: ATOM     50  C9  UNL     1      16.848   1.046  -1.060 +0.00 +0.00    +0.004 A  
DOCKED: ATOM     51  C10 UNL     1      17.561   1.589   0.012 +0.00 +0.00    +0.000 A  
DOCKED: ATOM     52  C11 UNL     1      17.156   2.795   0.587 +0.00 +0.00    +0.000 A  
DOCKED: ATOM     53  C12 UNL     1      16.034   3.456   0.090 +0.00 +0.00    +0.000 A  
DOCKED: ATOM     54  C13 UNL     1      15.314   2.916  -0.978 +0.00 +0.00    +0.004 A  
DOCKED: ENDBRANCH  48  49
DOCKED: ENDBRANCH  45  48
DOCKED: ENDBRANCH  43  44
DOCKED: BRANCH  43  55
DOCKED: ATOM     55  C4  UNL     1      10.441   0.458  -1.654 +0.00 +0.00    +0.028 C  
DOCKED: BRANCH  55  57
DOCKED: ATOM     56  C1  UNL     1       8.268   0.802  -0.406 +0.00 +0.00    +0.007 C  
DOCKED: ATOM     57  C2  UNL     1       8.947   0.828  -1.778 +0.00 -0.00    -0.015 C  
DOCKED: ATOM     58  C3  UNL     1       8.213  -0.133  -2.733 +0.00 +0.00    +0.007 C  
DOCKED: ENDBRANCH  55  57
DOCKED: ENDBRANCH  43  55
DOCKED: ENDBRANCH  40  43
DOCKED: ENDBRANCH  39  40
DOCKED: ENDBRANCH  35  39
DOCKED: ENDBRANCH  34  37
DOCKED: BRANCH  34  59
DOCKED: ATOM     59  C36 UNL     1      14.890   1.758   3.997 +0.00 +0.00    +0.012 C  
DOCKED: ATOM     60  C37 UNL     1      15.561   3.102   3.694 +0.00 +0.00    +0.009 C  
DOCKED: ATOM     61  C38 UNL     1      15.750   0.611   3.450 +0.00 +0.00    +0.009 C  
DOCKED: ENDBRANCH  34  59
DOCKED: ENDBRANCH   1  34
DOCKED: TORSDOF 25
DOCKED: TER
DOCKED: ENDMDL
________________________________________________________________________________


    FINAL DOCKED STATE:
    ________________________


Run:   9 / 20
Time taken for this run:   3.208s

DOCKED: MODEL        9
DOCKED: USER    Run = 9
DOCKED: USER
DOCKED: USER    Estimated Free Energy of Binding    =  +7.46 kcal/mol  [=(1)+(2)+(3)-(4)]
DOCKED: USER
DOCKED: USER    (1) Final Intermolecular Energy     =  +0.00 kcal/mol
DOCKED: USER        vdW + Hbond + desolv Energy     =  +0.00 kcal/mol
DOCKED: USER        Electrostatic Energy            =  +0.00 kcal/mol
DOCKED: USER        Moving Ligand-Fixed Receptor    =  +0.00 kcal/mol
DOCKED: USER        Moving Ligand-Moving Receptor   =  +0.00 kcal/mol
DOCKED: USER    (2) Final Total Internal Energy     = -19.84 kcal/mol
DOCKED: USER    (3) Torsional Free Energy           =  +7.46 kcal/mol
DOCKED: USER    (4) Unbound System's Energy         = -19.84 kcal/mol
DOCKED: USER
DOCKED: USER
DOCKED: REMARK  Name = ligands/ligand_29.pdb
DOCKED: REMARK  30 active torsions:
DOCKED: REMARK  status: ('A' for Active; 'I' for Inactive)
DOCKED: REMARK    1  A    between atoms: C1_1  and  C2_2
DOCKED: REMARK    2  A    between atoms: C2_2  and  C3_3
DOCKED: REMARK    3  A    between atoms: C2_2  and  C4_4
DOCKED: REMARK    4  A    between atoms: C4_4  and  C5_5
DOCKED: REMARK    5  A    between atoms: C5_5  and  N1_6
DOCKED: REMARK    6  A    between atoms: C5_5  and  C14_16
DOCKED: REMARK    7  A    between atoms: C6_7  and  C7_9
DOCKED: REMARK    8  A    between atoms: C7_9  and  C8_10
DOCKED: REMARK    9  A    between atoms: C14_16  and  O2_17
DOCKED: REMARK   10  A    between atoms: C14_16  and  C15_18
DOCKED: REMARK   11  A    between atoms: C15_18  and  C16_19
DOCKED: REMARK   12  A    between atoms: N2_21  and  C17_22
DOCKED: REMARK   13  A    between atoms: C17_22  and  C18_23
DOCKED: REMARK   14  A    between atoms: C17_22  and  C36_51
DOCKED: REMARK   15  A    between atoms: N3_25  and  C19_26
DOCKED: REMARK   16  A    between atoms: C19_26  and  C20_27
DOCKED: REMARK   17  A    between atoms: C19_26  and  C21_28
DOCKED: REMARK   18  A    between atoms: N4_30  and  C22_31
DOCKED: REMARK   19  A    between atoms: C22_31  and  C23_32
DOCKED: REMARK   20  A    between atoms: C22_31  and  C26_37
DOCKED: REMARK   21  A    between atoms: C23_32  and  C24_33
DOCKED: REMARK   22  A    between atoms: C24_33  and  C25_34
DOCKED: REMARK   23  A    between atoms: C25_34  and  O7_36
DOCKED: REMARK   24  A    between atoms: N5_39  and  C27_40
DOCKED: REMARK   25  A    between atoms: C27_40  and  C28_41
DOCKED: REMARK   26  A    between atoms: C27_40  and  C35_48
DOCKED: REMARK   27  A    between atoms: C28_41  and  C29_42
DOCKED: REMARK   28  A    between atoms: C35_48  and  O10_50
DOCKED: REMARK   29  A    between atoms: C36_51  and  C37_52
DOCKED: REMARK   30  A    between atoms: C36_51  and  C38_53
DOCKED: REMARK                            x       y       z     vdW  Elec       q    Type
DOCKED: REMARK                         _______ _______ _______ _____ _____    ______ ____
DOCKED: USER                              x       y       z     vdW  Elec       q    Type
DOCKED: USER                           _______ _______ _______ _____ _____    ______ ____
DOCKED: ROOT
DOCKED: ATOM      1  C18 UNL     1      10.815  -8.396  -4.566 +0.00 +0.00    +0.234 C  
DOCKED: ATOM      2  O4  UNL     1      10.561  -7.205  -4.396 +0.00 -0.00    -0.274 OA 
DOCKED: ATOM      3  N3  UNL     1      11.098  -8.931  -5.799 +0.00 -0.00    -0.303 N  
DOCKED: ATOM      4  H25 UNL     1      11.236  -9.930  -5.910 +0.00 +0.00    +0.149 HD 
DOCKED: ENDROOT
DOCKED: BRANCH   3   5
DOCKED: ATOM      5  C19 UNL     1      11.007  -8.158  -7.032 +0.00 +0.00    +0.156 C  
DOCKED: ATOM      6  C20 UNL     1      10.855  -9.078  -8.247 +0.00 +0.00    +0.038 C  
DOCKED: BRANCH   5   7
DOCKED: ATOM      7  C21 UNL     1      12.298  -7.311  -7.132 +0.00 +0.00    +0.234 C  
DOCKED: ATOM      8  O5  UNL     1      12.683  -6.827  -8.197 +0.00 -0.00    -0.274 OA 
DOCKED: ATOM      9  N4  UNL     1      12.983  -7.129  -5.941 +0.00 -0.00    -0.302 N  
DOCKED: ATOM     10  H30 UNL     1      12.433  -7.232  -5.095 +0.00 +0.00    +0.150 HD 
DOCKED: BRANCH   9  11
DOCKED: ATOM     11  C22 UNL     1      13.996  -6.078  -5.872 +0.00 +0.00    +0.159 C  
DOCKED: BRANCH  11  12
DOCKED: ATOM     12  C26 UNL     1      13.259  -4.728  -5.987 +0.00 +0.00    +0.234 C  
DOCKED: ATOM     13  O8  UNL     1      13.579  -3.876  -6.810 +0.00 -0.00    -0.274 OA 
DOCKED: ATOM     14  N5  UNL     1      12.196  -4.581  -5.123 +0.00 -0.00    -0.301 N  
DOCKED: ATOM     15  H37 UNL     1      11.770  -5.420  -4.749 +0.00 +0.00    +0.150 HD 
DOCKED: BRANCH  14  16
DOCKED: ATOM     16  C27 UNL     1      11.351  -3.379  -5.175 +0.00 +0.00    +0.186 C  
DOCKED: BRANCH  16  17
DOCKED: ATOM     17  C35 UNL     1      10.404  -3.449  -3.980 +0.00 +0.00    +0.326 C  
DOCKED: ATOM     18  O9  UNL     1       9.492  -2.665  -3.747 +0.00 -0.00    -0.249 OA 
DOCKED: BRANCH  17  19
DOCKED: ATOM     19  O10 UNL     1      10.650  -4.484  -3.158 +0.00 -0.00    -0.479 OA 
DOCKED: ATOM     20  H46 UNL     1      10.452  -5.285  -3.687 +0.00 +0.00    +0.295 HD 
DOCKED: ENDBRANCH  17  19
DOCKED: ENDBRANCH  16  17
DOCKED: BRANCH  16  21
DOCKED: ATOM     21  C28 UNL     1      12.230  -2.126  -5.078 +0.00 +0.00    +0.069 C  
DOCKED: BRANCH  21  22
DOCKED: ATOM     22  C29 UNL     1      13.034  -2.028  -3.804 +0.00 -0.00    -0.045 A  
DOCKED: ATOM     23  C30 UNL     1      14.340  -2.535  -3.746 +0.00 +0.00    +0.004 A  
DOCKED: ATOM     24  C31 UNL     1      15.083  -2.445  -2.567 +0.00 +0.00    +0.000 A  
DOCKED: ATOM     25  C32 UNL     1      14.528  -1.846  -1.436 +0.00 +0.00    +0.000 A  
DOCKED: ATOM     26  C33 UNL     1      13.234  -1.336  -1.482 +0.00 +0.00    +0.000 A  
DOCKED: ATOM     27  C34 UNL     1      12.488  -1.426  -2.660 +0.00 +0.00    +0.004 A  
DOCKED: ENDBRANCH  21  22
DOCKED: ENDBRANCH  16  21
DOCKED: ENDBRANCH  14  16
DOCKED: ENDBRANCH  11  12
DOCKED: BRANCH  11  28
DOCKED: ATOM     28  C23 UNL     1      14.775  -6.112  -4.554 +0.00 +0.00    +0.043 C  
DOCKED: BRANCH  28  29
DOCKED: ATOM     29  C24 UNL     1      14.393  -7.316  -3.695 +0.00 +0.00    +0.123 C  
DOCKED: BRANCH  29  30
DOCKED: ATOM     30  C25 UNL     1      13.301  -6.957  -2.723 +0.00 +0.00    +0.305 C  
DOCKED: ATOM     31  O6  UNL     1      13.173  -7.361  -1.578 +0.00 -0.00    -0.251 OA 
DOCKED: BRANCH  30  32
DOCKED: ATOM     32  O7  UNL     1      12.419  -6.095  -3.252 +0.00 -0.00    -0.481 OA 
DOCKED: ATOM     33  H36 UNL     1      11.550  -6.506  -3.063 +0.00 +0.00    +0.295 HD 
DOCKED: ENDBRANCH  30  32
DOCKED: ENDBRANCH  29  30
DOCKED: ENDBRANCH  28  29
DOCKED: ENDBRANCH  11  28
DOCKED: ENDBRANCH   9  11
DOCKED: ENDBRANCH   5   7
DOCKED: ENDBRANCH   3   5
DOCKED: BRANCH   1  34
DOCKED: ATOM     34  C17 UNL     1      10.907  -9.396  -3.391 +0.00 +0.00    +0.161 C  
DOCKED: BRANCH  34  37
DOCKED: ATOM     35  C16 UNL     1      10.019  -8.785  -1.179 +0.00 +0.00    +0.216 C  
DOCKED: ATOM     36  O3  UNL     1       9.190  -9.692  -1.185 +0.00 -0.00    -0.276 OA 
DOCKED: ATOM     37  N2  UNL     1      10.987  -8.633  -2.150 +0.00 -0.00    -0.304 N  
DOCKED: ATOM     38  H23 UNL     1      11.338  -7.683  -2.256 +0.00 +0.00    +0.149 HD 
DOCKED: BRANCH  35  39
DOCKED: ATOM     39  C15 UNL     1      10.010  -7.699  -0.126 +0.00 +0.00    +0.129 C  
DOCKED: BRANCH  39  40
DOCKED: ATOM     40  C14 UNL     1       9.442  -6.421  -0.753 +0.00 +0.00    +0.143 C  
DOCKED: BRANCH  40  41
DOCKED: ATOM     41  O2  UNL     1       9.571  -6.549  -2.174 +0.00 -0.00    -0.389 OA 
DOCKED: ATOM     42  H20 UNL     1      10.438  -6.176  -2.416 +0.00 +0.00    +0.210 HD 
DOCKED: ENDBRANCH  40  41
DOCKED: BRANCH  40  43
DOCKED: ATOM     43  C5  UNL     1      10.124  -5.117  -0.247 +0.00 +0.00    +0.102 C  
DOCKED: BRANCH  43  44
DOCKED: ATOM     44  N1  UNL     1      11.514  -5.045  -0.709 +0.00 -0.00    -0.310 N  
DOCKED: ATOM     45  C6  UNL     1      12.544  -4.615   0.115 +0.00 +0.00    +0.218 C  
DOCKED: ATOM     46  O1  UNL     1      12.350  -4.216   1.260 +0.00 -0.00    -0.275 OA 
DOCKED: ATOM     47  H11 UNL     1      11.764  -5.546  -1.553 +0.00 +0.00    +0.149 HD 
DOCKED: BRANCH  45  48
DOCKED: ATOM     48  C7  UNL     1      13.910  -4.738  -0.543 +0.00 +0.00    +0.130 C  
DOCKED: BRANCH  48  49
DOCKED: ATOM     49  C8  UNL     1      14.829  -5.765   0.072 +0.00 -0.00    -0.039 A  
DOCKED: ATOM     50  C9  UNL     1      16.116  -5.984  -0.445 +0.00 +0.00    +0.004 A  
DOCKED: ATOM     51  C10 UNL     1      16.950  -6.948   0.128 +0.00 +0.00    +0.000 A  
DOCKED: ATOM     52  C11 UNL     1      16.514  -7.691   1.227 +0.00 +0.00    +0.000 A  
DOCKED: ATOM     53  C12 UNL     1      15.241  -7.471   1.750 +0.00 +0.00    +0.000 A  
DOCKED: ATOM     54  C13 UNL     1      14.401  -6.513   1.180 +0.00 +0.00    +0.004 A  
DOCKED: ENDBRANCH  48  49
DOCKED: ENDBRANCH  45  48
DOCKED: ENDBRANCH  43  44
DOCKED: BRANCH  43  55
DOCKED: ATOM     55  C4  UNL     1       9.409  -3.790  -0.610 +0.00 +0.00    +0.028 C  
DOCKED: BRANCH  55  57
DOCKED: ATOM     56  C1  UNL     1      10.473  -1.749   0.440 +0.00 +0.00    +0.007 C  
DOCKED: ATOM     57  C2  UNL     1       9.345  -2.778   0.555 +0.00 -0.00    -0.015 C  
DOCKED: ATOM     58  C3  UNL     1       9.438  -3.492   1.917 +0.00 +0.00    +0.007 C  
DOCKED: ENDBRANCH  55  57
DOCKED: ENDBRANCH  43  55
DOCKED: ENDBRANCH  40  43
DOCKED: ENDBRANCH  39  40
DOCKED: ENDBRANCH  35  39
DOCKED: ENDBRANCH  34  37
DOCKED: BRANCH  34  59
DOCKED: ATOM     59  C36 UNL     1      12.087 -10.367  -3.587 +0.00 +0.00    +0.012 C  
DOCKED: ATOM     60  C37 UNL     1      11.574 -11.792  -3.817 +0.00 +0.00    +0.009 C  
DOCKED: ATOM     61  C38 UNL     1      13.085 -10.352  -2.423 +0.00 +0.00    +0.009 C  
DOCKED: ENDBRANCH  34  59
DOCKED: ENDBRANCH   1  34
DOCKED: TORSDOF 25
DOCKED: TER
DOCKED: ENDMDL
________________________________________________________________________________


    FINAL DOCKED STATE:
    ________________________


Run:   10 / 20
Time taken for this run:   3.208s

DOCKED: MODEL        10
DOCKED: USER    Run = 10
DOCKED: USER
DOCKED: USER    Estimated Free Energy of Binding    =  +7.46 kcal/mol  [=(1)+(2)+(3)-(4)]
DOCKED: USER
DOCKED: USER    (1) Final Intermolecular Energy     =  +0.00 kcal/mol
DOCKED: USER        vdW + Hbond + desolv Energy     =  +0.00 kcal/mol
DOCKED: USER        Electrostatic Energy            =  +0.00 kcal/mol
DOCKED: USER        Moving Ligand-Fixed Receptor    =  +0.00 kcal/mol
DOCKED: USER        Moving Ligand-Moving Receptor   =  +0.00 kcal/mol
DOCKED: USER    (2) Final Total Internal Energy     = -19.57 kcal/mol
DOCKED: USER    (3) Torsional Free Energy           =  +7.46 kcal/mol
DOCKED: USER    (4) Unbound System's Energy         = -19.57 kcal/mol
DOCKED: USER
DOCKED: USER
DOCKED: REMARK  Name = ligands/ligand_29.pdb
DOCKED: REMARK  30 active torsions:
DOCKED: REMARK  status: ('A' for Active; 'I' for Inactive)
DOCKED: REMARK    1  A    between atoms: C1_1  and  C2_2
DOCKED: REMARK    2  A    between atoms: C2_2  and  C3_3
DOCKED: REMARK    3  A    between atoms: C2_2  and  C4_4
DOCKED: REMARK    4  A    between atoms: C4_4  and  C5_5
DOCKED: REMARK    5  A    between atoms: C5_5  and  N1_6
DOCKED: REMARK    6  A    between atoms: C5_5  and  C14_16
DOCKED: REMARK    7  A    between atoms: C6_7  and  C7_9
DOCKED: REMARK    8  A    between atoms: C7_9  and  C8_10
DOCKED: REMARK    9  A    between atoms: C14_16  and  O2_17
DOCKED: REMARK   10  A    between atoms: C14_16  and  C15_18
DOCKED: REMARK   11  A    between atoms: C15_18  and  C16_19
DOCKED: REMARK   12  A    between atoms: N2_21  and  C17_22
DOCKED: REMARK   13  A    between atoms: C17_22  and  C18_23
DOCKED: REMARK   14  A    between atoms: C17_22  and  C36_51
DOCKED: REMARK   15  A    between atoms: N3_25  and  C19_26
DOCKED: REMARK   16  A    between atoms: C19_26  and  C20_27
DOCKED: REMARK   17  A    between atoms: C19_26  and  C21_28
DOCKED: REMARK   18  A    between atoms: N4_30  and  C22_31
DOCKED: REMARK   19  A    between atoms: C22_31  and  C23_32
DOCKED: REMARK   20  A    between atoms: C22_31  and  C26_37
DOCKED: REMARK   21  A    between atoms: C23_32  and  C24_33
DOCKED: REMARK   22  A    between atoms: C24_33  and  C25_34
DOCKED: REMARK   23  A    between atoms: C25_34  and  O7_36
DOCKED: REMARK   24  A    between atoms: N5_39  and  C27_40
DOCKED: REMARK   25  A    between atoms: C27_40  and  C28_41
DOCKED: REMARK   26  A    between atoms: C27_40  and  C35_48
DOCKED: REMARK   27  A    between atoms: C28_41  and  C29_42
DOCKED: REMARK   28  A    between atoms: C35_48  and  O10_50
DOCKED: REMARK   29  A    between atoms: C36_51  and  C37_52
DOCKED: REMARK   30  A    between atoms: C36_51  and  C38_53
DOCKED: REMARK                            x       y       z     vdW  Elec       q    Type
DOCKED: REMARK                         _______ _______ _______ _____ _____    ______ ____
DOCKED: USER                              x       y       z     vdW  Elec       q    Type
DOCKED: USER                           _______ _______ _______ _____ _____    ______ ____
DOCKED: ROOT
DOCKED: ATOM      1  C18 UNL     1       7.821  -3.090  -3.246 +0.00 +0.00    +0.234 C  
DOCKED: ATOM      2  O4  UNL     1       6.908  -3.272  -2.443 +0.00 -0.00    -0.274 OA 
DOCKED: ATOM      3  N3  UNL     1       8.075  -1.870  -3.824 +0.00 -0.00    -0.303 N  
DOCKED: ATOM      4  H25 UNL     1       8.794  -1.773  -4.533 +0.00 +0.00    +0.149 HD 
DOCKED: ENDROOT
DOCKED: BRANCH   3   5
DOCKED: ATOM      5  C19 UNL     1       7.212  -0.711  -3.627 +0.00 +0.00    +0.156 C  
DOCKED: ATOM      6  C20 UNL     1       7.315   0.257  -4.808 +0.00 +0.00    +0.038 C  
DOCKED: BRANCH   5   7
DOCKED: ATOM      7  C21 UNL     1       7.659  -0.033  -2.310 +0.00 +0.00    +0.234 C  
DOCKED: ATOM      8  O5  UNL     1       7.389   1.141  -2.054 +0.00 -0.00    -0.274 OA 
DOCKED: ATOM      9  N4  UNL     1       8.372  -0.840  -1.438 +0.00 -0.00    -0.302 N  
DOCKED: ATOM     10  H30 UNL     1       8.232  -1.839  -1.546 +0.00 +0.00    +0.150 HD 
DOCKED: BRANCH   9  11
DOCKED: ATOM     11  C22 UNL     1       8.528  -0.403  -0.052 +0.00 +0.00    +0.159 C  
DOCKED: BRANCH  11  12
DOCKED: ATOM     12  C26 UNL     1       7.360  -1.013   0.751 +0.00 +0.00    +0.234 C  
DOCKED: ATOM     13  O8  UNL     1       6.701  -0.355   1.549 +0.00 -0.00    -0.274 OA 
DOCKED: ATOM     14  N5  UNL     1       7.099  -2.335   0.466 +0.00 -0.00    -0.301 N  
DOCKED: ATOM     15  H37 UNL     1       7.414  -2.699  -0.424 +0.00 +0.00    +0.150 HD 
DOCKED: BRANCH  14  16
DOCKED: ATOM     16  C27 UNL     1       5.964  -3.025   1.096 +0.00 +0.00    +0.186 C  
DOCKED: BRANCH  16  17
DOCKED: ATOM     17  C35 UNL     1       5.788  -4.352   0.363 +0.00 +0.00    +0.326 C  
DOCKED: ATOM     18  O9  UNL     1       4.758  -5.015   0.327 +0.00 -0.00    -0.249 OA 
DOCKED: BRANCH  17  19
DOCKED: ATOM     19  O10 UNL     1       6.896  -4.765  -0.277 +0.00 -0.00    -0.479 OA 
DOCKED: ATOM     20  H46 UNL     1       6.924  -4.243  -1.106 +0.00 +0.00    +0.295 HD 
DOCKED: ENDBRANCH  17  19
DOCKED: ENDBRANCH  16  17
DOCKED: BRANCH  16  21
DOCKED: ATOM     21  C28 UNL     1       6.271  -3.278   2.577 +0.00 +0.00    +0.069 C  
DOCKED: BRANCH  21  22
DOCKED: ATOM     22  C29 UNL     1       7.677  -3.756   2.846 +0.00 -0.00    -0.045 A  
DOCKED: ATOM     23  C30 UNL     1       7.998  -5.119   2.745 +0.00 +0.00    +0.004 A  
DOCKED: ATOM     24  C31 UNL     1       9.300  -5.560   2.995 +0.00 +0.00    +0.000 A  
DOCKED: ATOM     25  C32 UNL     1      10.292  -4.645   3.347 +0.00 +0.00    +0.000 A  
DOCKED: ATOM     26  C33 UNL     1       9.987  -3.291   3.447 +0.00 +0.00    +0.000 A  
DOCKED: ATOM     27  C34 UNL     1       8.686  -2.847   3.199 +0.00 +0.00    +0.004 A  
DOCKED: ENDBRANCH  21  22
DOCKED: ENDBRANCH  16  21
DOCKED: ENDBRANCH  14  16
DOCKED: ENDBRANCH  11  12
DOCKED: BRANCH  11  28
DOCKED: ATOM     28  C23 UNL     1       9.852  -0.873   0.556 +0.00 +0.00    +0.043 C  
DOCKED: BRANCH  28  29
DOCKED: ATOM     29  C24 UNL     1      10.585  -1.853  -0.358 +0.00 +0.00    +0.123 C  
DOCKED: BRANCH  29  30
DOCKED: ATOM     30  C25 UNL     1      10.085  -3.257  -0.153 +0.00 +0.00    +0.305 C  
DOCKED: ATOM     31  O6  UNL     1      10.624  -4.144   0.491 +0.00 -0.00    -0.251 OA 
DOCKED: BRANCH  30  32
DOCKED: ATOM     32  O7  UNL     1       8.915  -3.470  -0.775 +0.00 -0.00    -0.481 OA 
DOCKED: ATOM     33  H36 UNL     1       8.416  -4.033  -0.147 +0.00 +0.00    +0.295 HD 
DOCKED: ENDBRANCH  30  32
DOCKED: ENDBRANCH  29  30
DOCKED: ENDBRANCH  28  29
DOCKED: ENDBRANCH  11  28
DOCKED: ENDBRANCH   9  11
DOCKED: ENDBRANCH   5   7
DOCKED: ENDBRANCH   3   5
DOCKED: BRANCH   1  34
DOCKED: ATOM     34  C17 UNL     1       8.817  -4.207  -3.631 +0.00 +0.00    +0.161 C  
DOCKED: BRANCH  34  37
DOCKED: ATOM     35  C16 UNL     1       8.608  -6.565  -2.959 +0.00 +0.00    +0.216 C  
DOCKED: ATOM     36  O3  UNL     1       8.735  -6.975  -4.111 +0.00 -0.00    -0.276 OA 
DOCKED: ATOM     37  N2  UNL     1       8.760  -5.242  -2.604 +0.00 -0.00    -0.304 N  
DOCKED: ATOM     38  H23 UNL     1       8.269  -4.970  -1.753 +0.00 +0.00    +0.149 HD 
DOCKED: BRANCH  35  39
DOCKED: ATOM     39  C15 UNL     1       8.203  -7.478  -1.824 +0.00 +0.00    +0.129 C  
DOCKED: BRANCH  39  40
DOCKED: ATOM     40  C14 UNL     1       9.220  -7.321  -0.689 +0.00 +0.00    +0.143 C  
DOCKED: BRANCH  40  41
DOCKED: ATOM     41  O2  UNL     1       8.872  -6.135   0.036 +0.00 -0.00    -0.389 OA 
DOCKED: ATOM     42  H20 UNL     1       9.082  -5.377  -0.540 +0.00 +0.00    +0.210 HD 
DOCKED: ENDBRANCH  40  41
DOCKED: BRANCH  40  43
DOCKED: ATOM     43  C5  UNL     1      10.698  -7.263  -1.173 +0.00 +0.00    +0.102 C  
DOCKED: BRANCH  43  44
DOCKED: ATOM     44  N1  UNL     1      11.527  -6.518  -0.220 +0.00 -0.00    -0.310 N  
DOCKED: ATOM     45  C6  UNL     1      12.855  -6.213  -0.479 +0.00 +0.00    +0.218 C  
DOCKED: ATOM     46  O1  UNL     1      13.434  -6.593  -1.494 +0.00 -0.00    -0.275 OA 
DOCKED: ATOM     47  H11 UNL     1      11.063  -6.009   0.522 +0.00 +0.00    +0.149 HD 
DOCKED: BRANCH  45  48
DOCKED: ATOM     48  C7  UNL     1      13.475  -5.336   0.598 +0.00 +0.00    +0.130 C  
DOCKED: BRANCH  48  49
DOCKED: ATOM     49  C8  UNL     1      13.626  -3.879   0.232 +0.00 -0.00    -0.039 A  
DOCKED: ATOM     50  C9  UNL     1      13.824  -3.487  -1.102 +0.00 +0.00    +0.004 A  
DOCKED: ATOM     51  C10 UNL     1      13.974  -2.135  -1.423 +0.00 +0.00    +0.000 A  
DOCKED: ATOM     52  C11 UNL     1      13.916  -1.164  -0.422 +0.00 +0.00    +0.000 A  
DOCKED: ATOM     53  C12 UNL     1      13.711  -1.548   0.903 +0.00 +0.00    +0.000 A  
DOCKED: ATOM     54  C13 UNL     1      13.564  -2.896   1.231 +0.00 +0.00    +0.004 A  
DOCKED: ENDBRANCH  48  49
DOCKED: ENDBRANCH  45  48
DOCKED: ENDBRANCH  43  44
DOCKED: BRANCH  43  55
DOCKED: ATOM     55  C4  UNL     1      11.373  -8.628  -1.462 +0.00 +0.00    +0.028 C  
DOCKED: BRANCH  55  57
DOCKED: ATOM     56  C1  UNL     1      11.772  -7.638  -3.756 +0.00 +0.00    +0.007 C  
DOCKED: ATOM     57  C2  UNL     1      11.546  -8.932  -2.966 +0.00 -0.00    -0.015 C  
DOCKED: ATOM     58  C3  UNL     1      10.316  -9.669  -3.530 +0.00 +0.00    +0.007 C  
DOCKED: ENDBRANCH  55  57
DOCKED: ENDBRANCH  43  55
DOCKED: ENDBRANCH  40  43
DOCKED: ENDBRANCH  39  40
DOCKED: ENDBRANCH  35  39
DOCKED: ENDBRANCH  34  37
DOCKED: BRANCH  34  59
DOCKED: ATOM     59  C36 UNL     1      10.231  -3.633  -3.841 +0.00 +0.00    +0.012 C  
DOCKED: ATOM     60  C37 UNL     1      10.600  -3.650  -5.328 +0.00 +0.00    +0.009 C  
DOCKED: ATOM     61  C38 UNL     1      11.309  -4.362  -3.027 +0.00 +0.00    +0.009 C  
DOCKED: ENDBRANCH  34  59
DOCKED: ENDBRANCH   1  34
DOCKED: TORSDOF 25
DOCKED: TER
DOCKED: ENDMDL
________________________________________________________________________________


    FINAL DOCKED STATE:
    ________________________


Run:   11 / 20
Time taken for this run:   3.208s

DOCKED: MODEL        11
DOCKED: USER    Run = 11
DOCKED: USER
DOCKED: USER    Estimated Free Energy of Binding    =  +7.46 kcal/mol  [=(1)+(2)+(3)-(4)]
DOCKED: USER
DOCKED: USER    (1) Final Intermolecular Energy     =  +0.00 kcal/mol
DOCKED: USER        vdW + Hbond + desolv Energy     =  +0.00 kcal/mol
DOCKED: USER        Electrostatic Energy            =  +0.00 kcal/mol
DOCKED: USER        Moving Ligand-Fixed Receptor    =  +0.00 kcal/mol
DOCKED: USER        Moving Ligand-Moving Receptor   =  +0.00 kcal/mol
DOCKED: USER    (2) Final Total Internal Energy     = -19.81 kcal/mol
DOCKED: USER    (3) Torsional Free Energy           =  +7.46 kcal/mol
DOCKED: USER    (4) Unbound System's Energy         = -19.81 kcal/mol
DOCKED: USER
DOCKED: USER
DOCKED: REMARK  Name = ligands/ligand_29.pdb
DOCKED: REMARK  30 active torsions:
DOCKED: REMARK  status: ('A' for Active; 'I' for Inactive)
DOCKED: REMARK    1  A    between atoms: C1_1  and  C2_2
DOCKED: REMARK    2  A    between atoms: C2_2  and  C3_3
DOCKED: REMARK    3  A    between atoms: C2_2  and  C4_4
DOCKED: REMARK    4  A    between atoms: C4_4  and  C5_5
DOCKED: REMARK    5  A    between atoms: C5_5  and  N1_6
DOCKED: REMARK    6  A    between atoms: C5_5  and  C14_16
DOCKED: REMARK    7  A    between atoms: C6_7  and  C7_9
DOCKED: REMARK    8  A    between atoms: C7_9  and  C8_10
DOCKED: REMARK    9  A    between atoms: C14_16  and  O2_17
DOCKED: REMARK   10  A    between atoms: C14_16  and  C15_18
DOCKED: REMARK   11  A    between atoms: C15_18  and  C16_19
DOCKED: REMARK   12  A    between atoms: N2_21  and  C17_22
DOCKED: REMARK   13  A    between atoms: C17_22  and  C18_23
DOCKED: REMARK   14  A    between atoms: C17_22  and  C36_51
DOCKED: REMARK   15  A    between atoms: N3_25  and  C19_26
DOCKED: REMARK   16  A    between atoms: C19_26  and  C20_27
DOCKED: REMARK   17  A    between atoms: C19_26  and  C21_28
DOCKED: REMARK   18  A    between atoms: N4_30  and  C22_31
DOCKED: REMARK   19  A    between atoms: C22_31  and  C23_32
DOCKED: REMARK   20  A    between atoms: C22_31  and  C26_37
DOCKED: REMARK   21  A    between atoms: C23_32  and  C24_33
DOCKED: REMARK   22  A    between atoms: C24_33  and  C25_34
DOCKED: REMARK   23  A    between atoms: C25_34  and  O7_36
DOCKED: REMARK   24  A    between atoms: N5_39  and  C27_40
DOCKED: REMARK   25  A    between atoms: C27_40  and  C28_41
DOCKED: REMARK   26  A    between atoms: C27_40  and  C35_48
DOCKED: REMARK   27  A    between atoms: C28_41  and  C29_42
DOCKED: REMARK   28  A    between atoms: C35_48  and  O10_50
DOCKED: REMARK   29  A    between atoms: C36_51  and  C37_52
DOCKED: REMARK   30  A    between atoms: C36_51  and  C38_53
DOCKED: REMARK                            x       y       z     vdW  Elec       q    Type
DOCKED: REMARK                         _______ _______ _______ _____ _____    ______ ____
DOCKED: USER                              x       y       z     vdW  Elec       q    Type
DOCKED: USER                           _______ _______ _______ _____ _____    ______ ____
DOCKED: ROOT
DOCKED: ATOM      1  C18 UNL     1      13.092  -2.939   0.809 +0.00 +0.00    +0.234 C  
DOCKED: ATOM      2  O4  UNL     1      12.847  -4.077   0.413 +0.00 -0.00    -0.274 OA 
DOCKED: ATOM      3  N3  UNL     1      13.479  -1.923  -0.031 +0.00 -0.00    -0.303 N  
DOCKED: ATOM      4  H25 UNL     1      13.739  -1.015   0.340 +0.00 +0.00    +0.149 HD 
DOCKED: ENDROOT
DOCKED: BRANCH   3   5
DOCKED: ATOM      5  C19 UNL     1      13.746  -2.133  -1.449 +0.00 +0.00    +0.156 C  
DOCKED: ATOM      6  C20 UNL     1      14.644  -1.026  -2.008 +0.00 +0.00    +0.038 C  
DOCKED: BRANCH   5   7
DOCKED: ATOM      7  C21 UNL     1      12.377  -2.156  -2.169 +0.00 +0.00    +0.234 C  
DOCKED: ATOM      8  O5  UNL     1      12.202  -1.616  -3.262 +0.00 -0.00    -0.274 OA 
DOCKED: ATOM      9  N4  UNL     1      11.367  -2.835  -1.504 +0.00 -0.00    -0.302 N  
DOCKED: ATOM     10  H30 UNL     1      11.671  -3.533  -0.834 +0.00 +0.00    +0.150 HD 
DOCKED: BRANCH   9  11
DOCKED: ATOM     11  C22 UNL     1      10.166  -3.204  -2.250 +0.00 +0.00    +0.159 C  
DOCKED: BRANCH  11  12
DOCKED: ATOM     12  C26 UNL     1       9.989  -4.729  -2.103 +0.00 +0.00    +0.234 C  
DOCKED: ATOM     13  O8  UNL     1       9.653  -5.442  -3.042 +0.00 -0.00    -0.274 OA 
DOCKED: ATOM     14  N5  UNL     1      10.277  -5.220  -0.848 +0.00 -0.00    -0.301 N  
DOCKED: ATOM     15  H37 UNL     1      10.879  -4.667  -0.250 +0.00 +0.00    +0.150 HD 
DOCKED: BRANCH  14  16
DOCKED: ATOM     16  C27 UNL     1      10.231  -6.665  -0.581 +0.00 +0.00    +0.186 C  
DOCKED: BRANCH  16  17
DOCKED: ATOM     17  C35 UNL     1      10.737  -6.871   0.843 +0.00 +0.00    +0.326 C  
DOCKED: ATOM     18  O9  UNL     1      10.890  -7.954   1.395 +0.00 -0.00    -0.249 OA 
DOCKED: BRANCH  17  19
DOCKED: ATOM     19  O10 UNL     1      11.022  -5.724   1.485 +0.00 -0.00    -0.479 OA 
DOCKED: ATOM     20  H46 UNL     1      11.599  -5.223   0.871 +0.00 +0.00    +0.295 HD 
DOCKED: ENDBRANCH  17  19
DOCKED: ENDBRANCH  16  17
DOCKED: BRANCH  16  21
DOCKED: ATOM     21  C28 UNL     1       8.787  -7.166  -0.705 +0.00 +0.00    +0.069 C  
DOCKED: BRANCH  21  22
DOCKED: ATOM     22  C29 UNL     1       7.778  -6.349   0.067 +0.00 -0.00    -0.045 A  
DOCKED: ATOM     23  C30 UNL     1       7.617  -6.537   1.448 +0.00 +0.00    +0.004 A  
DOCKED: ATOM     24  C31 UNL     1       6.683  -5.782   2.161 +0.00 +0.00    +0.000 A  
DOCKED: ATOM     25  C32 UNL     1       5.903  -4.832   1.502 +0.00 +0.00    +0.000 A  
DOCKED: ATOM     26  C33 UNL     1       6.057  -4.634   0.132 +0.00 +0.00    +0.000 A  
DOCKED: ATOM     27  C34 UNL     1       6.989  -5.389  -0.583 +0.00 +0.00    +0.004 A  
DOCKED: ENDBRANCH  21  22
DOCKED: ENDBRANCH  16  21
DOCKED: ENDBRANCH  14  16
DOCKED: ENDBRANCH  11  12
DOCKED: BRANCH  11  28
DOCKED: ATOM     28  C23 UNL     1       8.915  -2.501  -1.714 +0.00 +0.00    +0.043 C  
DOCKED: BRANCH  28  29
DOCKED: ATOM     29  C24 UNL     1       9.169  -1.834  -0.363 +0.00 +0.00    +0.123 C  
DOCKED: BRANCH  29  30
DOCKED: ATOM     30  C25 UNL     1       9.167  -2.850   0.747 +0.00 +0.00    +0.305 C  
DOCKED: ATOM     31  O6  UNL     1       8.219  -3.176   1.443 +0.00 -0.00    -0.251 OA 
DOCKED: BRANCH  30  32
DOCKED: ATOM     32  O7  UNL     1      10.375  -3.408   0.920 +0.00 -0.00    -0.481 OA 
DOCKED: ATOM     33  H36 UNL     1      10.172  -4.351   1.098 +0.00 +0.00    +0.295 HD 
DOCKED: ENDBRANCH  30  32
DOCKED: ENDBRANCH  29  30
DOCKED: ENDBRANCH  28  29
DOCKED: ENDBRANCH  11  28
DOCKED: ENDBRANCH   9  11
DOCKED: ENDBRANCH   5   7
DOCKED: ENDBRANCH   3   5
DOCKED: BRANCH   1  34
DOCKED: ATOM     34  C17 UNL     1      12.923  -2.525   2.288 +0.00 +0.00    +0.161 C  
DOCKED: BRANCH  34  37
DOCKED: ATOM     35  C16 UNL     1      12.207  -3.992   4.129 +0.00 +0.00    +0.216 C  
DOCKED: ATOM     36  O3  UNL     1      13.124  -3.632   4.864 +0.00 -0.00    -0.276 OA 
DOCKED: ATOM     37  N2  UNL     1      11.947  -3.419   2.902 +0.00 -0.00    -0.304 N  
DOCKED: ATOM     38  H23 UNL     1      11.451  -4.022   2.247 +0.00 +0.00    +0.149 HD 
DOCKED: BRANCH  35  39
DOCKED: ATOM     39  C15 UNL     1      11.309  -5.158   4.481 +0.00 +0.00    +0.129 C  
DOCKED: BRANCH  39  40
DOCKED: ATOM     40  C14 UNL     1       9.852  -4.696   4.374 +0.00 +0.00    +0.143 C  
DOCKED: BRANCH  40  41
DOCKED: ATOM     41  O2  UNL     1       9.479  -4.777   2.994 +0.00 -0.00    -0.389 OA 
DOCKED: ATOM     42  H20 UNL     1       9.962  -4.072   2.526 +0.00 +0.00    +0.210 HD 
DOCKED: ENDBRANCH  40  41
DOCKED: BRANCH  40  43
DOCKED: ATOM     43  C5  UNL     1       9.604  -3.265   4.935 +0.00 +0.00    +0.102 C  
DOCKED: BRANCH  43  44
DOCKED: ATOM     44  N1  UNL     1       9.122  -2.370   3.877 +0.00 -0.00    -0.310 N  
DOCKED: ATOM     45  C6  UNL     1       8.882  -1.023   4.104 +0.00 +0.00    +0.218 C  
DOCKED: ATOM     46  O1  UNL     1       9.005  -0.508   5.212 +0.00 -0.00    -0.275 OA 
DOCKED: ATOM     47  H11 UNL     1       9.200  -2.679   2.916 +0.00 +0.00    +0.149 HD 
DOCKED: BRANCH  45  48
DOCKED: ATOM     48  C7  UNL     1       8.503  -0.274   2.835 +0.00 +0.00    +0.130 C  
DOCKED: BRANCH  48  49
DOCKED: ATOM     49  C8  UNL     1       7.143  -0.611   2.273 +0.00 -0.00    -0.039 A  
DOCKED: ATOM     50  C9  UNL     1       6.761  -0.171   0.996 +0.00 +0.00    +0.004 A  
DOCKED: ATOM     51  C10 UNL     1       5.493  -0.481   0.495 +0.00 +0.00    +0.000 A  
DOCKED: ATOM     52  C11 UNL     1       4.603  -1.240   1.257 +0.00 +0.00    +0.000 A  
DOCKED: ATOM     53  C12 UNL     1       4.981  -1.688   2.522 +0.00 +0.00    +0.000 A  
DOCKED: ATOM     54  C13 UNL     1       6.244  -1.378   3.029 +0.00 +0.00    +0.004 A  
DOCKED: ENDBRANCH  48  49
DOCKED: ENDBRANCH  45  48
DOCKED: ENDBRANCH  43  44
DOCKED: BRANCH  43  55
DOCKED: ATOM     55  C4  UNL     1       8.643  -3.167   6.148 +0.00 +0.00    +0.028 C  
DOCKED: BRANCH  55  57
DOCKED: ATOM     56  C1  UNL     1       6.278  -2.611   6.855 +0.00 +0.00    +0.007 C  
DOCKED: ATOM     57  C2  UNL     1       7.149  -3.245   5.766 +0.00 -0.00    -0.015 C  
DOCKED: ATOM     58  C3  UNL     1       6.708  -4.704   5.542 +0.00 +0.00    +0.007 C  
DOCKED: ENDBRANCH  55  57
DOCKED: ENDBRANCH  43  55
DOCKED: ENDBRANCH  40  43
DOCKED: ENDBRANCH  39  40
DOCKED: ENDBRANCH  35  39
DOCKED: ENDBRANCH  34  37
DOCKED: BRANCH  34  59
DOCKED: ATOM     59  C36 UNL     1      12.541  -1.036   2.401 +0.00 +0.00    +0.012 C  
DOCKED: ATOM     60  C37 UNL     1      12.226  -0.675   3.857 +0.00 +0.00    +0.009 C  
DOCKED: ATOM     61  C38 UNL     1      11.366  -0.640   1.499 +0.00 +0.00    +0.009 C  
DOCKED: ENDBRANCH  34  59
DOCKED: ENDBRANCH   1  34
DOCKED: TORSDOF 25
DOCKED: TER
DOCKED: ENDMDL
________________________________________________________________________________


    FINAL DOCKED STATE:
    ________________________


Run:   12 / 20
Time taken for this run:   3.208s

DOCKED: MODEL        12
DOCKED: USER    Run = 12
DOCKED: USER
DOCKED: USER    Estimated Free Energy of Binding    =  +7.46 kcal/mol  [=(1)+(2)+(3)-(4)]
DOCKED: USER
DOCKED: USER    (1) Final Intermolecular Energy     =  +0.00 kcal/mol
DOCKED: USER        vdW + Hbond + desolv Energy     =  +0.00 kcal/mol
DOCKED: USER        Electrostatic Energy            =  +0.00 kcal/mol
DOCKED: USER        Moving Ligand-Fixed Receptor    =  +0.00 kcal/mol
DOCKED: USER        Moving Ligand-Moving Receptor   =  +0.00 kcal/mol
DOCKED: USER    (2) Final Total Internal Energy     = -19.36 kcal/mol
DOCKED: USER    (3) Torsional Free Energy           =  +7.46 kcal/mol
DOCKED: USER    (4) Unbound System's Energy         = -19.36 kcal/mol
DOCKED: USER
DOCKED: USER
DOCKED: REMARK  Name = ligands/ligand_29.pdb
DOCKED: REMARK  30 active torsions:
DOCKED: REMARK  status: ('A' for Active; 'I' for Inactive)
DOCKED: REMARK    1  A    between atoms: C1_1  and  C2_2
DOCKED: REMARK    2  A    between atoms: C2_2  and  C3_3
DOCKED: REMARK    3  A    between atoms: C2_2  and  C4_4
DOCKED: REMARK    4  A    between atoms: C4_4  and  C5_5
DOCKED: REMARK    5  A    between atoms: C5_5  and  N1_6
DOCKED: REMARK    6  A    between atoms: C5_5  and  C14_16
DOCKED: REMARK    7  A    between atoms: C6_7  and  C7_9
DOCKED: REMARK    8  A    between atoms: C7_9  and  C8_10
DOCKED: REMARK    9  A    between atoms: C14_16  and  O2_17
DOCKED: REMARK   10  A    between atoms: C14_16  and  C15_18
DOCKED: REMARK   11  A    between atoms: C15_18  and  C16_19
DOCKED: REMARK   12  A    between atoms: N2_21  and  C17_22
DOCKED: REMARK   13  A    between atoms: C17_22  and  C18_23
DOCKED: REMARK   14  A    between atoms: C17_22  and  C36_51
DOCKED: REMARK   15  A    between atoms: N3_25  and  C19_26
DOCKED: REMARK   16  A    between atoms: C19_26  and  C20_27
DOCKED: REMARK   17  A    between atoms: C19_26  and  C21_28
DOCKED: REMARK   18  A    between atoms: N4_30  and  C22_31
DOCKED: REMARK   19  A    between atoms: C22_31  and  C23_32
DOCKED: REMARK   20  A    between atoms: C22_31  and  C26_37
DOCKED: REMARK   21  A    between atoms: C23_32  and  C24_33
DOCKED: REMARK   22  A    between atoms: C24_33  and  C25_34
DOCKED: REMARK   23  A    between atoms: C25_34  and  O7_36
DOCKED: REMARK   24  A    between atoms: N5_39  and  C27_40
DOCKED: REMARK   25  A    between atoms: C27_40  and  C28_41
DOCKED: REMARK   26  A    between atoms: C27_40  and  C35_48
DOCKED: REMARK   27  A    between atoms: C28_41  and  C29_42
DOCKED: REMARK   28  A    between atoms: C35_48  and  O10_50
DOCKED: REMARK   29  A    between atoms: C36_51  and  C37_52
DOCKED: REMARK   30  A    between atoms: C36_51  and  C38_53
DOCKED: REMARK                            x       y       z     vdW  Elec       q    Type
DOCKED: REMARK                         _______ _______ _______ _____ _____    ______ ____
DOCKED: USER                              x       y       z     vdW  Elec       q    Type
DOCKED: USER                           _______ _______ _______ _____ _____    ______ ____
DOCKED: ROOT
DOCKED: ATOM      1  C18 UNL     1      14.001   0.094  -0.491 +0.00 +0.00    +0.234 C  
DOCKED: ATOM      2  O4  UNL     1      13.695  -0.255   0.648 +0.00 -0.00    -0.274 OA 
DOCKED: ATOM      3  N3  UNL     1      13.128   0.733  -1.336 +0.00 -0.00    -0.303 N  
DOCKED: ATOM      4  H25 UNL     1      13.394   0.946  -2.292 +0.00 +0.00    +0.149 HD 
DOCKED: ENDROOT
DOCKED: BRANCH   3   5
DOCKED: ATOM      5  C19 UNL     1      11.725   0.949  -1.001 +0.00 +0.00    +0.156 C  
DOCKED: ATOM      6  C20 UNL     1      11.578   1.484   0.426 +0.00 +0.00    +0.038 C  
DOCKED: BRANCH   5   7
DOCKED: ATOM      7  C21 UNL     1      11.006  -0.411  -1.163 +0.00 +0.00    +0.234 C  
DOCKED: ATOM      8  O5  UNL     1      10.513  -0.768  -2.233 +0.00 -0.00    -0.274 OA 
DOCKED: ATOM      9  N4  UNL     1      10.966  -1.201  -0.024 +0.00 -0.00    -0.302 N  
DOCKED: ATOM     10  H30 UNL     1      11.681  -1.013   0.670 +0.00 +0.00    +0.150 HD 
DOCKED: BRANCH   9  11
DOCKED: ATOM     11  C22 UNL     1      10.627  -2.615  -0.167 +0.00 +0.00    +0.159 C  
DOCKED: BRANCH  11  12
DOCKED: ATOM     12  C26 UNL     1      11.785  -3.284  -0.936 +0.00 +0.00    +0.234 C  
DOCKED: ATOM     13  O8  UNL     1      11.596  -4.171  -1.762 +0.00 -0.00    -0.274 OA 
DOCKED: ATOM     14  N5  UNL     1      13.033  -2.777  -0.646 +0.00 -0.00    -0.301 N  
DOCKED: ATOM     15  H37 UNL     1      13.086  -1.843  -0.258 +0.00 +0.00    +0.150 HD 
DOCKED: BRANCH  14  16
DOCKED: ATOM     16  C27 UNL     1      14.222  -3.262  -1.362 +0.00 +0.00    +0.186 C  
DOCKED: BRANCH  16  17
DOCKED: ATOM     17  C35 UNL     1      14.529  -4.655  -0.821 +0.00 +0.00    +0.326 C  
DOCKED: ATOM     18  O9  UNL     1      14.654  -5.670  -1.497 +0.00 -0.00    -0.249 OA 
DOCKED: BRANCH  17  19
DOCKED: ATOM     19  O10 UNL     1      14.661  -4.697   0.516 +0.00 -0.00    -0.479 OA 
DOCKED: ATOM     20  H46 UNL     1      14.234  -3.877   0.843 +0.00 +0.00    +0.295 HD 
DOCKED: ENDBRANCH  17  19
DOCKED: ENDBRANCH  16  17
DOCKED: BRANCH  16  21
DOCKED: ATOM     21  C28 UNL     1      13.926  -3.332  -2.865 +0.00 +0.00    +0.069 C  
DOCKED: BRANCH  21  22
DOCKED: ATOM     22  C29 UNL     1      14.174  -2.042  -3.608 +0.00 -0.00    -0.045 A  
DOCKED: ATOM     23  C30 UNL     1      15.468  -1.700  -4.029 +0.00 +0.00    +0.004 A  
DOCKED: ATOM     24  C31 UNL     1      15.696  -0.505  -4.715 +0.00 +0.00    +0.000 A  
DOCKED: ATOM     25  C32 UNL     1      14.635   0.358  -4.988 +0.00 +0.00    +0.000 A  
DOCKED: ATOM     26  C33 UNL     1      13.346   0.027  -4.579 +0.00 +0.00    +0.000 A  
DOCKED: ATOM     27  C34 UNL     1      13.115  -1.166  -3.891 +0.00 +0.00    +0.004 A  
DOCKED: ENDBRANCH  21  22
DOCKED: ENDBRANCH  16  21
DOCKED: ENDBRANCH  14  16
DOCKED: ENDBRANCH  11  12
DOCKED: BRANCH  11  28
DOCKED: ATOM     28  C23 UNL     1      10.460  -3.308   1.188 +0.00 +0.00    +0.043 C  
DOCKED: BRANCH  28  29
DOCKED: ATOM     29  C24 UNL     1      11.578  -4.312   1.460 +0.00 +0.00    +0.123 C  
DOCKED: BRANCH  29  30
DOCKED: ATOM     30  C25 UNL     1      12.730  -3.654   2.172 +0.00 +0.00    +0.305 C  
DOCKED: ATOM     31  O6  UNL     1      13.508  -4.178   2.953 +0.00 -0.00    -0.251 OA 
DOCKED: BRANCH  30  32
DOCKED: ATOM     32  O7  UNL     1      12.840  -2.355   1.854 +0.00 -0.00    -0.481 OA 
DOCKED: ATOM     33  H36 UNL     1      13.676  -2.310   1.344 +0.00 +0.00    +0.295 HD 
DOCKED: ENDBRANCH  30  32
DOCKED: ENDBRANCH  29  30
DOCKED: ENDBRANCH  28  29
DOCKED: ENDBRANCH  11  28
DOCKED: ENDBRANCH   9  11
DOCKED: ENDBRANCH   5   7
DOCKED: ENDBRANCH   3   5
DOCKED: BRANCH   1  34
DOCKED: ATOM     34  C17 UNL     1      15.427  -0.095  -1.057 +0.00 +0.00    +0.161 C  
DOCKED: BRANCH  34  37
DOCKED: ATOM     35  C16 UNL     1      17.164  -1.567  -0.125 +0.00 +0.00    +0.216 C  
DOCKED: ATOM     36  O3  UNL     1      17.416  -2.075  -1.215 +0.00 -0.00    -0.276 OA 
DOCKED: ATOM     37  N2  UNL     1      16.300  -0.505   0.038 +0.00 -0.00    -0.304 N  
DOCKED: ATOM     38  H23 UNL     1      15.884  -0.432   0.965 +0.00 +0.00    +0.149 HD 
DOCKED: BRANCH  35  39
DOCKED: ATOM     39  C15 UNL     1      17.736  -2.115   1.165 +0.00 +0.00    +0.129 C  
DOCKED: BRANCH  39  40
DOCKED: ATOM     40  C14 UNL     1      16.588  -2.297   2.164 +0.00 +0.00    +0.143 C  
DOCKED: BRANCH  40  41
DOCKED: ATOM     41  O2  UNL     1      15.390  -2.501   1.406 +0.00 -0.00    -0.389 OA 
DOCKED: ATOM     42  H20 UNL     1      14.845  -3.139   1.902 +0.00 +0.00    +0.210 HD 
DOCKED: ENDBRANCH  40  41
DOCKED: BRANCH  40  43
DOCKED: ATOM     43  C5  UNL     1      16.424  -1.109   3.156 +0.00 +0.00    +0.102 C  
DOCKED: BRANCH  43  44
DOCKED: ATOM     44  N1  UNL     1      15.054  -0.585   3.115 +0.00 -0.00    -0.310 N  
DOCKED: ATOM     45  C6  UNL     1      14.737   0.687   3.568 +0.00 +0.00    +0.218 C  
DOCKED: ATOM     46  O1  UNL     1      15.570   1.432   4.080 +0.00 -0.00    -0.275 OA 
DOCKED: ATOM     47  H11 UNL     1      14.379  -1.057   2.527 +0.00 +0.00    +0.149 HD 
DOCKED: BRANCH  45  48
DOCKED: ATOM     48  C7  UNL     1      13.282   1.052   3.317 +0.00 +0.00    +0.130 C  
DOCKED: BRANCH  48  49
DOCKED: ATOM     49  C8  UNL     1      12.276   0.011   3.747 +0.00 -0.00    -0.039 A  
DOCKED: ATOM     50  C9  UNL     1      12.590  -0.927   4.743 +0.00 +0.00    +0.004 A  
DOCKED: ATOM     51  C10 UNL     1      11.651  -1.892   5.121 +0.00 +0.00    +0.000 A  
DOCKED: ATOM     52  C11 UNL     1      10.392  -1.921   4.519 +0.00 +0.00    +0.000 A  
DOCKED: ATOM     53  C12 UNL     1      10.073  -0.985   3.537 +0.00 +0.00    +0.000 A  
DOCKED: ATOM     54  C13 UNL     1      11.007  -0.022   3.152 +0.00 +0.00    +0.004 A  
DOCKED: ENDBRANCH  48  49
DOCKED: ENDBRANCH  45  48
DOCKED: ENDBRANCH  43  44
DOCKED: BRANCH  43  55
DOCKED: ATOM     55  C4  UNL     1      16.805  -1.395   4.631 +0.00 +0.00    +0.028 C  
DOCKED: BRANCH  55  57
DOCKED: ATOM     56  C1  UNL     1      15.800  -1.730   6.929 +0.00 +0.00    +0.007 C  
DOCKED: ATOM     57  C2  UNL     1      15.683  -2.079   5.442 +0.00 -0.00    -0.015 C  
DOCKED: ATOM     58  C3  UNL     1      15.725  -3.609   5.269 +0.00 +0.00    +0.007 C  
DOCKED: ENDBRANCH  55  57
DOCKED: ENDBRANCH  43  55
DOCKED: ENDBRANCH  40  43
DOCKED: ENDBRANCH  39  40
DOCKED: ENDBRANCH  35  39
DOCKED: ENDBRANCH  34  37
DOCKED: BRANCH  34  59
DOCKED: ATOM     59  C36 UNL     1      15.906   1.182  -1.774 +0.00 +0.00    +0.012 C  
DOCKED: ATOM     60  C37 UNL     1      17.361   1.026  -2.227 +0.00 +0.00    +0.009 C  
DOCKED: ATOM     61  C38 UNL     1      15.757   2.450  -0.922 +0.00 +0.00    +0.009 C  
DOCKED: ENDBRANCH  34  59
DOCKED: ENDBRANCH   1  34
DOCKED: TORSDOF 25
DOCKED: TER
DOCKED: ENDMDL
________________________________________________________________________________


    FINAL DOCKED STATE:
    ________________________


Run:   13 / 20
Time taken for this run:   3.208s

DOCKED: MODEL        13
DOCKED: USER    Run = 13
DOCKED: USER
DOCKED: USER    Estimated Free Energy of Binding    =  +7.46 kcal/mol  [=(1)+(2)+(3)-(4)]
DOCKED: USER
DOCKED: USER    (1) Final Intermolecular Energy     =  +0.00 kcal/mol
DOCKED: USER        vdW + Hbond + desolv Energy     =  +0.00 kcal/mol
DOCKED: USER        Electrostatic Energy            =  +0.00 kcal/mol
DOCKED: USER        Moving Ligand-Fixed Receptor    =  +0.00 kcal/mol
DOCKED: USER        Moving Ligand-Moving Receptor   =  +0.00 kcal/mol
DOCKED: USER    (2) Final Total Internal Energy     = -18.45 kcal/mol
DOCKED: USER    (3) Torsional Free Energy           =  +7.46 kcal/mol
DOCKED: USER    (4) Unbound System's Energy         = -18.45 kcal/mol
DOCKED: USER
DOCKED: USER
DOCKED: REMARK  Name = ligands/ligand_29.pdb
DOCKED: REMARK  30 active torsions:
DOCKED: REMARK  status: ('A' for Active; 'I' for Inactive)
DOCKED: REMARK    1  A    between atoms: C1_1  and  C2_2
DOCKED: REMARK    2  A    between atoms: C2_2  and  C3_3
DOCKED: REMARK    3  A    between atoms: C2_2  and  C4_4
DOCKED: REMARK    4  A    between atoms: C4_4  and  C5_5
DOCKED: REMARK    5  A    between atoms: C5_5  and  N1_6
DOCKED: REMARK    6  A    between atoms: C5_5  and  C14_16
DOCKED: REMARK    7  A    between atoms: C6_7  and  C7_9
DOCKED: REMARK    8  A    between atoms: C7_9  and  C8_10
DOCKED: REMARK    9  A    between atoms: C14_16  and  O2_17
DOCKED: REMARK   10  A    between atoms: C14_16  and  C15_18
DOCKED: REMARK   11  A    between atoms: C15_18  and  C16_19
DOCKED: REMARK   12  A    between atoms: N2_21  and  C17_22
DOCKED: REMARK   13  A    between atoms: C17_22  and  C18_23
DOCKED: REMARK   14  A    between atoms: C17_22  and  C36_51
DOCKED: REMARK   15  A    between atoms: N3_25  and  C19_26
DOCKED: REMARK   16  A    between atoms: C19_26  and  C20_27
DOCKED: REMARK   17  A    between atoms: C19_26  and  C21_28
DOCKED: REMARK   18  A    between atoms: N4_30  and  C22_31
DOCKED: REMARK   19  A    between atoms: C22_31  and  C23_32
DOCKED: REMARK   20  A    between atoms: C22_31  and  C26_37
DOCKED: REMARK   21  A    between atoms: C23_32  and  C24_33
DOCKED: REMARK   22  A    between atoms: C24_33  and  C25_34
DOCKED: REMARK   23  A    between atoms: C25_34  and  O7_36
DOCKED: REMARK   24  A    between atoms: N5_39  and  C27_40
DOCKED: REMARK   25  A    between atoms: C27_40  and  C28_41
DOCKED: REMARK   26  A    between atoms: C27_40  and  C35_48
DOCKED: REMARK   27  A    between atoms: C28_41  and  C29_42
DOCKED: REMARK   28  A    between atoms: C35_48  and  O10_50
DOCKED: REMARK   29  A    between atoms: C36_51  and  C37_52
DOCKED: REMARK   30  A    between atoms: C36_51  and  C38_53
DOCKED: REMARK                            x       y       z     vdW  Elec       q    Type
DOCKED: REMARK                         _______ _______ _______ _____ _____    ______ ____
DOCKED: USER                              x       y       z     vdW  Elec       q    Type
DOCKED: USER                           _______ _______ _______ _____ _____    ______ ____
DOCKED: ROOT
DOCKED: ATOM      1  C18 UNL     1       2.394  -4.715  -4.301 +0.00 +0.00    +0.234 C  
DOCKED: ATOM      2  O4  UNL     1       2.229  -4.722  -5.520 +0.00 -0.00    -0.274 OA 
DOCKED: ATOM      3  N3  UNL     1       3.528  -5.201  -3.697 +0.00 -0.00    -0.303 N  
DOCKED: ATOM      4  H25 UNL     1       3.599  -5.241  -2.686 +0.00 +0.00    +0.149 HD 
DOCKED: ENDROOT
DOCKED: BRANCH   3   5
DOCKED: ATOM      5  C19 UNL     1       4.587  -5.875  -4.440 +0.00 +0.00    +0.156 C  
DOCKED: ATOM      6  C20 UNL     1       4.197  -7.320  -4.762 +0.00 +0.00    +0.038 C  
DOCKED: BRANCH   5   7
DOCKED: ATOM      7  C21 UNL     1       5.859  -5.825  -3.560 +0.00 +0.00    +0.234 C  
DOCKED: ATOM      8  O5  UNL     1       6.989  -5.768  -4.046 +0.00 -0.00    -0.274 OA 
DOCKED: ATOM      9  N4  UNL     1       5.636  -5.839  -2.192 +0.00 -0.00    -0.302 N  
DOCKED: ATOM     10  H30 UNL     1       4.721  -5.522  -1.890 +0.00 +0.00    +0.150 HD 
DOCKED: BRANCH   9  11
DOCKED: ATOM     11  C22 UNL     1       6.729  -5.449  -1.303 +0.00 +0.00    +0.159 C  
DOCKED: BRANCH  11  12
DOCKED: ATOM     12  C26 UNL     1       7.360  -4.171  -1.894 +0.00 +0.00    +0.234 C  
DOCKED: ATOM     13  O8  UNL     1       8.575  -4.001  -1.934 +0.00 -0.00    -0.274 OA 
DOCKED: ATOM     14  N5  UNL     1       6.454  -3.267  -2.402 +0.00 -0.00    -0.301 N  
DOCKED: ATOM     15  H37 UNL     1       5.539  -3.611  -2.667 +0.00 +0.00    +0.150 HD 
DOCKED: BRANCH  14  16
DOCKED: ATOM     16  C27 UNL     1       6.916  -2.041  -3.069 +0.00 +0.00    +0.186 C  
DOCKED: BRANCH  16  17
DOCKED: ATOM     17  C35 UNL     1       5.669  -1.275  -3.504 +0.00 +0.00    +0.326 C  
DOCKED: ATOM     18  O9  UNL     1       5.556  -0.055  -3.530 +0.00 -0.00    -0.249 OA 
DOCKED: BRANCH  17  19
DOCKED: ATOM     19  O10 UNL     1       4.651  -2.069  -3.876 +0.00 -0.00    -0.479 OA 
DOCKED: ATOM     20  H46 UNL     1       4.372  -2.531  -3.057 +0.00 +0.00    +0.295 HD 
DOCKED: ENDBRANCH  17  19
DOCKED: ENDBRANCH  16  17
DOCKED: BRANCH  16  21
DOCKED: ATOM     21  C28 UNL     1       7.737  -1.197  -2.087 +0.00 +0.00    +0.069 C  
DOCKED: BRANCH  21  22
DOCKED: ATOM     22  C29 UNL     1       7.212  -1.206  -0.671 +0.00 -0.00    -0.045 A  
DOCKED: ATOM     23  C30 UNL     1       7.935  -1.837   0.352 +0.00 +0.00    +0.004 A  
DOCKED: ATOM     24  C31 UNL     1       7.448  -1.845   1.661 +0.00 +0.00    +0.000 A  
DOCKED: ATOM     25  C32 UNL     1       6.237  -1.223   1.960 +0.00 +0.00    +0.000 A  
DOCKED: ATOM     26  C33 UNL     1       5.512  -0.590   0.954 +0.00 +0.00    +0.000 A  
DOCKED: ATOM     27  C34 UNL     1       5.996  -0.581  -0.356 +0.00 +0.00    +0.004 A  
DOCKED: ENDBRANCH  21  22
DOCKED: ENDBRANCH  16  21
DOCKED: ENDBRANCH  14  16
DOCKED: ENDBRANCH  11  12
DOCKED: BRANCH  11  28
DOCKED: ATOM     28  C23 UNL     1       6.239  -5.154   0.118 +0.00 +0.00    +0.043 C  
DOCKED: BRANCH  28  29
DOCKED: ATOM     29  C24 UNL     1       5.314  -3.940   0.164 +0.00 +0.00    +0.123 C  
DOCKED: BRANCH  29  30
DOCKED: ATOM     30  C25 UNL     1       4.067  -4.183  -0.644 +0.00 +0.00    +0.305 C  
DOCKED: ATOM     31  O6  UNL     1       3.200  -5.013  -0.426 +0.00 -0.00    -0.251 OA 
DOCKED: BRANCH  30  32
DOCKED: ATOM     32  O7  UNL     1       3.980  -3.353  -1.695 +0.00 -0.00    -0.481 OA 
DOCKED: ATOM     33  H36 UNL     1       4.353  -2.511  -1.360 +0.00 +0.00    +0.295 HD 
DOCKED: ENDBRANCH  30  32
DOCKED: ENDBRANCH  29  30
DOCKED: ENDBRANCH  28  29
DOCKED: ENDBRANCH  11  28
DOCKED: ENDBRANCH   9  11
DOCKED: ENDBRANCH   5   7
DOCKED: ENDBRANCH   3   5
DOCKED: BRANCH   1  34
DOCKED: ATOM     34  C17 UNL     1       1.362  -4.094  -3.333 +0.00 +0.00    +0.161 C  
DOCKED: BRANCH  34  37
DOCKED: ATOM     35  C16 UNL     1       1.062  -1.656  -3.190 +0.00 +0.00    +0.216 C  
DOCKED: ATOM     36  O3  UNL     1      -0.122  -1.714  -3.517 +0.00 -0.00    -0.276 OA 
DOCKED: ATOM     37  N2  UNL     1       1.839  -2.769  -2.949 +0.00 -0.00    -0.304 N  
DOCKED: ATOM     38  H23 UNL     1       2.840  -2.625  -3.072 +0.00 +0.00    +0.149 HD 
DOCKED: BRANCH  35  39
DOCKED: ATOM     39  C15 UNL     1       1.801  -0.340  -3.087 +0.00 +0.00    +0.129 C  
DOCKED: BRANCH  39  40
DOCKED: ATOM     40  C14 UNL     1       2.405  -0.233  -1.684 +0.00 +0.00    +0.143 C  
DOCKED: BRANCH  40  41
DOCKED: ATOM     41  O2  UNL     1       3.554  -1.087  -1.646 +0.00 -0.00    -0.389 OA 
DOCKED: ATOM     42  H20 UNL     1       3.843  -1.216  -2.568 +0.00 +0.00    +0.210 HD 
DOCKED: ENDBRANCH  40  41
DOCKED: BRANCH  40  43
DOCKED: ATOM     43  C5  UNL     1       1.409  -0.589  -0.542 +0.00 +0.00    +0.102 C  
DOCKED: BRANCH  43  44
DOCKED: ATOM     44  N1  UNL     1       1.777  -1.862   0.088 +0.00 -0.00    -0.310 N  
DOCKED: ATOM     45  C6  UNL     1       0.993  -2.454   1.068 +0.00 +0.00    +0.218 C  
DOCKED: ATOM     46  O1  UNL     1      -0.024  -1.924   1.508 +0.00 -0.00    -0.275 OA 
DOCKED: ATOM     47  H11 UNL     1       2.475  -2.437  -0.367 +0.00 +0.00    +0.149 HD 
DOCKED: BRANCH  45  48
DOCKED: ATOM     48  C7  UNL     1       1.512  -3.821   1.486 +0.00 +0.00    +0.130 C  
DOCKED: BRANCH  48  49
DOCKED: ATOM     49  C8  UNL     1       2.666  -3.800   2.459 +0.00 -0.00    -0.039 A  
DOCKED: ATOM     50  C9  UNL     1       3.029  -2.617   3.122 +0.00 +0.00    +0.004 A  
DOCKED: ATOM     51  C10 UNL     1       4.108  -2.611   4.011 +0.00 +0.00    +0.000 A  
DOCKED: ATOM     52  C11 UNL     1       4.822  -3.785   4.256 +0.00 +0.00    +0.000 A  
DOCKED: ATOM     53  C12 UNL     1       4.459  -4.965   3.609 +0.00 +0.00    +0.000 A  
DOCKED: ATOM     54  C13 UNL     1       3.386  -4.976   2.716 +0.00 +0.00    +0.004 A  
DOCKED: ENDBRANCH  48  49
DOCKED: ENDBRANCH  45  48
DOCKED: ENDBRANCH  43  44
DOCKED: BRANCH  43  55
DOCKED: ATOM     55  C4  UNL     1       1.230   0.482   0.565 +0.00 +0.00    +0.028 C  
DOCKED: BRANCH  55  57
DOCKED: ATOM     56  C1  UNL     1       2.061   0.702   2.945 +0.00 +0.00    +0.007 C  
DOCKED: ATOM     57  C2  UNL     1       2.470   0.655   1.469 +0.00 -0.00    -0.015 C  
DOCKED: ATOM     58  C3  UNL     1       3.246   1.937   1.111 +0.00 +0.00    +0.007 C  
DOCKED: ENDBRANCH  55  57
DOCKED: ENDBRANCH  43  55
DOCKED: ENDBRANCH  40  43
DOCKED: ENDBRANCH  39  40
DOCKED: ENDBRANCH  35  39
DOCKED: ENDBRANCH  34  37
DOCKED: BRANCH  34  59
DOCKED: ATOM     59  C36 UNL     1       1.110  -5.023  -2.129 +0.00 +0.00    +0.012 C  
DOCKED: ATOM     60  C37 UNL     1       0.994  -6.479  -2.594 +0.00 +0.00    +0.009 C  
DOCKED: ATOM     61  C38 UNL     1      -0.128  -4.636  -1.311 +0.00 +0.00    +0.009 C  
DOCKED: ENDBRANCH  34  59
DOCKED: ENDBRANCH   1  34
DOCKED: TORSDOF 25
DOCKED: TER
DOCKED: ENDMDL
________________________________________________________________________________


    FINAL DOCKED STATE:
    ________________________


Run:   14 / 20
Time taken for this run:   3.208s

DOCKED: MODEL        14
DOCKED: USER    Run = 14
DOCKED: USER
DOCKED: USER    Estimated Free Energy of Binding    =  +7.46 kcal/mol  [=(1)+(2)+(3)-(4)]
DOCKED: USER
DOCKED: USER    (1) Final Intermolecular Energy     =  +0.00 kcal/mol
DOCKED: USER        vdW + Hbond + desolv Energy     =  +0.00 kcal/mol
DOCKED: USER        Electrostatic Energy            =  +0.00 kcal/mol
DOCKED: USER        Moving Ligand-Fixed Receptor    =  +0.00 kcal/mol
DOCKED: USER        Moving Ligand-Moving Receptor   =  +0.00 kcal/mol
DOCKED: USER    (2) Final Total Internal Energy     = -20.35 kcal/mol
DOCKED: USER    (3) Torsional Free Energy           =  +7.46 kcal/mol
DOCKED: USER    (4) Unbound System's Energy         = -20.35 kcal/mol
DOCKED: USER
DOCKED: USER
DOCKED: REMARK  Name = ligands/ligand_29.pdb
DOCKED: REMARK  30 active torsions:
DOCKED: REMARK  status: ('A' for Active; 'I' for Inactive)
DOCKED: REMARK    1  A    between atoms: C1_1  and  C2_2
DOCKED: REMARK    2  A    between atoms: C2_2  and  C3_3
DOCKED: REMARK    3  A    between atoms: C2_2  and  C4_4
DOCKED: REMARK    4  A    between atoms: C4_4  and  C5_5
DOCKED: REMARK    5  A    between atoms: C5_5  and  N1_6
DOCKED: REMARK    6  A    between atoms: C5_5  and  C14_16
DOCKED: REMARK    7  A    between atoms: C6_7  and  C7_9
DOCKED: REMARK    8  A    between atoms: C7_9  and  C8_10
DOCKED: REMARK    9  A    between atoms: C14_16  and  O2_17
DOCKED: REMARK   10  A    between atoms: C14_16  and  C15_18
DOCKED: REMARK   11  A    between atoms: C15_18  and  C16_19
DOCKED: REMARK   12  A    between atoms: N2_21  and  C17_22
DOCKED: REMARK   13  A    between atoms: C17_22  and  C18_23
DOCKED: REMARK   14  A    between atoms: C17_22  and  C36_51
DOCKED: REMARK   15  A    between atoms: N3_25  and  C19_26
DOCKED: REMARK   16  A    between atoms: C19_26  and  C20_27
DOCKED: REMARK   17  A    between atoms: C19_26  and  C21_28
DOCKED: REMARK   18  A    between atoms: N4_30  and  C22_31
DOCKED: REMARK   19  A    between atoms: C22_31  and  C23_32
DOCKED: REMARK   20  A    between atoms: C22_31  and  C26_37
DOCKED: REMARK   21  A    between atoms: C23_32  and  C24_33
DOCKED: REMARK   22  A    between atoms: C24_33  and  C25_34
DOCKED: REMARK   23  A    between atoms: C25_34  and  O7_36
DOCKED: REMARK   24  A    between atoms: N5_39  and  C27_40
DOCKED: REMARK   25  A    between atoms: C27_40  and  C28_41
DOCKED: REMARK   26  A    between atoms: C27_40  and  C35_48
DOCKED: REMARK   27  A    between atoms: C28_41  and  C29_42
DOCKED: REMARK   28  A    between atoms: C35_48  and  O10_50
DOCKED: REMARK   29  A    between atoms: C36_51  and  C37_52
DOCKED: REMARK   30  A    between atoms: C36_51  and  C38_53
DOCKED: REMARK                            x       y       z     vdW  Elec       q    Type
DOCKED: REMARK                         _______ _______ _______ _____ _____    ______ ____
DOCKED: USER                              x       y       z     vdW  Elec       q    Type
DOCKED: USER                           _______ _______ _______ _____ _____    ______ ____
DOCKED: ROOT
DOCKED: ATOM      1  C18 UNL     1       9.771  -4.937   3.893 +0.00 +0.00    +0.234 C  
DOCKED: ATOM      2  O4  UNL     1      10.651  -4.433   3.198 +0.00 -0.00    -0.274 OA 
DOCKED: ATOM      3  N3  UNL     1      10.018  -5.486   5.127 +0.00 -0.00    -0.303 N  
DOCKED: ATOM      4  H25 UNL     1       9.279  -5.953   5.643 +0.00 +0.00    +0.149 HD 
DOCKED: ENDROOT
DOCKED: BRANCH   3   5
DOCKED: ATOM      5  C19 UNL     1      11.363  -5.627   5.672 +0.00 +0.00    +0.156 C  
DOCKED: ATOM      6  C20 UNL     1      11.419  -6.747   6.715 +0.00 +0.00    +0.038 C  
DOCKED: BRANCH   5   7
DOCKED: ATOM      7  C21 UNL     1      11.743  -4.264   6.297 +0.00 +0.00    +0.234 C  
DOCKED: ATOM      8  O5  UNL     1      12.683  -4.144   7.084 +0.00 -0.00    -0.274 OA 
DOCKED: ATOM      9  N4  UNL     1      10.961  -3.190   5.902 +0.00 -0.00    -0.302 N  
DOCKED: ATOM     10  H30 UNL     1      10.480  -3.296   5.016 +0.00 +0.00    +0.150 HD 
DOCKED: BRANCH   9  11
DOCKED: ATOM     11  C22 UNL     1      11.451  -1.838   6.160 +0.00 +0.00    +0.159 C  
DOCKED: BRANCH  11  12
DOCKED: ATOM     12  C26 UNL     1      12.733  -1.652   5.322 +0.00 +0.00    +0.234 C  
DOCKED: ATOM     13  O8  UNL     1      13.763  -1.185   5.797 +0.00 -0.00    -0.274 OA 
DOCKED: ATOM     14  N5  UNL     1      12.634  -2.089   4.019 +0.00 -0.00    -0.301 N  
DOCKED: ATOM     15  H37 UNL     1      11.919  -2.773   3.802 +0.00 +0.00    +0.150 HD 
DOCKED: BRANCH  14  16
DOCKED: ATOM     16  C27 UNL     1      13.801  -2.050   3.126 +0.00 +0.00    +0.186 C  
DOCKED: BRANCH  16  17
DOCKED: ATOM     17  C35 UNL     1      13.371  -2.678   1.804 +0.00 +0.00    +0.326 C  
DOCKED: ATOM     18  O9  UNL     1      14.124  -3.157   0.965 +0.00 -0.00    -0.249 OA 
DOCKED: BRANCH  17  19
DOCKED: ATOM     19  O10 UNL     1      12.041  -2.673   1.613 +0.00 -0.00    -0.479 OA 
DOCKED: ATOM     20  H46 UNL     1      11.685  -3.317   2.261 +0.00 +0.00    +0.295 HD 
DOCKED: ENDBRANCH  17  19
DOCKED: ENDBRANCH  16  17
DOCKED: BRANCH  16  21
DOCKED: ATOM     21  C28 UNL     1      14.231  -0.595   2.903 +0.00 +0.00    +0.069 C  
DOCKED: BRANCH  21  22
DOCKED: ATOM     22  C29 UNL     1      14.500  -0.241   1.460 +0.00 -0.00    -0.045 A  
DOCKED: ATOM     23  C30 UNL     1      13.458   0.196   0.628 +0.00 +0.00    +0.004 A  
DOCKED: ATOM     24  C31 UNL     1      13.708   0.522  -0.707 +0.00 +0.00    +0.000 A  
DOCKED: ATOM     25  C32 UNL     1      15.000   0.416  -1.222 +0.00 +0.00    +0.000 A  
DOCKED: ATOM     26  C33 UNL     1      16.042  -0.013  -0.405 +0.00 +0.00    +0.000 A  
DOCKED: ATOM     27  C34 UNL     1      15.795  -0.341   0.930 +0.00 +0.00    +0.004 A  
DOCKED: ENDBRANCH  21  22
DOCKED: ENDBRANCH  16  21
DOCKED: ENDBRANCH  14  16
DOCKED: ENDBRANCH  11  12
DOCKED: BRANCH  11  28
DOCKED: ATOM     28  C23 UNL     1      10.431  -0.768   5.757 +0.00 +0.00    +0.043 C  
DOCKED: BRANCH  28  29
DOCKED: ATOM     29  C24 UNL     1       9.131  -1.382   5.242 +0.00 +0.00    +0.123 C  
DOCKED: BRANCH  29  30
DOCKED: ATOM     30  C25 UNL     1       9.165  -1.533   3.745 +0.00 +0.00    +0.305 C  
DOCKED: ATOM     31  O6  UNL     1       8.259  -1.296   2.961 +0.00 -0.00    -0.251 OA 
DOCKED: BRANCH  30  32
DOCKED: ATOM     32  O7  UNL     1      10.354  -1.979   3.311 +0.00 -0.00    -0.481 OA 
DOCKED: ATOM     33  H36 UNL     1      10.129  -2.785   2.802 +0.00 +0.00    +0.295 HD 
DOCKED: ENDBRANCH  30  32
DOCKED: ENDBRANCH  29  30
DOCKED: ENDBRANCH  28  29
DOCKED: ENDBRANCH  11  28
DOCKED: ENDBRANCH   9  11
DOCKED: ENDBRANCH   5   7
DOCKED: ENDBRANCH   3   5
DOCKED: BRANCH   1  34
DOCKED: ATOM     34  C17 UNL     1       8.285  -4.938   3.470 +0.00 +0.00    +0.161 C  
DOCKED: BRANCH  34  37
DOCKED: ATOM     35  C16 UNL     1       7.679  -4.341   1.161 +0.00 +0.00    +0.216 C  
DOCKED: ATOM     36  O3  UNL     1       7.210  -5.451   0.924 +0.00 -0.00    -0.276 OA 
DOCKED: ATOM     37  N2  UNL     1       8.112  -3.950   2.411 +0.00 -0.00    -0.304 N  
DOCKED: ATOM     38  H23 UNL     1       8.807  -3.204   2.406 +0.00 +0.00    +0.149 HD 
DOCKED: BRANCH  35  39
DOCKED: ATOM     39  C15 UNL     1       7.887  -3.310   0.073 +0.00 +0.00    +0.129 C  
DOCKED: BRANCH  39  40
DOCKED: ATOM     40  C14 UNL     1       9.387  -3.222  -0.228 +0.00 +0.00    +0.143 C  
DOCKED: BRANCH  40  41
DOCKED: ATOM     41  O2  UNL     1      10.082  -3.781   0.893 +0.00 -0.00    -0.389 OA 
DOCKED: ATOM     42  H20 UNL     1      10.434  -3.034   1.411 +0.00 +0.00    +0.210 HD 
DOCKED: ENDBRANCH  40  41
DOCKED: BRANCH  40  43
DOCKED: ATOM     43  C5  UNL     1       9.884  -1.777  -0.527 +0.00 +0.00    +0.102 C  
DOCKED: BRANCH  43  44
DOCKED: ATOM     44  N1  UNL     1      10.075  -1.027   0.719 +0.00 -0.00    -0.310 N  
DOCKED: ATOM     45  C6  UNL     1       9.893   0.347   0.788 +0.00 +0.00    +0.218 C  
DOCKED: ATOM     46  O1  UNL     1       9.616   1.026  -0.198 +0.00 -0.00    -0.275 OA 
DOCKED: ATOM     47  H11 UNL     1      10.098  -1.543   1.590 +0.00 +0.00    +0.149 HD 
DOCKED: BRANCH  45  48
DOCKED: ATOM     48  C7  UNL     1      10.032   0.885   2.204 +0.00 +0.00    +0.130 C  
DOCKED: BRANCH  48  49
DOCKED: ATOM     49  C8  UNL     1      11.249   1.744   2.448 +0.00 -0.00    -0.039 A  
DOCKED: ATOM     50  C9  UNL     1      11.999   1.614   3.627 +0.00 +0.00    +0.004 A  
DOCKED: ATOM     51  C10 UNL     1      13.117   2.425   3.843 +0.00 +0.00    +0.000 A  
DOCKED: ATOM     52  C11 UNL     1      13.502   3.361   2.882 +0.00 +0.00    +0.000 A  
DOCKED: ATOM     53  C12 UNL     1      12.767   3.487   1.705 +0.00 +0.00    +0.000 A  
DOCKED: ATOM     54  C13 UNL     1      11.647   2.683   1.485 +0.00 +0.00    +0.004 A  
DOCKED: ENDBRANCH  48  49
DOCKED: ENDBRANCH  45  48
DOCKED: ENDBRANCH  43  44
DOCKED: BRANCH  43  55
DOCKED: ATOM     55  C4  UNL     1      11.172  -1.663  -1.381 +0.00 +0.00    +0.028 C  
DOCKED: BRANCH  55  57
DOCKED: ATOM     56  C1  UNL     1      13.338  -2.869  -1.891 +0.00 +0.00    +0.007 C  
DOCKED: ATOM     57  C2  UNL     1      11.825  -3.025  -1.708 +0.00 -0.00    -0.015 C  
DOCKED: ATOM     58  C3  UNL     1      11.215  -3.642  -2.981 +0.00 +0.00    +0.007 C  
DOCKED: ENDBRANCH  55  57
DOCKED: ENDBRANCH  43  55
DOCKED: ENDBRANCH  40  43
DOCKED: ENDBRANCH  39  40
DOCKED: ENDBRANCH  35  39
DOCKED: ENDBRANCH  34  37
DOCKED: BRANCH  34  59
DOCKED: ATOM     59  C36 UNL     1       7.368  -4.696   4.685 +0.00 +0.00    +0.012 C  
DOCKED: ATOM     60  C37 UNL     1       6.616  -5.980   5.051 +0.00 +0.00    +0.009 C  
DOCKED: ATOM     61  C38 UNL     1       6.372  -3.548   4.475 +0.00 +0.00    +0.009 C  
DOCKED: ENDBRANCH  34  59
DOCKED: ENDBRANCH   1  34
DOCKED: TORSDOF 25
DOCKED: TER
DOCKED: ENDMDL
________________________________________________________________________________


    FINAL DOCKED STATE:
    ________________________


Run:   15 / 20
Time taken for this run:   3.208s

DOCKED: MODEL        15
DOCKED: USER    Run = 15
DOCKED: USER
DOCKED: USER    Estimated Free Energy of Binding    =  +7.46 kcal/mol  [=(1)+(2)+(3)-(4)]
DOCKED: USER
DOCKED: USER    (1) Final Intermolecular Energy     =  +0.00 kcal/mol
DOCKED: USER        vdW + Hbond + desolv Energy     =  +0.00 kcal/mol
DOCKED: USER        Electrostatic Energy            =  +0.00 kcal/mol
DOCKED: USER        Moving Ligand-Fixed Receptor    =  +0.00 kcal/mol
DOCKED: USER        Moving Ligand-Moving Receptor   =  +0.00 kcal/mol
DOCKED: USER    (2) Final Total Internal Energy     = -20.27 kcal/mol
DOCKED: USER    (3) Torsional Free Energy           =  +7.46 kcal/mol
DOCKED: USER    (4) Unbound System's Energy         = -20.27 kcal/mol
DOCKED: USER
DOCKED: USER
DOCKED: REMARK  Name = ligands/ligand_29.pdb
DOCKED: REMARK  30 active torsions:
DOCKED: REMARK  status: ('A' for Active; 'I' for Inactive)
DOCKED: REMARK    1  A    between atoms: C1_1  and  C2_2
DOCKED: REMARK    2  A    between atoms: C2_2  and  C3_3
DOCKED: REMARK    3  A    between atoms: C2_2  and  C4_4
DOCKED: REMARK    4  A    between atoms: C4_4  and  C5_5
DOCKED: REMARK    5  A    between atoms: C5_5  and  N1_6
DOCKED: REMARK    6  A    between atoms: C5_5  and  C14_16
DOCKED: REMARK    7  A    between atoms: C6_7  and  C7_9
DOCKED: REMARK    8  A    between atoms: C7_9  and  C8_10
DOCKED: REMARK    9  A    between atoms: C14_16  and  O2_17
DOCKED: REMARK   10  A    between atoms: C14_16  and  C15_18
DOCKED: REMARK   11  A    between atoms: C15_18  and  C16_19
DOCKED: REMARK   12  A    between atoms: N2_21  and  C17_22
DOCKED: REMARK   13  A    between atoms: C17_22  and  C18_23
DOCKED: REMARK   14  A    between atoms: C17_22  and  C36_51
DOCKED: REMARK   15  A    between atoms: N3_25  and  C19_26
DOCKED: REMARK   16  A    between atoms: C19_26  and  C20_27
DOCKED: REMARK   17  A    between atoms: C19_26  and  C21_28
DOCKED: REMARK   18  A    between atoms: N4_30  and  C22_31
DOCKED: REMARK   19  A    between atoms: C22_31  and  C23_32
DOCKED: REMARK   20  A    between atoms: C22_31  and  C26_37
DOCKED: REMARK   21  A    between atoms: C23_32  and  C24_33
DOCKED: REMARK   22  A    between atoms: C24_33  and  C25_34
DOCKED: REMARK   23  A    between atoms: C25_34  and  O7_36
DOCKED: REMARK   24  A    between atoms: N5_39  and  C27_40
DOCKED: REMARK   25  A    between atoms: C27_40  and  C28_41
DOCKED: REMARK   26  A    between atoms: C27_40  and  C35_48
DOCKED: REMARK   27  A    between atoms: C28_41  and  C29_42
DOCKED: REMARK   28  A    between atoms: C35_48  and  O10_50
DOCKED: REMARK   29  A    between atoms: C36_51  and  C37_52
DOCKED: REMARK   30  A    between atoms: C36_51  and  C38_53
DOCKED: REMARK                            x       y       z     vdW  Elec       q    Type
DOCKED: REMARK                         _______ _______ _______ _____ _____    ______ ____
DOCKED: USER                              x       y       z     vdW  Elec       q    Type
DOCKED: USER                           _______ _______ _______ _____ _____    ______ ____
DOCKED: ROOT
DOCKED: ATOM      1  C18 UNL     1       6.670  -7.548  -0.928 +0.00 +0.00    +0.234 C  
DOCKED: ATOM      2  O4  UNL     1       7.298  -8.362  -1.602 +0.00 -0.00    -0.274 OA 
DOCKED: ATOM      3  N3  UNL     1       7.124  -6.276  -0.679 +0.00 -0.00    -0.303 N  
DOCKED: ATOM      4  H25 UNL     1       6.610  -5.655  -0.063 +0.00 +0.00    +0.149 HD 
DOCKED: ENDROOT
DOCKED: BRANCH   3   5
DOCKED: ATOM      5  C19 UNL     1       8.445  -5.817  -1.091 +0.00 +0.00    +0.156 C  
DOCKED: ATOM      6  C20 UNL     1       8.923  -4.658  -0.212 +0.00 +0.00    +0.038 C  
DOCKED: BRANCH   5   7
DOCKED: ATOM      7  C21 UNL     1       8.331  -5.382  -2.572 +0.00 +0.00    +0.234 C  
DOCKED: ATOM      8  O5  UNL     1       9.163  -4.646  -3.103 +0.00 -0.00    -0.274 OA 
DOCKED: ATOM      9  N4  UNL     1       7.237  -5.887  -3.257 +0.00 -0.00    -0.302 N  
DOCKED: ATOM     10  H30 UNL     1       6.834  -6.738  -2.880 +0.00 +0.00    +0.150 HD 
DOCKED: BRANCH   9  11
DOCKED: ATOM     11  C22 UNL     1       7.236  -5.819  -4.717 +0.00 +0.00    +0.159 C  
DOCKED: BRANCH  11  12
DOCKED: ATOM     12  C26 UNL     1       8.384  -6.721  -5.215 +0.00 +0.00    +0.234 C  
DOCKED: ATOM     13  O8  UNL     1       9.134  -6.383  -6.124 +0.00 -0.00    -0.274 OA 
DOCKED: ATOM     14  N5  UNL     1       8.516  -7.909  -4.530 +0.00 -0.00    -0.301 N  
DOCKED: ATOM     15  H37 UNL     1       8.129  -7.963  -3.596 +0.00 +0.00    +0.150 HD 
DOCKED: BRANCH  14  16
DOCKED: ATOM     16  C27 UNL     1       9.617  -8.833  -4.841 +0.00 +0.00    +0.186 C  
DOCKED: BRANCH  16  17
DOCKED: ATOM     17  C35 UNL     1       9.412 -10.075  -3.978 +0.00 +0.00    +0.326 C  
DOCKED: ATOM     18  O9  UNL     1      10.283 -10.882  -3.674 +0.00 -0.00    -0.249 OA 
DOCKED: BRANCH  17  19
DOCKED: ATOM     19  O10 UNL     1       8.148 -10.230  -3.549 +0.00 -0.00    -0.479 OA 
DOCKED: ATOM     20  H46 UNL     1       8.026  -9.548  -2.855 +0.00 +0.00    +0.295 HD 
DOCKED: ENDBRANCH  17  19
DOCKED: ENDBRANCH  16  17
DOCKED: BRANCH  16  21
DOCKED: ATOM     21  C28 UNL     1       9.569  -9.209  -6.326 +0.00 +0.00    +0.069 C  
DOCKED: BRANCH  21  22
DOCKED: ATOM     22  C29 UNL     1      10.488 -10.345  -6.708 +0.00 -0.00    -0.045 A  
DOCKED: ATOM     23  C30 UNL     1      10.025 -11.670  -6.697 +0.00 +0.00    +0.004 A  
DOCKED: ATOM     24  C31 UNL     1      10.875 -12.720  -7.050 +0.00 +0.00    +0.000 A  
DOCKED: ATOM     25  C32 UNL     1      12.195 -12.457  -7.418 +0.00 +0.00    +0.000 A  
DOCKED: ATOM     26  C33 UNL     1      12.664 -11.146  -7.437 +0.00 +0.00    +0.000 A  
DOCKED: ATOM     27  C34 UNL     1      11.816 -10.095  -7.083 +0.00 +0.00    +0.004 A  
DOCKED: ENDBRANCH  21  22
DOCKED: ENDBRANCH  16  21
DOCKED: ENDBRANCH  14  16
DOCKED: ENDBRANCH  11  12
DOCKED: BRANCH  11  28
DOCKED: ATOM     28  C23 UNL     1       5.916  -6.312  -5.316 +0.00 +0.00    +0.043 C  
DOCKED: BRANCH  28  29
DOCKED: ATOM     29  C24 UNL     1       4.929  -6.757  -4.239 +0.00 +0.00    +0.123 C  
DOCKED: BRANCH  29  30
DOCKED: ATOM     30  C25 UNL     1       5.065  -8.230  -3.961 +0.00 +0.00    +0.305 C  
DOCKED: ATOM     31  O6  UNL     1       4.162  -9.037  -3.811 +0.00 -0.00    -0.251 OA 
DOCKED: BRANCH  30  32
DOCKED: ATOM     32  O7  UNL     1       6.350  -8.611  -3.890 +0.00 -0.00    -0.481 OA 
DOCKED: ATOM     33  H36 UNL     1       6.484  -8.803  -2.938 +0.00 +0.00    +0.295 HD 
DOCKED: ENDBRANCH  30  32
DOCKED: ENDBRANCH  29  30
DOCKED: ENDBRANCH  28  29
DOCKED: ENDBRANCH  11  28
DOCKED: ENDBRANCH   9  11
DOCKED: ENDBRANCH   5   7
DOCKED: ENDBRANCH   3   5
DOCKED: BRANCH   1  34
DOCKED: ATOM     34  C17 UNL     1       5.270  -7.859  -0.352 +0.00 +0.00    +0.161 C  
DOCKED: BRANCH  34  37
DOCKED: ATOM     35  C16 UNL     1       4.363 -10.141  -0.519 +0.00 +0.00    +0.216 C  
DOCKED: ATOM     36  O3  UNL     1       4.324 -10.288   0.700 +0.00 -0.00    -0.276 OA 
DOCKED: ATOM     37  N2  UNL     1       4.689  -8.948  -1.130 +0.00 -0.00    -0.304 N  
DOCKED: ATOM     38  H23 UNL     1       5.060  -9.041  -2.075 +0.00 +0.00    +0.149 HD 
DOCKED: BRANCH  35  39
DOCKED: ATOM     39  C15 UNL     1       4.120 -11.289  -1.473 +0.00 +0.00    +0.129 C  
DOCKED: BRANCH  39  40
DOCKED: ATOM     40  C14 UNL     1       5.470 -11.747  -2.034 +0.00 +0.00    +0.143 C  
DOCKED: BRANCH  40  41
DOCKED: ATOM     41  O2  UNL     1       6.375 -10.642  -1.926 +0.00 -0.00    -0.389 OA 
DOCKED: ATOM     42  H20 UNL     1       6.173 -10.036  -2.662 +0.00 +0.00    +0.210 HD 
DOCKED: ENDBRANCH  40  41
DOCKED: BRANCH  40  43
DOCKED: ATOM     43  C5  UNL     1       5.398 -12.267  -3.499 +0.00 +0.00    +0.102 C  
DOCKED: BRANCH  43  44
DOCKED: ATOM     44  N1  UNL     1       5.740 -11.199  -4.445 +0.00 -0.00    -0.310 N  
DOCKED: ATOM     45  C6  UNL     1       5.355 -11.243  -5.778 +0.00 +0.00    +0.218 C  
DOCKED: ATOM     46  O1  UNL     1       4.754 -12.200  -6.260 +0.00 -0.00    -0.275 OA 
DOCKED: ATOM     47  H11 UNL     1       6.044 -10.309  -4.072 +0.00 +0.00    +0.149 HD 
DOCKED: BRANCH  45  48
DOCKED: ATOM     48  C7  UNL     1       5.720  -9.975  -6.534 +0.00 +0.00    +0.130 C  
DOCKED: BRANCH  48  49
DOCKED: ATOM     49  C8  UNL     1       6.648 -10.172  -7.708 +0.00 -0.00    -0.039 A  
DOCKED: ATOM     50  C9  UNL     1       7.034 -11.460  -8.115 +0.00 +0.00    +0.004 A  
DOCKED: ATOM     51  C10 UNL     1       7.904 -11.625  -9.196 +0.00 +0.00    +0.000 A  
DOCKED: ATOM     52  C11 UNL     1       8.385 -10.512  -9.887 +0.00 +0.00    +0.000 A  
DOCKED: ATOM     53  C12 UNL     1       7.998  -9.232  -9.493 +0.00 +0.00    +0.000 A  
DOCKED: ATOM     54  C13 UNL     1       7.133  -9.060  -8.411 +0.00 +0.00    +0.004 A  
DOCKED: ENDBRANCH  48  49
DOCKED: ENDBRANCH  45  48
DOCKED: ENDBRANCH  43  44
DOCKED: BRANCH  43  55
DOCKED: ATOM     55  C4  UNL     1       6.259 -13.515  -3.822 +0.00 +0.00    +0.028 C  
DOCKED: BRANCH  55  57
DOCKED: ATOM     56  C1  UNL     1       7.864 -13.963  -5.727 +0.00 +0.00    +0.007 C  
DOCKED: ATOM     57  C2  UNL     1       7.639 -13.178  -4.431 +0.00 -0.00    -0.015 C  
DOCKED: ATOM     58  C3  UNL     1       8.775 -13.488  -3.439 +0.00 +0.00    +0.007 C  
DOCKED: ENDBRANCH  55  57
DOCKED: ENDBRANCH  43  55
DOCKED: ENDBRANCH  40  43
DOCKED: ENDBRANCH  39  40
DOCKED: ENDBRANCH  35  39
DOCKED: ENDBRANCH  34  37
DOCKED: BRANCH  34  59
DOCKED: ATOM     59  C36 UNL     1       4.393  -6.592  -0.327 +0.00 +0.00    +0.012 C  
DOCKED: ATOM     60  C37 UNL     1       3.908  -6.306   1.098 +0.00 +0.00    +0.009 C  
DOCKED: ATOM     61  C38 UNL     1       3.195  -6.665  -1.282 +0.00 +0.00    +0.009 C  
DOCKED: ENDBRANCH  34  59
DOCKED: ENDBRANCH   1  34
DOCKED: TORSDOF 25
DOCKED: TER
DOCKED: ENDMDL
________________________________________________________________________________


    FINAL DOCKED STATE:
    ________________________


Run:   16 / 20
Time taken for this run:   3.208s

DOCKED: MODEL        16
DOCKED: USER    Run = 16
DOCKED: USER
DOCKED: USER    Estimated Free Energy of Binding    =  +7.46 kcal/mol  [=(1)+(2)+(3)-(4)]
DOCKED: USER
DOCKED: USER    (1) Final Intermolecular Energy     =  +0.00 kcal/mol
DOCKED: USER        vdW + Hbond + desolv Energy     =  +0.00 kcal/mol
DOCKED: USER        Electrostatic Energy            =  +0.00 kcal/mol
DOCKED: USER        Moving Ligand-Fixed Receptor    =  +0.00 kcal/mol
DOCKED: USER        Moving Ligand-Moving Receptor   =  +0.00 kcal/mol
DOCKED: USER    (2) Final Total Internal Energy     = -19.48 kcal/mol
DOCKED: USER    (3) Torsional Free Energy           =  +7.46 kcal/mol
DOCKED: USER    (4) Unbound System's Energy         = -19.48 kcal/mol
DOCKED: USER
DOCKED: USER
DOCKED: REMARK  Name = ligands/ligand_29.pdb
DOCKED: REMARK  30 active torsions:
DOCKED: REMARK  status: ('A' for Active; 'I' for Inactive)
DOCKED: REMARK    1  A    between atoms: C1_1  and  C2_2
DOCKED: REMARK    2  A    between atoms: C2_2  and  C3_3
DOCKED: REMARK    3  A    between atoms: C2_2  and  C4_4
DOCKED: REMARK    4  A    between atoms: C4_4  and  C5_5
DOCKED: REMARK    5  A    between atoms: C5_5  and  N1_6
DOCKED: REMARK    6  A    between atoms: C5_5  and  C14_16
DOCKED: REMARK    7  A    between atoms: C6_7  and  C7_9
DOCKED: REMARK    8  A    between atoms: C7_9  and  C8_10
DOCKED: REMARK    9  A    between atoms: C14_16  and  O2_17
DOCKED: REMARK   10  A    between atoms: C14_16  and  C15_18
DOCKED: REMARK   11  A    between atoms: C15_18  and  C16_19
DOCKED: REMARK   12  A    between atoms: N2_21  and  C17_22
DOCKED: REMARK   13  A    between atoms: C17_22  and  C18_23
DOCKED: REMARK   14  A    between atoms: C17_22  and  C36_51
DOCKED: REMARK   15  A    between atoms: N3_25  and  C19_26
DOCKED: REMARK   16  A    between atoms: C19_26  and  C20_27
DOCKED: REMARK   17  A    between atoms: C19_26  and  C21_28
DOCKED: REMARK   18  A    between atoms: N4_30  and  C22_31
DOCKED: REMARK   19  A    between atoms: C22_31  and  C23_32
DOCKED: REMARK   20  A    between atoms: C22_31  and  C26_37
DOCKED: REMARK   21  A    between atoms: C23_32  and  C24_33
DOCKED: REMARK   22  A    between atoms: C24_33  and  C25_34
DOCKED: REMARK   23  A    between atoms: C25_34  and  O7_36
DOCKED: REMARK   24  A    between atoms: N5_39  and  C27_40
DOCKED: REMARK   25  A    between atoms: C27_40  and  C28_41
DOCKED: REMARK   26  A    between atoms: C27_40  and  C35_48
DOCKED: REMARK   27  A    between atoms: C28_41  and  C29_42
DOCKED: REMARK   28  A    between atoms: C35_48  and  O10_50
DOCKED: REMARK   29  A    between atoms: C36_51  and  C37_52
DOCKED: REMARK   30  A    between atoms: C36_51  and  C38_53
DOCKED: REMARK                            x       y       z     vdW  Elec       q    Type
DOCKED: REMARK                         _______ _______ _______ _____ _____    ______ ____
DOCKED: USER                              x       y       z     vdW  Elec       q    Type
DOCKED: USER                           _______ _______ _______ _____ _____    ______ ____
DOCKED: ROOT
DOCKED: ATOM      1  C18 UNL     1      16.135   1.069  -2.961 +0.00 +0.00    +0.234 C  
DOCKED: ATOM      2  O4  UNL     1      15.105   0.821  -3.585 +0.00 -0.00    -0.274 OA 
DOCKED: ATOM      3  N3  UNL     1      17.293   0.346  -3.113 +0.00 -0.00    -0.303 N  
DOCKED: ATOM      4  H25 UNL     1      18.102   0.537  -2.531 +0.00 +0.00    +0.149 HD 
DOCKED: ENDROOT
DOCKED: BRANCH   3   5
DOCKED: ATOM      5  C19 UNL     1      17.369  -0.852  -3.940 +0.00 +0.00    +0.156 C  
DOCKED: ATOM      6  C20 UNL     1      16.939  -0.554  -5.379 +0.00 +0.00    +0.038 C  
DOCKED: BRANCH   5   7
DOCKED: ATOM      7  C21 UNL     1      16.446  -1.911  -3.291 +0.00 +0.00    +0.234 C  
DOCKED: ATOM      8  O5  UNL     1      16.814  -2.609  -2.345 +0.00 -0.00    -0.274 OA 
DOCKED: ATOM      9  N4  UNL     1      15.177  -2.010  -3.841 +0.00 -0.00    -0.302 N  
DOCKED: ATOM     10  H30 UNL     1      14.845  -1.189  -4.335 +0.00 +0.00    +0.150 HD 
DOCKED: BRANCH   9  11
DOCKED: ATOM     11  C22 UNL     1      14.144  -2.715  -3.087 +0.00 +0.00    +0.159 C  
DOCKED: BRANCH  11  12
DOCKED: ATOM     12  C26 UNL     1      13.701  -1.782  -1.941 +0.00 +0.00    +0.234 C  
DOCKED: ATOM     13  O8  UNL     1      13.858  -2.076  -0.760 +0.00 -0.00    -0.274 OA 
DOCKED: ATOM     14  N5  UNL     1      13.155  -0.587  -2.355 +0.00 -0.00    -0.301 N  
DOCKED: ATOM     15  H37 UNL     1      13.383  -0.259  -3.285 +0.00 +0.00    +0.150 HD 
DOCKED: BRANCH  14  16
DOCKED: ATOM     16  C27 UNL     1      12.762   0.435  -1.374 +0.00 +0.00    +0.186 C  
DOCKED: BRANCH  16  17
DOCKED: ATOM     17  C35 UNL     1      12.024   1.528  -2.141 +0.00 +0.00    +0.326 C  
DOCKED: ATOM     18  O9  UNL     1      11.036   2.134  -1.744 +0.00 -0.00    -0.249 OA 
DOCKED: BRANCH  17  19
DOCKED: ATOM     19  O10 UNL     1      12.559   1.796  -3.345 +0.00 -0.00    -0.479 OA 
DOCKED: ATOM     20  H46 UNL     1      12.956   0.951  -3.644 +0.00 +0.00    +0.295 HD 
DOCKED: ENDBRANCH  17  19
DOCKED: ENDBRANCH  16  17
DOCKED: BRANCH  16  21
DOCKED: ATOM     21  C28 UNL     1      11.836  -0.188  -0.322 +0.00 +0.00    +0.069 C  
DOCKED: BRANCH  21  22
DOCKED: ATOM     22  C29 UNL     1      12.307  -0.014   1.101 +0.00 -0.00    -0.045 A  
DOCKED: ATOM     23  C30 UNL     1      13.616   0.413   1.371 +0.00 +0.00    +0.004 A  
DOCKED: ATOM     24  C31 UNL     1      14.051   0.574   2.689 +0.00 +0.00    +0.000 A  
DOCKED: ATOM     25  C32 UNL     1      13.183   0.310   3.748 +0.00 +0.00    +0.000 A  
DOCKED: ATOM     26  C33 UNL     1      11.880  -0.111   3.493 +0.00 +0.00    +0.000 A  
DOCKED: ATOM     27  C34 UNL     1      11.443  -0.273   2.176 +0.00 +0.00    +0.004 A  
DOCKED: ENDBRANCH  21  22
DOCKED: ENDBRANCH  16  21
DOCKED: ENDBRANCH  14  16
DOCKED: ENDBRANCH  11  12
DOCKED: BRANCH  11  28
DOCKED: ATOM     28  C23 UNL     1      12.928  -3.055  -3.954 +0.00 +0.00    +0.043 C  
DOCKED: BRANCH  28  29
DOCKED: ATOM     29  C24 UNL     1      12.951  -2.313  -5.289 +0.00 +0.00    +0.123 C  
DOCKED: BRANCH  29  30
DOCKED: ATOM     30  C25 UNL     1      12.641  -0.853  -5.097 +0.00 +0.00    +0.305 C  
DOCKED: ATOM     31  O6  UNL     1      11.604  -0.371  -4.669 +0.00 -0.00    -0.251 OA 
DOCKED: BRANCH  30  32
DOCKED: ATOM     32  O7  UNL     1      13.669  -0.069  -5.459 +0.00 -0.00    -0.481 OA 
DOCKED: ATOM     33  H36 UNL     1      13.477   0.785  -5.019 +0.00 +0.00    +0.295 HD 
DOCKED: ENDBRANCH  30  32
DOCKED: ENDBRANCH  29  30
DOCKED: ENDBRANCH  28  29
DOCKED: ENDBRANCH  11  28
DOCKED: ENDBRANCH   9  11
DOCKED: ENDBRANCH   5   7
DOCKED: ENDBRANCH   3   5
DOCKED: BRANCH   1  34
DOCKED: ATOM     34  C17 UNL     1      16.244   2.266  -1.990 +0.00 +0.00    +0.161 C  
DOCKED: BRANCH  34  37
DOCKED: ATOM     35  C16 UNL     1      17.544   1.305  -0.135 +0.00 +0.00    +0.216 C  
DOCKED: ATOM     36  O3  UNL     1      18.621   1.523  -0.686 +0.00 -0.00    -0.276 OA 
DOCKED: ATOM     37  N2  UNL     1      16.334   1.743  -0.631 +0.00 -0.00    -0.304 N  
DOCKED: ATOM     38  H23 UNL     1      15.528   1.197  -0.330 +0.00 +0.00    +0.149 HD 
DOCKED: BRANCH  35  39
DOCKED: ATOM     39  C15 UNL     1      17.442   0.465   1.119 +0.00 +0.00    +0.129 C  
DOCKED: BRANCH  39  40
DOCKED: ATOM     40  C14 UNL     1      17.094  -0.971   0.714 +0.00 +0.00    +0.143 C  
DOCKED: BRANCH  40  41
DOCKED: ATOM     41  O2  UNL     1      15.986  -0.902  -0.192 +0.00 -0.00    -0.389 OA 
DOCKED: ATOM     42  H20 UNL     1      15.981  -1.735  -0.699 +0.00 +0.00    +0.210 HD 
DOCKED: ENDBRANCH  40  41
DOCKED: BRANCH  40  43
DOCKED: ATOM     43  C5  UNL     1      16.771  -1.903   1.918 +0.00 +0.00    +0.102 C  
DOCKED: BRANCH  43  44
DOCKED: ATOM     44  N1  UNL     1      15.364  -2.318   1.889 +0.00 -0.00    -0.310 N  
DOCKED: ATOM     45  C6  UNL     1      14.741  -2.890   2.989 +0.00 +0.00    +0.218 C  
DOCKED: ATOM     46  O1  UNL     1      15.341  -3.134   4.034 +0.00 -0.00    -0.275 OA 
DOCKED: ATOM     47  H11 UNL     1      14.775  -1.962   1.148 +0.00 +0.00    +0.149 HD 
DOCKED: BRANCH  45  48
DOCKED: ATOM     48  C7  UNL     1      13.257  -3.129   2.762 +0.00 +0.00    +0.130 C  
DOCKED: BRANCH  48  49
DOCKED: ATOM     49  C8  UNL     1      12.904  -3.773   1.443 +0.00 -0.00    -0.039 A  
DOCKED: ATOM     50  C9  UNL     1      13.780  -4.681   0.827 +0.00 +0.00    +0.004 A  
DOCKED: ATOM     51  C10 UNL     1      13.444  -5.259  -0.401 +0.00 +0.00    +0.000 A  
DOCKED: ATOM     52  C11 UNL     1      12.231  -4.947  -1.016 +0.00 +0.00    +0.000 A  
DOCKED: ATOM     53  C12 UNL     1      11.353  -4.053  -0.404 +0.00 +0.00    +0.000 A  
DOCKED: ATOM     54  C13 UNL     1      11.685  -3.469   0.820 +0.00 +0.00    +0.004 A  
DOCKED: ENDBRANCH  48  49
DOCKED: ENDBRANCH  45  48
DOCKED: ENDBRANCH  43  44
DOCKED: BRANCH  43  55
DOCKED: ATOM     55  C4  UNL     1      17.661  -3.164   2.061 +0.00 +0.00    +0.028 C  
DOCKED: BRANCH  55  57
DOCKED: ATOM     56  C1  UNL     1      17.376  -5.670   1.858 +0.00 +0.00    +0.007 C  
DOCKED: ATOM     57  C2  UNL     1      17.246  -4.326   1.133 +0.00 -0.00    -0.015 C  
DOCKED: ATOM     58  C3  UNL     1      18.103  -4.350  -0.147 +0.00 +0.00    +0.007 C  
DOCKED: ENDBRANCH  55  57
DOCKED: ENDBRANCH  43  55
DOCKED: ENDBRANCH  40  43
DOCKED: ENDBRANCH  39  40
DOCKED: ENDBRANCH  35  39
DOCKED: ENDBRANCH  34  37
DOCKED: BRANCH  34  59
DOCKED: ATOM     59  C36 UNL     1      15.070   3.244  -2.190 +0.00 +0.00    +0.012 C  
DOCKED: ATOM     60  C37 UNL     1      15.521   4.462  -3.002 +0.00 +0.00    +0.009 C  
DOCKED: ATOM     61  C38 UNL     1      14.429   3.702  -0.874 +0.00 +0.00    +0.009 C  
DOCKED: ENDBRANCH  34  59
DOCKED: ENDBRANCH   1  34
DOCKED: TORSDOF 25
DOCKED: TER
DOCKED: ENDMDL
________________________________________________________________________________


    FINAL DOCKED STATE:
    ________________________


Run:   17 / 20
Time taken for this run:   3.208s

DOCKED: MODEL        17
DOCKED: USER    Run = 17
DOCKED: USER
DOCKED: USER    Estimated Free Energy of Binding    =  +7.46 kcal/mol  [=(1)+(2)+(3)-(4)]
DOCKED: USER
DOCKED: USER    (1) Final Intermolecular Energy     =  +0.00 kcal/mol
DOCKED: USER        vdW + Hbond + desolv Energy     =  +0.00 kcal/mol
DOCKED: USER        Electrostatic Energy            =  +0.00 kcal/mol
DOCKED: USER        Moving Ligand-Fixed Receptor    =  +0.00 kcal/mol
DOCKED: USER        Moving Ligand-Moving Receptor   =  +0.00 kcal/mol
DOCKED: USER    (2) Final Total Internal Energy     = -20.18 kcal/mol
DOCKED: USER    (3) Torsional Free Energy           =  +7.46 kcal/mol
DOCKED: USER    (4) Unbound System's Energy         = -20.18 kcal/mol
DOCKED: USER
DOCKED: USER
DOCKED: REMARK  Name = ligands/ligand_29.pdb
DOCKED: REMARK  30 active torsions:
DOCKED: REMARK  status: ('A' for Active; 'I' for Inactive)
DOCKED: REMARK    1  A    between atoms: C1_1  and  C2_2
DOCKED: REMARK    2  A    between atoms: C2_2  and  C3_3
DOCKED: REMARK    3  A    between atoms: C2_2  and  C4_4
DOCKED: REMARK    4  A    between atoms: C4_4  and  C5_5
DOCKED: REMARK    5  A    between atoms: C5_5  and  N1_6
DOCKED: REMARK    6  A    between atoms: C5_5  and  C14_16
DOCKED: REMARK    7  A    between atoms: C6_7  and  C7_9
DOCKED: REMARK    8  A    between atoms: C7_9  and  C8_10
DOCKED: REMARK    9  A    between atoms: C14_16  and  O2_17
DOCKED: REMARK   10  A    between atoms: C14_16  and  C15_18
DOCKED: REMARK   11  A    between atoms: C15_18  and  C16_19
DOCKED: REMARK   12  A    between atoms: N2_21  and  C17_22
DOCKED: REMARK   13  A    between atoms: C17_22  and  C18_23
DOCKED: REMARK   14  A    between atoms: C17_22  and  C36_51
DOCKED: REMARK   15  A    between atoms: N3_25  and  C19_26
DOCKED: REMARK   16  A    between atoms: C19_26  and  C20_27
DOCKED: REMARK   17  A    between atoms: C19_26  and  C21_28
DOCKED: REMARK   18  A    between atoms: N4_30  and  C22_31
DOCKED: REMARK   19  A    between atoms: C22_31  and  C23_32
DOCKED: REMARK   20  A    between atoms: C22_31  and  C26_37
DOCKED: REMARK   21  A    between atoms: C23_32  and  C24_33
DOCKED: REMARK   22  A    between atoms: C24_33  and  C25_34
DOCKED: REMARK   23  A    between atoms: C25_34  and  O7_36
DOCKED: REMARK   24  A    between atoms: N5_39  and  C27_40
DOCKED: REMARK   25  A    between atoms: C27_40  and  C28_41
DOCKED: REMARK   26  A    between atoms: C27_40  and  C35_48
DOCKED: REMARK   27  A    between atoms: C28_41  and  C29_42
DOCKED: REMARK   28  A    between atoms: C35_48  and  O10_50
DOCKED: REMARK   29  A    between atoms: C36_51  and  C37_52
DOCKED: REMARK   30  A    between atoms: C36_51  and  C38_53
DOCKED: REMARK                            x       y       z     vdW  Elec       q    Type
DOCKED: REMARK                         _______ _______ _______ _____ _____    ______ ____
DOCKED: USER                              x       y       z     vdW  Elec       q    Type
DOCKED: USER                           _______ _______ _______ _____ _____    ______ ____
DOCKED: ROOT
DOCKED: ATOM      1  C18 UNL     1      12.779  -6.237  -2.637 +0.00 +0.00    +0.234 C  
DOCKED: ATOM      2  O4  UNL     1      12.439  -5.112  -2.997 +0.00 -0.00    -0.274 OA 
DOCKED: ATOM      3  N3  UNL     1      12.734  -7.332  -3.465 +0.00 -0.00    -0.303 N  
DOCKED: ATOM      4  H25 UNL     1      12.958  -8.257  -3.113 +0.00 +0.00    +0.149 HD 
DOCKED: ENDROOT
DOCKED: BRANCH   3   5
DOCKED: ATOM      5  C19 UNL     1      12.169  -7.280  -4.808 +0.00 +0.00    +0.156 C  
DOCKED: ATOM      6  C20 UNL     1      11.707  -8.667  -5.264 +0.00 +0.00    +0.038 C  
DOCKED: BRANCH   5   7
DOCKED: ATOM      7  C21 UNL     1      13.272  -6.727  -5.742 +0.00 +0.00    +0.234 C  
DOCKED: ATOM      8  O5  UNL     1      13.228  -6.870  -6.964 +0.00 -0.00    -0.274 OA 
DOCKED: ATOM      9  N4  UNL     1      14.304  -6.052  -5.108 +0.00 -0.00    -0.302 N  
DOCKED: ATOM     10  H30 UNL     1      14.087  -5.671  -4.194 +0.00 +0.00    +0.150 HD 
DOCKED: BRANCH   9  11
DOCKED: ATOM     11  C22 UNL     1      15.186  -5.211  -5.914 +0.00 +0.00    +0.159 C  
DOCKED: BRANCH  11  12
DOCKED: ATOM     12  C26 UNL     1      14.330  -4.054  -6.468 +0.00 +0.00    +0.234 C  
DOCKED: ATOM     13  O8  UNL     1      14.413  -3.678  -7.632 +0.00 -0.00    -0.274 OA 
DOCKED: ATOM     14  N5  UNL     1      13.444  -3.513  -5.562 +0.00 -0.00    -0.301 N  
DOCKED: ATOM     15  H37 UNL     1      13.169  -4.081  -4.770 +0.00 +0.00    +0.150 HD 
DOCKED: BRANCH  14  16
DOCKED: ATOM     16  C27 UNL     1      12.507  -2.457  -5.971 +0.00 +0.00    +0.186 C  
DOCKED: BRANCH  16  17
DOCKED: ATOM     17  C35 UNL     1      11.737  -2.037  -4.723 +0.00 +0.00    +0.326 C  
DOCKED: ATOM     18  O9  UNL     1      10.676  -1.423  -4.713 +0.00 -0.00    -0.249 OA 
DOCKED: BRANCH  17  19
DOCKED: ATOM     19  O10 UNL     1      12.331  -2.405  -3.575 +0.00 -0.00    -0.479 OA 
DOCKED: ATOM     20  H46 UNL     1      12.221  -3.378  -3.529 +0.00 +0.00    +0.295 HD 
DOCKED: ENDBRANCH  17  19
DOCKED: ENDBRANCH  16  17
DOCKED: BRANCH  16  21
DOCKED: ATOM     21  C28 UNL     1      13.288  -1.264  -6.535 +0.00 +0.00    +0.069 C  
DOCKED: BRANCH  21  22
DOCKED: ATOM     22  C29 UNL     1      12.657   0.079  -6.256 +0.00 -0.00    -0.045 A  
DOCKED: ATOM     23  C30 UNL     1      11.483   0.465  -6.919 +0.00 +0.00    +0.004 A  
DOCKED: ATOM     24  C31 UNL     1      10.900   1.708  -6.661 +0.00 +0.00    +0.000 A  
DOCKED: ATOM     25  C32 UNL     1      11.485   2.576  -5.738 +0.00 +0.00    +0.000 A  
DOCKED: ATOM     26  C33 UNL     1      12.648   2.202  -5.071 +0.00 +0.00    +0.000 A  
DOCKED: ATOM     27  C34 UNL     1      13.233   0.960  -5.329 +0.00 +0.00    +0.004 A  
DOCKED: ENDBRANCH  21  22
DOCKED: ENDBRANCH  16  21
DOCKED: ENDBRANCH  14  16
DOCKED: ENDBRANCH  11  12
DOCKED: BRANCH  11  28
DOCKED: ATOM     28  C23 UNL     1      16.340  -4.630  -5.091 +0.00 +0.00    +0.043 C  
DOCKED: BRANCH  28  29
DOCKED: ATOM     29  C24 UNL     1      16.278  -5.069  -3.630 +0.00 +0.00    +0.123 C  
DOCKED: BRANCH  29  30
DOCKED: ATOM     30  C25 UNL     1      15.516  -4.071  -2.800 +0.00 +0.00    +0.305 C  
DOCKED: ATOM     31  O6  UNL     1      15.831  -3.631  -1.706 +0.00 -0.00    -0.251 OA 
DOCKED: BRANCH  30  32
DOCKED: ATOM     32  O7  UNL     1      14.385  -3.674  -3.405 +0.00 -0.00    -0.481 OA 
DOCKED: ATOM     33  H36 UNL     1      13.677  -4.073  -2.858 +0.00 +0.00    +0.295 HD 
DOCKED: ENDBRANCH  30  32
DOCKED: ENDBRANCH  29  30
DOCKED: ENDBRANCH  28  29
DOCKED: ENDBRANCH  11  28
DOCKED: ENDBRANCH   9  11
DOCKED: ENDBRANCH   5   7
DOCKED: ENDBRANCH   3   5
DOCKED: BRANCH   1  34
DOCKED: ATOM     34  C17 UNL     1      13.354  -6.514  -1.230 +0.00 +0.00    +0.161 C  
DOCKED: BRANCH  34  37
DOCKED: ATOM     35  C16 UNL     1      13.322  -4.760   0.496 +0.00 +0.00    +0.216 C  
DOCKED: ATOM     36  O3  UNL     1      12.612  -5.421   1.251 +0.00 -0.00    -0.276 OA 
DOCKED: ATOM     37  N2  UNL     1      13.843  -5.253  -0.682 +0.00 -0.00    -0.304 N  
DOCKED: ATOM     38  H23 UNL     1      14.066  -4.544  -1.379 +0.00 +0.00    +0.149 HD 
DOCKED: BRANCH  35  39
DOCKED: ATOM     39  C15 UNL     1      13.637  -3.304   0.761 +0.00 +0.00    +0.129 C  
DOCKED: BRANCH  39  40
DOCKED: ATOM     40  C14 UNL     1      12.791  -2.446  -0.186 +0.00 +0.00    +0.143 C  
DOCKED: BRANCH  40  41
DOCKED: ATOM     41  O2  UNL     1      12.438  -3.266  -1.306 +0.00 -0.00    -0.389 OA 
DOCKED: ATOM     42  H20 UNL     1      13.237  -3.353  -1.858 +0.00 +0.00    +0.210 HD 
DOCKED: ENDBRANCH  40  41
DOCKED: BRANCH  40  43
DOCKED: ATOM     43  C5  UNL     1      13.500  -1.141  -0.653 +0.00 +0.00    +0.102 C  
DOCKED: BRANCH  43  44
DOCKED: ATOM     44  N1  UNL     1      14.101  -1.324  -1.978 +0.00 -0.00    -0.310 N  
DOCKED: ATOM     45  C6  UNL     1      14.932  -0.370  -2.549 +0.00 +0.00    +0.218 C  
DOCKED: ATOM     46  O1  UNL     1      15.171   0.706  -2.007 +0.00 -0.00    -0.275 OA 
DOCKED: ATOM     47  H11 UNL     1      14.112  -2.255  -2.375 +0.00 +0.00    +0.149 HD 
DOCKED: BRANCH  45  48
DOCKED: ATOM     48  C7  UNL     1      15.528  -0.829  -3.871 +0.00 +0.00    +0.130 C  
DOCKED: BRANCH  48  49
DOCKED: ATOM     49  C8  UNL     1      16.972  -1.263  -3.807 +0.00 -0.00    -0.039 A  
DOCKED: ATOM     50  C9  UNL     1      17.670  -1.620  -4.972 +0.00 +0.00    +0.004 A  
DOCKED: ATOM     51  C10 UNL     1      19.004  -2.031  -4.894 +0.00 +0.00    +0.000 A  
DOCKED: ATOM     52  C11 UNL     1      19.655  -2.078  -3.660 +0.00 +0.00    +0.000 A  
DOCKED: ATOM     53  C12 UNL     1      18.969  -1.715  -2.502 +0.00 +0.00    +0.000 A  
DOCKED: ATOM     54  C13 UNL     1      17.636  -1.308  -2.572 +0.00 +0.00    +0.004 A  
DOCKED: ENDBRANCH  48  49
DOCKED: ENDBRANCH  45  48
DOCKED: ENDBRANCH  43  44
DOCKED: BRANCH  43  55
DOCKED: ATOM     55  C4  UNL     1      12.625   0.139  -0.673 +0.00 +0.00    +0.028 C  
DOCKED: BRANCH  55  57
DOCKED: ATOM     56  C1  UNL     1      11.260   1.674  -2.150 +0.00 +0.00    +0.007 C  
DOCKED: ATOM     57  C2  UNL     1      11.674   0.223  -1.887 +0.00 -0.00    -0.015 C  
DOCKED: ATOM     58  C3  UNL     1      10.415  -0.638  -1.668 +0.00 +0.00    +0.007 C  
DOCKED: ENDBRANCH  55  57
DOCKED: ENDBRANCH  43  55
DOCKED: ENDBRANCH  40  43
DOCKED: ENDBRANCH  39  40
DOCKED: ENDBRANCH  35  39
DOCKED: ENDBRANCH  34  37
DOCKED: BRANCH  34  59
DOCKED: ATOM     59  C36 UNL     1      14.433  -7.614  -1.285 +0.00 +0.00    +0.012 C  
DOCKED: ATOM     60  C37 UNL     1      14.018  -8.812  -0.425 +0.00 +0.00    +0.009 C  
DOCKED: ATOM     61  C38 UNL     1      15.823  -7.122  -0.862 +0.00 +0.00    +0.009 C  
DOCKED: ENDBRANCH  34  59
DOCKED: ENDBRANCH   1  34
DOCKED: TORSDOF 25
DOCKED: TER
DOCKED: ENDMDL
________________________________________________________________________________


    FINAL DOCKED STATE:
    ________________________


Run:   18 / 20
Time taken for this run:   3.208s

DOCKED: MODEL        18
DOCKED: USER    Run = 18
DOCKED: USER
DOCKED: USER    Estimated Free Energy of Binding    =  +7.46 kcal/mol  [=(1)+(2)+(3)-(4)]
DOCKED: USER
DOCKED: USER    (1) Final Intermolecular Energy     =  +0.00 kcal/mol
DOCKED: USER        vdW + Hbond + desolv Energy     =  +0.00 kcal/mol
DOCKED: USER        Electrostatic Energy            =  +0.00 kcal/mol
DOCKED: USER        Moving Ligand-Fixed Receptor    =  +0.00 kcal/mol
DOCKED: USER        Moving Ligand-Moving Receptor   =  +0.00 kcal/mol
DOCKED: USER    (2) Final Total Internal Energy     = -19.47 kcal/mol
DOCKED: USER    (3) Torsional Free Energy           =  +7.46 kcal/mol
DOCKED: USER    (4) Unbound System's Energy         = -19.47 kcal/mol
DOCKED: USER
DOCKED: USER
DOCKED: REMARK  Name = ligands/ligand_29.pdb
DOCKED: REMARK  30 active torsions:
DOCKED: REMARK  status: ('A' for Active; 'I' for Inactive)
DOCKED: REMARK    1  A    between atoms: C1_1  and  C2_2
DOCKED: REMARK    2  A    between atoms: C2_2  and  C3_3
DOCKED: REMARK    3  A    between atoms: C2_2  and  C4_4
DOCKED: REMARK    4  A    between atoms: C4_4  and  C5_5
DOCKED: REMARK    5  A    between atoms: C5_5  and  N1_6
DOCKED: REMARK    6  A    between atoms: C5_5  and  C14_16
DOCKED: REMARK    7  A    between atoms: C6_7  and  C7_9
DOCKED: REMARK    8  A    between atoms: C7_9  and  C8_10
DOCKED: REMARK    9  A    between atoms: C14_16  and  O2_17
DOCKED: REMARK   10  A    between atoms: C14_16  and  C15_18
DOCKED: REMARK   11  A    between atoms: C15_18  and  C16_19
DOCKED: REMARK   12  A    between atoms: N2_21  and  C17_22
DOCKED: REMARK   13  A    between atoms: C17_22  and  C18_23
DOCKED: REMARK   14  A    between atoms: C17_22  and  C36_51
DOCKED: REMARK   15  A    between atoms: N3_25  and  C19_26
DOCKED: REMARK   16  A    between atoms: C19_26  and  C20_27
DOCKED: REMARK   17  A    between atoms: C19_26  and  C21_28
DOCKED: REMARK   18  A    between atoms: N4_30  and  C22_31
DOCKED: REMARK   19  A    between atoms: C22_31  and  C23_32
DOCKED: REMARK   20  A    between atoms: C22_31  and  C26_37
DOCKED: REMARK   21  A    between atoms: C23_32  and  C24_33
DOCKED: REMARK   22  A    between atoms: C24_33  and  C25_34
DOCKED: REMARK   23  A    between atoms: C25_34  and  O7_36
DOCKED: REMARK   24  A    between atoms: N5_39  and  C27_40
DOCKED: REMARK   25  A    between atoms: C27_40  and  C28_41
DOCKED: REMARK   26  A    between atoms: C27_40  and  C35_48
DOCKED: REMARK   27  A    between atoms: C28_41  and  C29_42
DOCKED: REMARK   28  A    between atoms: C35_48  and  O10_50
DOCKED: REMARK   29  A    between atoms: C36_51  and  C37_52
DOCKED: REMARK   30  A    between atoms: C36_51  and  C38_53
DOCKED: REMARK                            x       y       z     vdW  Elec       q    Type
DOCKED: REMARK                         _______ _______ _______ _____ _____    ______ ____
DOCKED: USER                              x       y       z     vdW  Elec       q    Type
DOCKED: USER                           _______ _______ _______ _____ _____    ______ ____
DOCKED: ROOT
DOCKED: ATOM      1  C18 UNL     1       6.973   0.709   0.662 +0.00 +0.00    +0.234 C  
DOCKED: ATOM      2  O4  UNL     1       7.840   1.163  -0.082 +0.00 -0.00    -0.274 OA 
DOCKED: ATOM      3  N3  UNL     1       7.247  -0.178   1.675 +0.00 -0.00    -0.303 N  
DOCKED: ATOM      4  H25 UNL     1       6.497  -0.583   2.225 +0.00 +0.00    +0.149 HD 
DOCKED: ENDROOT
DOCKED: BRANCH   3   5
DOCKED: ATOM      5  C19 UNL     1       8.573  -0.748   1.884 +0.00 +0.00    +0.156 C  
DOCKED: ATOM      6  C20 UNL     1       9.621   0.352   2.069 +0.00 +0.00    +0.038 C  
DOCKED: BRANCH   5   7
DOCKED: ATOM      7  C21 UNL     1       8.892  -1.617   0.644 +0.00 +0.00    +0.234 C  
DOCKED: ATOM      8  O5  UNL     1       8.474  -2.770   0.527 +0.00 -0.00    -0.274 OA 
DOCKED: ATOM      9  N4  UNL     1       9.669  -1.005  -0.327 +0.00 -0.00    -0.302 N  
DOCKED: ATOM     10  H30 UNL     1       9.654   0.009  -0.330 +0.00 +0.00    +0.150 HD 
DOCKED: BRANCH   9  11
DOCKED: ATOM     11  C22 UNL     1       9.726  -1.607  -1.657 +0.00 +0.00    +0.159 C  
DOCKED: BRANCH  11  12
DOCKED: ATOM     12  C26 UNL     1       8.381  -1.305  -2.351 +0.00 +0.00    +0.234 C  
DOCKED: ATOM     13  O8  UNL     1       7.599  -2.193  -2.675 +0.00 -0.00    -0.274 OA 
DOCKED: ATOM     14  N5  UNL     1       8.120   0.035  -2.535 +0.00 -0.00    -0.301 N  
DOCKED: ATOM     15  H37 UNL     1       8.603   0.698  -1.941 +0.00 +0.00    +0.150 HD 
DOCKED: BRANCH  14  16
DOCKED: ATOM     16  C27 UNL     1       6.841   0.475  -3.110 +0.00 +0.00    +0.186 C  
DOCKED: BRANCH  16  17
DOCKED: ATOM     17  C35 UNL     1       6.952   1.979  -3.343 +0.00 +0.00    +0.326 C  
DOCKED: ATOM     18  O9  UNL     1       6.497   2.587  -4.304 +0.00 -0.00    -0.249 OA 
DOCKED: BRANCH  17  19
DOCKED: ATOM     19  O10 UNL     1       7.616   2.627  -2.370 +0.00 -0.00    -0.479 OA 
DOCKED: ATOM     20  H46 UNL     1       8.267   1.979  -2.027 +0.00 +0.00    +0.295 HD 
DOCKED: ENDBRANCH  17  19
DOCKED: ENDBRANCH  16  17
DOCKED: BRANCH  16  21
DOCKED: ATOM     21  C28 UNL     1       6.598  -0.247  -4.441 +0.00 +0.00    +0.069 C  
DOCKED: BRANCH  21  22
DOCKED: ATOM     22  C29 UNL     1       5.285  -0.990  -4.513 +0.00 -0.00    -0.045 A  
DOCKED: ATOM     23  C30 UNL     1       4.805  -1.469  -5.741 +0.00 +0.00    +0.004 A  
DOCKED: ATOM     24  C31 UNL     1       3.590  -2.155  -5.807 +0.00 +0.00    +0.000 A  
DOCKED: ATOM     25  C32 UNL     1       2.845  -2.369  -4.648 +0.00 +0.00    +0.000 A  
DOCKED: ATOM     26  C33 UNL     1       3.313  -1.902  -3.423 +0.00 +0.00    +0.000 A  
DOCKED: ATOM     27  C34 UNL     1       4.527  -1.214  -3.354 +0.00 +0.00    +0.004 A  
DOCKED: ENDBRANCH  21  22
DOCKED: ENDBRANCH  16  21
DOCKED: ENDBRANCH  14  16
DOCKED: ENDBRANCH  11  12
DOCKED: BRANCH  11  28
DOCKED: ATOM     28  C23 UNL     1      10.865  -1.030  -2.503 +0.00 +0.00    +0.043 C  
DOCKED: BRANCH  28  29
DOCKED: ATOM     29  C24 UNL     1      11.459   0.231  -1.880 +0.00 +0.00    +0.123 C  
DOCKED: BRANCH  29  30
DOCKED: ATOM     30  C25 UNL     1      10.522   1.399  -2.035 +0.00 +0.00    +0.305 C  
DOCKED: ATOM     31  O6  UNL     1      10.133   1.897  -3.079 +0.00 -0.00    -0.251 OA 
DOCKED: BRANCH  30  32
DOCKED: ATOM     32  O7  UNL     1      10.118   1.880  -0.849 +0.00 -0.00    -0.481 OA 
DOCKED: ATOM     33  H36 UNL     1       9.313   2.395  -1.068 +0.00 +0.00    +0.295 HD 
DOCKED: ENDBRANCH  30  32
DOCKED: ENDBRANCH  29  30
DOCKED: ENDBRANCH  28  29
DOCKED: ENDBRANCH  11  28
DOCKED: ENDBRANCH   9  11
DOCKED: ENDBRANCH   5   7
DOCKED: ENDBRANCH   3   5
DOCKED: BRANCH   1  34
DOCKED: ATOM     34  C17 UNL     1       5.494   1.146   0.570 +0.00 +0.00    +0.161 C  
DOCKED: BRANCH  34  37
DOCKED: ATOM     35  C16 UNL     1       4.305  -0.974   0.955 +0.00 +0.00    +0.216 C  
DOCKED: ATOM     36  O3  UNL     1       4.363  -0.863   2.178 +0.00 -0.00    -0.276 OA 
DOCKED: ATOM     37  N2  UNL     1       4.714   0.013   0.083 +0.00 -0.00    -0.304 N  
DOCKED: ATOM     38  H23 UNL     1       4.979  -0.320  -0.843 +0.00 +0.00    +0.149 HD 
DOCKED: BRANCH  35  39
DOCKED: ATOM     39  C15 UNL     1       3.834  -2.247   0.287 +0.00 +0.00    +0.129 C  
DOCKED: BRANCH  39  40
DOCKED: ATOM     40  C14 UNL     1       5.064  -3.086  -0.076 +0.00 +0.00    +0.143 C  
DOCKED: BRANCH  40  41
DOCKED: ATOM     41  O2  UNL     1       5.987  -2.222  -0.748 +0.00 -0.00    -0.389 OA 
DOCKED: ATOM     42  H20 UNL     1       6.848  -2.679  -0.760 +0.00 +0.00    +0.210 HD 
DOCKED: ENDBRANCH  40  41
DOCKED: BRANCH  40  43
DOCKED: ATOM     43  C5  UNL     1       4.737  -4.336  -0.945 +0.00 +0.00    +0.102 C  
DOCKED: BRANCH  43  44
DOCKED: ATOM     44  N1  UNL     1       5.324  -4.204  -2.283 +0.00 -0.00    -0.310 N  
DOCKED: ATOM     45  C6  UNL     1       4.948  -5.026  -3.336 +0.00 +0.00    +0.218 C  
DOCKED: ATOM     46  O1  UNL     1       4.146  -5.947  -3.202 +0.00 -0.00    -0.275 OA 
DOCKED: ATOM     47  H11 UNL     1       5.822  -3.352  -2.505 +0.00 +0.00    +0.149 HD 
DOCKED: BRANCH  45  48
DOCKED: ATOM     48  C7  UNL     1       5.602  -4.627  -4.651 +0.00 +0.00    +0.130 C  
DOCKED: BRANCH  48  49
DOCKED: ATOM     49  C8  UNL     1       7.087  -4.365  -4.576 +0.00 -0.00    -0.039 A  
DOCKED: ATOM     50  C9  UNL     1       7.894  -5.048  -3.653 +0.00 +0.00    +0.004 A  
DOCKED: ATOM     51  C10 UNL     1       9.266  -4.785  -3.588 +0.00 +0.00    +0.000 A  
DOCKED: ATOM     52  C11 UNL     1       9.844  -3.851  -4.449 +0.00 +0.00    +0.000 A  
DOCKED: ATOM     53  C12 UNL     1       9.048  -3.177  -5.374 +0.00 +0.00    +0.000 A  
DOCKED: ATOM     54  C13 UNL     1       7.677  -3.432  -5.441 +0.00 +0.00    +0.004 A  
DOCKED: ENDBRANCH  48  49
DOCKED: ENDBRANCH  45  48
DOCKED: ENDBRANCH  43  44
DOCKED: BRANCH  43  55
DOCKED: ATOM     55  C4  UNL     1       5.153  -5.706  -0.350 +0.00 +0.00    +0.028 C  
DOCKED: BRANCH  55  57
DOCKED: ATOM     56  C1  UNL     1       6.852  -7.496  -0.906 +0.00 +0.00    +0.007 C  
DOCKED: ATOM     57  C2  UNL     1       6.654  -6.027  -0.519 +0.00 -0.00    -0.015 C  
DOCKED: ATOM     58  C3  UNL     1       7.437  -5.728   0.773 +0.00 +0.00    +0.007 C  
DOCKED: ENDBRANCH  55  57
DOCKED: ENDBRANCH  43  55
DOCKED: ENDBRANCH  40  43
DOCKED: ENDBRANCH  39  40
DOCKED: ENDBRANCH  35  39
DOCKED: ENDBRANCH  34  37
DOCKED: BRANCH  34  59
DOCKED: ATOM     59  C36 UNL     1       5.348   2.407  -0.304 +0.00 +0.00    +0.012 C  
DOCKED: ATOM     60  C37 UNL     1       5.192   3.651   0.576 +0.00 +0.00    +0.009 C  
DOCKED: ATOM     61  C38 UNL     1       4.186   2.323  -1.302 +0.00 +0.00    +0.009 C  
DOCKED: ENDBRANCH  34  59
DOCKED: ENDBRANCH   1  34
DOCKED: TORSDOF 25
DOCKED: TER
DOCKED: ENDMDL
________________________________________________________________________________


    FINAL DOCKED STATE:
    ________________________


Run:   19 / 20
Time taken for this run:   3.208s

DOCKED: MODEL        19
DOCKED: USER    Run = 19
DOCKED: USER
DOCKED: USER    Estimated Free Energy of Binding    =  +7.46 kcal/mol  [=(1)+(2)+(3)-(4)]
DOCKED: USER
DOCKED: USER    (1) Final Intermolecular Energy     =  +0.00 kcal/mol
DOCKED: USER        vdW + Hbond + desolv Energy     =  +0.00 kcal/mol
DOCKED: USER        Electrostatic Energy            =  +0.00 kcal/mol
DOCKED: USER        Moving Ligand-Fixed Receptor    =  +0.00 kcal/mol
DOCKED: USER        Moving Ligand-Moving Receptor   =  +0.00 kcal/mol
DOCKED: USER    (2) Final Total Internal Energy     = -19.46 kcal/mol
DOCKED: USER    (3) Torsional Free Energy           =  +7.46 kcal/mol
DOCKED: USER    (4) Unbound System's Energy         = -19.46 kcal/mol
DOCKED: USER
DOCKED: USER
DOCKED: REMARK  Name = ligands/ligand_29.pdb
DOCKED: REMARK  30 active torsions:
DOCKED: REMARK  status: ('A' for Active; 'I' for Inactive)
DOCKED: REMARK    1  A    between atoms: C1_1  and  C2_2
DOCKED: REMARK    2  A    between atoms: C2_2  and  C3_3
DOCKED: REMARK    3  A    between atoms: C2_2  and  C4_4
DOCKED: REMARK    4  A    between atoms: C4_4  and  C5_5
DOCKED: REMARK    5  A    between atoms: C5_5  and  N1_6
DOCKED: REMARK    6  A    between atoms: C5_5  and  C14_16
DOCKED: REMARK    7  A    between atoms: C6_7  and  C7_9
DOCKED: REMARK    8  A    between atoms: C7_9  and  C8_10
DOCKED: REMARK    9  A    between atoms: C14_16  and  O2_17
DOCKED: REMARK   10  A    between atoms: C14_16  and  C15_18
DOCKED: REMARK   11  A    between atoms: C15_18  and  C16_19
DOCKED: REMARK   12  A    between atoms: N2_21  and  C17_22
DOCKED: REMARK   13  A    between atoms: C17_22  and  C18_23
DOCKED: REMARK   14  A    between atoms: C17_22  and  C36_51
DOCKED: REMARK   15  A    between atoms: N3_25  and  C19_26
DOCKED: REMARK   16  A    between atoms: C19_26  and  C20_27
DOCKED: REMARK   17  A    between atoms: C19_26  and  C21_28
DOCKED: REMARK   18  A    between atoms: N4_30  and  C22_31
DOCKED: REMARK   19  A    between atoms: C22_31  and  C23_32
DOCKED: REMARK   20  A    between atoms: C22_31  and  C26_37
DOCKED: REMARK   21  A    between atoms: C23_32  and  C24_33
DOCKED: REMARK   22  A    between atoms: C24_33  and  C25_34
DOCKED: REMARK   23  A    between atoms: C25_34  and  O7_36
DOCKED: REMARK   24  A    between atoms: N5_39  and  C27_40
DOCKED: REMARK   25  A    between atoms: C27_40  and  C28_41
DOCKED: REMARK   26  A    between atoms: C27_40  and  C35_48
DOCKED: REMARK   27  A    between atoms: C28_41  and  C29_42
DOCKED: REMARK   28  A    between atoms: C35_48  and  O10_50
DOCKED: REMARK   29  A    between atoms: C36_51  and  C37_52
DOCKED: REMARK   30  A    between atoms: C36_51  and  C38_53
DOCKED: REMARK                            x       y       z     vdW  Elec       q    Type
DOCKED: REMARK                         _______ _______ _______ _____ _____    ______ ____
DOCKED: USER                              x       y       z     vdW  Elec       q    Type
DOCKED: USER                           _______ _______ _______ _____ _____    ______ ____
DOCKED: ROOT
DOCKED: ATOM      1  C18 UNL     1       9.799  -3.814   2.424 +0.00 +0.00    +0.234 C  
DOCKED: ATOM      2  O4  UNL     1      10.908  -4.254   2.125 +0.00 -0.00    -0.274 OA 
DOCKED: ATOM      3  N3  UNL     1       8.663  -4.104   1.708 +0.00 -0.00    -0.303 N  
DOCKED: ATOM      4  H25 UNL     1       7.777  -3.669   1.944 +0.00 +0.00    +0.149 HD 
DOCKED: ENDROOT
DOCKED: BRANCH   3   5
DOCKED: ATOM      5  C19 UNL     1       8.689  -4.863   0.463 +0.00 +0.00    +0.156 C  
DOCKED: ATOM      6  C20 UNL     1       9.340  -6.234   0.670 +0.00 +0.00    +0.038 C  
DOCKED: BRANCH   5   7
DOCKED: ATOM      7  C21 UNL     1       9.482  -4.021  -0.565 +0.00 +0.00    +0.234 C  
DOCKED: ATOM      8  O5  UNL     1       8.961  -3.103  -1.199 +0.00 -0.00    -0.274 OA 
DOCKED: ATOM      9  N4  UNL     1      10.817  -4.364  -0.711 +0.00 -0.00    -0.302 N  
DOCKED: ATOM     10  H30 UNL     1      11.237  -4.849   0.074 +0.00 +0.00    +0.150 HD 
DOCKED: BRANCH   9  11
DOCKED: ATOM     11  C22 UNL     1      11.710  -3.421  -1.381 +0.00 +0.00    +0.159 C  
DOCKED: BRANCH  11  12
DOCKED: ATOM     12  C26 UNL     1      11.978  -2.268  -0.393 +0.00 +0.00    +0.234 C  
DOCKED: ATOM     13  O8  UNL     1      11.618  -1.117  -0.618 +0.00 -0.00    -0.274 OA 
DOCKED: ATOM     14  N5  UNL     1      12.613  -2.646   0.769 +0.00 -0.00    -0.301 N  
DOCKED: ATOM     15  H37 UNL     1      12.552  -3.617   1.049 +0.00 +0.00    +0.150 HD 
DOCKED: BRANCH  14  16
DOCKED: ATOM     16  C27 UNL     1      12.861  -1.668   1.839 +0.00 +0.00    +0.186 C  
DOCKED: BRANCH  16  17
DOCKED: ATOM     17  C35 UNL     1      13.725  -2.363   2.887 +0.00 +0.00    +0.326 C  
DOCKED: ATOM     18  O9  UNL     1      14.642  -1.844   3.513 +0.00 -0.00    -0.249 OA 
DOCKED: BRANCH  17  19
DOCKED: ATOM     19  O10 UNL     1      13.395  -3.650   3.089 +0.00 -0.00    -0.479 OA 
DOCKED: ATOM     20  H46 UNL     1      13.041  -3.964   2.229 +0.00 +0.00    +0.295 HD 
DOCKED: ENDBRANCH  17  19
DOCKED: ENDBRANCH  16  17
DOCKED: BRANCH  16  21
DOCKED: ATOM     21  C28 UNL     1      13.603  -0.454   1.265 +0.00 +0.00    +0.069 C  
DOCKED: BRANCH  21  22
DOCKED: ATOM     22  C29 UNL     1      12.911   0.866   1.505 +0.00 -0.00    -0.045 A  
DOCKED: ATOM     23  C30 UNL     1      11.586   0.903   1.965 +0.00 +0.00    +0.004 A  
DOCKED: ATOM     24  C31 UNL     1      10.947   2.125   2.186 +0.00 +0.00    +0.000 A  
DOCKED: ATOM     25  C32 UNL     1      11.626   3.321   1.951 +0.00 +0.00    +0.000 A  
DOCKED: ATOM     26  C33 UNL     1      12.942   3.297   1.499 +0.00 +0.00    +0.000 A  
DOCKED: ATOM     27  C34 UNL     1      13.583   2.076   1.275 +0.00 +0.00    +0.004 A  
DOCKED: ENDBRANCH  21  22
DOCKED: ENDBRANCH  16  21
DOCKED: ENDBRANCH  14  16
DOCKED: ENDBRANCH  11  12
DOCKED: BRANCH  11  28
DOCKED: ATOM     28  C23 UNL     1      13.044  -4.067  -1.770 +0.00 +0.00    +0.043 C  
DOCKED: BRANCH  28  29
DOCKED: ATOM     29  C24 UNL     1      13.239  -5.425  -1.099 +0.00 +0.00    +0.123 C  
DOCKED: BRANCH  29  30
DOCKED: ATOM     30  C25 UNL     1      13.546  -5.262   0.365 +0.00 +0.00    +0.305 C  
DOCKED: ATOM     31  O6  UNL     1      14.512  -4.699   0.856 +0.00 -0.00    -0.251 OA 
DOCKED: BRANCH  30  32
DOCKED: ATOM     32  O7  UNL     1      12.606  -5.823   1.141 +0.00 -0.00    -0.481 OA 
DOCKED: ATOM     33  H36 UNL     1      12.736  -5.394   2.013 +0.00 +0.00    +0.295 HD 
DOCKED: ENDBRANCH  30  32
DOCKED: ENDBRANCH  29  30
DOCKED: ENDBRANCH  28  29
DOCKED: ENDBRANCH  11  28
DOCKED: ENDBRANCH   9  11
DOCKED: ENDBRANCH   5   7
DOCKED: ENDBRANCH   3   5
DOCKED: BRANCH   1  34
DOCKED: ATOM     34  C17 UNL     1       9.566  -2.943   3.678 +0.00 +0.00    +0.161 C  
DOCKED: BRANCH  34  37
DOCKED: ATOM     35  C16 UNL     1       7.962  -1.270   2.851 +0.00 +0.00    +0.216 C  
DOCKED: ATOM     36  O3  UNL     1       6.994  -1.999   3.054 +0.00 -0.00    -0.276 OA 
DOCKED: ATOM     37  N2  UNL     1       9.247  -1.589   3.239 +0.00 -0.00    -0.304 N  
DOCKED: ATOM     38  H23 UNL     1       9.981  -1.131   2.699 +0.00 +0.00    +0.149 HD 
DOCKED: BRANCH  35  39
DOCKED: ATOM     39  C15 UNL     1       7.841   0.030   2.087 +0.00 +0.00    +0.129 C  
DOCKED: BRANCH  39  40
DOCKED: ATOM     40  C14 UNL     1       8.213  -0.232   0.624 +0.00 +0.00    +0.143 C  
DOCKED: BRANCH  40  41
DOCKED: ATOM     41  O2  UNL     1       9.450  -0.954   0.620 +0.00 -0.00    -0.389 OA 
DOCKED: ATOM     42  H20 UNL     1       9.558  -1.328  -0.274 +0.00 +0.00    +0.210 HD 
DOCKED: ENDBRANCH  40  41
DOCKED: BRANCH  40  43
DOCKED: ATOM     43  C5  UNL     1       8.318   1.059  -0.239 +0.00 +0.00    +0.102 C  
DOCKED: BRANCH  43  44
DOCKED: ATOM     44  N1  UNL     1       9.699   1.269  -0.690 +0.00 -0.00    -0.310 N  
DOCKED: ATOM     45  C6  UNL     1      10.123   2.477  -1.225 +0.00 +0.00    +0.218 C  
DOCKED: ATOM     46  O1  UNL     1       9.361   3.423  -1.405 +0.00 -0.00    -0.275 OA 
DOCKED: ATOM     47  H11 UNL     1      10.407   0.615  -0.383 +0.00 +0.00    +0.149 HD 
DOCKED: BRANCH  45  48
DOCKED: ATOM     48  C7  UNL     1      11.617   2.497  -1.511 +0.00 +0.00    +0.130 C  
DOCKED: BRANCH  48  49
DOCKED: ATOM     49  C8  UNL     1      12.150   1.280  -2.227 +0.00 -0.00    -0.039 A  
DOCKED: ATOM     50  C9  UNL     1      11.350   0.570  -3.136 +0.00 +0.00    +0.004 A  
DOCKED: ATOM     51  C10 UNL     1      11.854  -0.563  -3.782 +0.00 +0.00    +0.000 A  
DOCKED: ATOM     52  C11 UNL     1      13.161  -0.987  -3.538 +0.00 +0.00    +0.000 A  
DOCKED: ATOM     53  C12 UNL     1      13.963  -0.280  -2.644 +0.00 +0.00    +0.000 A  
DOCKED: ATOM     54  C13 UNL     1      13.464   0.849  -1.992 +0.00 +0.00    +0.004 A  
DOCKED: ENDBRANCH  48  49
DOCKED: ENDBRANCH  45  48
DOCKED: ENDBRANCH  43  44
DOCKED: BRANCH  43  55
DOCKED: ATOM     55  C4  UNL     1       7.375   1.137  -1.466 +0.00 +0.00    +0.028 C  
DOCKED: BRANCH  55  57
DOCKED: ATOM     56  C1  UNL     1       7.569   1.092  -3.989 +0.00 +0.00    +0.007 C  
DOCKED: ATOM     57  C2  UNL     1       7.879   0.340  -2.690 +0.00 -0.00    -0.015 C  
DOCKED: ATOM     58  C3  UNL     1       7.240  -1.060  -2.743 +0.00 +0.00    +0.007 C  
DOCKED: ENDBRANCH  55  57
DOCKED: ENDBRANCH  43  55
DOCKED: ENDBRANCH  40  43
DOCKED: ENDBRANCH  39  40
DOCKED: ENDBRANCH  35  39
DOCKED: ENDBRANCH  34  37
DOCKED: BRANCH  34  59
DOCKED: ATOM     59  C36 UNL     1      10.782  -3.007   4.623 +0.00 +0.00    +0.012 C  
DOCKED: ATOM     60  C37 UNL     1      10.497  -3.947   5.798 +0.00 +0.00    +0.009 C  
DOCKED: ATOM     61  C38 UNL     1      11.216  -1.632   5.148 +0.00 +0.00    +0.009 C  
DOCKED: ENDBRANCH  34  59
DOCKED: ENDBRANCH   1  34
DOCKED: TORSDOF 25
DOCKED: TER
DOCKED: ENDMDL
________________________________________________________________________________


    FINAL DOCKED STATE:
    ________________________


Run:   20 / 20
Time taken for this run:   3.208s

DOCKED: MODEL        20
DOCKED: USER    Run = 20
DOCKED: USER
DOCKED: USER    Estimated Free Energy of Binding    =  +7.46 kcal/mol  [=(1)+(2)+(3)-(4)]
DOCKED: USER
DOCKED: USER    (1) Final Intermolecular Energy     =  +0.00 kcal/mol
DOCKED: USER        vdW + Hbond + desolv Energy     =  +0.00 kcal/mol
DOCKED: USER        Electrostatic Energy            =  +0.00 kcal/mol
DOCKED: USER        Moving Ligand-Fixed Receptor    =  +0.00 kcal/mol
DOCKED: USER        Moving Ligand-Moving Receptor   =  +0.00 kcal/mol
DOCKED: USER    (2) Final Total Internal Energy     = -19.48 kcal/mol
DOCKED: USER    (3) Torsional Free Energy           =  +7.46 kcal/mol
DOCKED: USER    (4) Unbound System's Energy         = -19.48 kcal/mol
DOCKED: USER
DOCKED: USER
DOCKED: REMARK  Name = ligands/ligand_29.pdb
DOCKED: REMARK  30 active torsions:
DOCKED: REMARK  status: ('A' for Active; 'I' for Inactive)
DOCKED: REMARK    1  A    between atoms: C1_1  and  C2_2
DOCKED: REMARK    2  A    between atoms: C2_2  and  C3_3
DOCKED: REMARK    3  A    between atoms: C2_2  and  C4_4
DOCKED: REMARK    4  A    between atoms: C4_4  and  C5_5
DOCKED: REMARK    5  A    between atoms: C5_5  and  N1_6
DOCKED: REMARK    6  A    between atoms: C5_5  and  C14_16
DOCKED: REMARK    7  A    between atoms: C6_7  and  C7_9
DOCKED: REMARK    8  A    between atoms: C7_9  and  C8_10
DOCKED: REMARK    9  A    between atoms: C14_16  and  O2_17
DOCKED: REMARK   10  A    between atoms: C14_16  and  C15_18
DOCKED: REMARK   11  A    between atoms: C15_18  and  C16_19
DOCKED: REMARK   12  A    between atoms: N2_21  and  C17_22
DOCKED: REMARK   13  A    between atoms: C17_22  and  C18_23
DOCKED: REMARK   14  A    between atoms: C17_22  and  C36_51
DOCKED: REMARK   15  A    between atoms: N3_25  and  C19_26
DOCKED: REMARK   16  A    between atoms: C19_26  and  C20_27
DOCKED: REMARK   17  A    between atoms: C19_26  and  C21_28
DOCKED: REMARK   18  A    between atoms: N4_30  and  C22_31
DOCKED: REMARK   19  A    between atoms: C22_31  and  C23_32
DOCKED: REMARK   20  A    between atoms: C22_31  and  C26_37
DOCKED: REMARK   21  A    between atoms: C23_32  and  C24_33
DOCKED: REMARK   22  A    between atoms: C24_33  and  C25_34
DOCKED: REMARK   23  A    between atoms: C25_34  and  O7_36
DOCKED: REMARK   24  A    between atoms: N5_39  and  C27_40
DOCKED: REMARK   25  A    between atoms: C27_40  and  C28_41
DOCKED: REMARK   26  A    between atoms: C27_40  and  C35_48
DOCKED: REMARK   27  A    between atoms: C28_41  and  C29_42
DOCKED: REMARK   28  A    between atoms: C35_48  and  O10_50
DOCKED: REMARK   29  A    between atoms: C36_51  and  C37_52
DOCKED: REMARK   30  A    between atoms: C36_51  and  C38_53
DOCKED: REMARK                            x       y       z     vdW  Elec       q    Type
DOCKED: REMARK                         _______ _______ _______ _____ _____    ______ ____
DOCKED: USER                              x       y       z     vdW  Elec       q    Type
DOCKED: USER                           _______ _______ _______ _____ _____    ______ ____
DOCKED: ROOT
DOCKED: ATOM      1  C18 UNL     1       4.109  -5.447  -3.942 +0.00 +0.00    +0.234 C  
DOCKED: ATOM      2  O4  UNL     1       3.557  -6.525  -4.158 +0.00 -0.00    -0.274 OA 
DOCKED: ATOM      3  N3  UNL     1       4.597  -4.643  -4.943 +0.00 -0.00    -0.303 N  
DOCKED: ATOM      4  H25 UNL     1       5.106  -3.794  -4.723 +0.00 +0.00    +0.149 HD 
DOCKED: ENDROOT
DOCKED: BRANCH   3   5
DOCKED: ATOM      5  C19 UNL     1       4.609  -5.050  -6.343 +0.00 +0.00    +0.156 C  
DOCKED: ATOM      6  C20 UNL     1       3.201  -5.420  -6.819 +0.00 +0.00    +0.038 C  
DOCKED: BRANCH   5   7
DOCKED: ATOM      7  C21 UNL     1       5.570  -6.258  -6.456 +0.00 +0.00    +0.234 C  
DOCKED: ATOM      8  O5  UNL     1       6.790  -6.118  -6.548 +0.00 -0.00    -0.274 OA 
DOCKED: ATOM      9  N4  UNL     1       4.962  -7.504  -6.435 +0.00 -0.00    -0.302 N  
DOCKED: ATOM     10  H30 UNL     1       4.047  -7.542  -6.001 +0.00 +0.00    +0.150 HD 
DOCKED: BRANCH   9  11
DOCKED: ATOM     11  C22 UNL     1       5.793  -8.681  -6.187 +0.00 +0.00    +0.159 C  
DOCKED: BRANCH  11  12
DOCKED: ATOM     12  C26 UNL     1       6.123  -8.695  -4.681 +0.00 +0.00    +0.234 C  
DOCKED: ATOM     13  O8  UNL     1       7.271  -8.592  -4.261 +0.00 -0.00    -0.274 OA 
DOCKED: ATOM     14  N5  UNL     1       5.024  -8.791  -3.855 +0.00 -0.00    -0.301 N  
DOCKED: ATOM     15  H37 UNL     1       4.126  -8.509  -4.227 +0.00 +0.00    +0.150 HD 
DOCKED: BRANCH  14  16
DOCKED: ATOM     16  C27 UNL     1       5.179  -8.735  -2.394 +0.00 +0.00    +0.186 C  
DOCKED: BRANCH  16  17
DOCKED: ATOM     17  C35 UNL     1       3.818  -9.065  -1.789 +0.00 +0.00    +0.326 C  
DOCKED: ATOM     18  O9  UNL     1       3.630  -9.734  -0.780 +0.00 -0.00    -0.249 OA 
DOCKED: BRANCH  17  19
DOCKED: ATOM     19  O10 UNL     1       2.784  -8.543  -2.472 +0.00 -0.00    -0.479 OA 
DOCKED: ATOM     20  H46 UNL     1       3.091  -8.489  -3.402 +0.00 +0.00    +0.295 HD 
DOCKED: ENDBRANCH  17  19
DOCKED: ENDBRANCH  16  17
DOCKED: BRANCH  16  21
DOCKED: ATOM     21  C28 UNL     1       6.220  -9.768  -1.946 +0.00 +0.00    +0.069 C  
DOCKED: BRANCH  21  22
DOCKED: ATOM     22  C29 UNL     1       7.376  -9.188  -1.167 +0.00 -0.00    -0.045 A  
DOCKED: ATOM     23  C30 UNL     1       7.573  -7.800  -1.115 +0.00 +0.00    +0.004 A  
DOCKED: ATOM     24  C31 UNL     1       8.644  -7.264  -0.395 +0.00 +0.00    +0.000 A  
DOCKED: ATOM     25  C32 UNL     1       9.525  -8.109   0.279 +0.00 +0.00    +0.000 A  
DOCKED: ATOM     26  C33 UNL     1       9.337  -9.487   0.237 +0.00 +0.00    +0.000 A  
DOCKED: ATOM     27  C34 UNL     1       8.269 -10.026  -0.483 +0.00 +0.00    +0.004 A  
DOCKED: ENDBRANCH  21  22
DOCKED: ENDBRANCH  16  21
DOCKED: ENDBRANCH  14  16
DOCKED: ENDBRANCH  11  12
DOCKED: BRANCH  11  28
DOCKED: ATOM     28  C23 UNL     1       5.073  -9.982  -6.554 +0.00 +0.00    +0.043 C  
DOCKED: BRANCH  28  29
DOCKED: ATOM     29  C24 UNL     1       3.580  -9.764  -6.786 +0.00 +0.00    +0.123 C  
DOCKED: BRANCH  29  30
DOCKED: ATOM     30  C25 UNL     1       2.865  -9.515  -5.485 +0.00 +0.00    +0.305 C  
DOCKED: ATOM     31  O6  UNL     1       2.770 -10.281  -4.539 +0.00 -0.00    -0.251 OA 
DOCKED: BRANCH  30  32
DOCKED: ATOM     32  O7  UNL     1       2.303  -8.297  -5.446 +0.00 -0.00    -0.481 OA 
DOCKED: ATOM     33  H36 UNL     1       2.153  -8.140  -4.490 +0.00 +0.00    +0.295 HD 
DOCKED: ENDBRANCH  30  32
DOCKED: ENDBRANCH  29  30
DOCKED: ENDBRANCH  28  29
DOCKED: ENDBRANCH  11  28
DOCKED: ENDBRANCH   9  11
DOCKED: ENDBRANCH   5   7
DOCKED: ENDBRANCH   3   5
DOCKED: BRANCH   1  34
DOCKED: ATOM     34  C17 UNL     1       4.247  -4.862  -2.519 +0.00 +0.00    +0.161 C  
DOCKED: BRANCH  34  37
DOCKED: ATOM     35  C16 UNL     1       6.508  -3.892  -2.575 +0.00 +0.00    +0.216 C  
DOCKED: ATOM     36  O3  UNL     1       6.118  -2.840  -3.076 +0.00 -0.00    -0.276 OA 
DOCKED: ATOM     37  N2  UNL     1       5.658  -4.891  -2.149 +0.00 -0.00    -0.304 N  
DOCKED: ATOM     38  H23 UNL     1       6.073  -5.822  -2.125 +0.00 +0.00    +0.149 HD 
DOCKED: BRANCH  35  39
DOCKED: ATOM     39  C15 UNL     1       7.979  -4.219  -2.442 +0.00 +0.00    +0.129 C  
DOCKED: BRANCH  39  40
DOCKED: ATOM     40  C14 UNL     1       8.395  -5.077  -3.641 +0.00 +0.00    +0.143 C  
DOCKED: BRANCH  40  41
DOCKED: ATOM     41  O2  UNL     1       7.440  -6.138  -3.760 +0.00 -0.00    -0.389 OA 
DOCKED: ATOM     42  H20 UNL     1       7.544  -6.517  -4.652 +0.00 +0.00    +0.210 HD 
DOCKED: ENDBRANCH  40  41
DOCKED: BRANCH  40  43
DOCKED: ATOM     43  C5  UNL     1       9.842  -5.640  -3.540 +0.00 +0.00    +0.102 C  
DOCKED: BRANCH  43  44
DOCKED: ATOM     44  N1  UNL     1       9.823  -7.103  -3.436 +0.00 -0.00    -0.310 N  
DOCKED: ATOM     45  C6  UNL     1      10.940  -7.829  -3.047 +0.00 +0.00    +0.218 C  
DOCKED: ATOM     46  O1  UNL     1      12.025  -7.300  -2.819 +0.00 -0.00    -0.275 OA 
DOCKED: ATOM     47  H11 UNL     1       8.925  -7.569  -3.408 +0.00 +0.00    +0.149 HD 
DOCKED: BRANCH  45  48
DOCKED: ATOM     48  C7  UNL     1      10.649  -9.315  -2.898 +0.00 +0.00    +0.130 C  
DOCKED: BRANCH  48  49
DOCKED: ATOM     49  C8  UNL     1       9.867  -9.933  -4.032 +0.00 -0.00    -0.039 A  
DOCKED: ATOM     50  C9  UNL     1      10.001  -9.454  -5.345 +0.00 +0.00    +0.004 A  
DOCKED: ATOM     51  C10 UNL     1       9.261 -10.029  -6.382 +0.00 +0.00    +0.000 A  
DOCKED: ATOM     52  C11 UNL     1       8.393 -11.091  -6.122 +0.00 +0.00    +0.000 A  
DOCKED: ATOM     53  C12 UNL     1       8.264 -11.576  -4.821 +0.00 +0.00    +0.000 A  
DOCKED: ATOM     54  C13 UNL     1       8.997 -11.004  -3.780 +0.00 +0.00    +0.004 A  
DOCKED: ENDBRANCH  48  49
DOCKED: ENDBRANCH  45  48
DOCKED: ENDBRANCH  43  44
DOCKED: BRANCH  43  55
DOCKED: ATOM     55  C4  UNL     1      10.813  -5.233  -4.678 +0.00 +0.00    +0.028 C  
DOCKED: BRANCH  55  57
DOCKED: ATOM     56  C1  UNL     1      12.000  -6.355  -6.610 +0.00 +0.00    +0.007 C  
DOCKED: ATOM     57  C2  UNL     1      10.640  -6.063  -5.969 +0.00 -0.00    -0.015 C  
DOCKED: ATOM     58  C3  UNL     1       9.741  -5.331  -6.985 +0.00 +0.00    +0.007 C  
DOCKED: ENDBRANCH  55  57
DOCKED: ENDBRANCH  43  55
DOCKED: ENDBRANCH  40  43
DOCKED: ENDBRANCH  39  40
DOCKED: ENDBRANCH  35  39
DOCKED: ENDBRANCH  34  37
DOCKED: BRANCH  34  59
DOCKED: ATOM     59  C36 UNL     1       3.341  -5.615  -1.525 +0.00 +0.00    +0.012 C  
DOCKED: ATOM     60  C37 UNL     1       2.092  -4.786  -1.207 +0.00 +0.00    +0.009 C  
DOCKED: ATOM     61  C38 UNL     1       4.056  -6.003  -0.225 +0.00 +0.00    +0.009 C  
DOCKED: ENDBRANCH  34  59
DOCKED: ENDBRANCH   1  34
DOCKED: TORSDOF 25
DOCKED: TER
DOCKED: ENDMDL
________________________________________________________________________________


    CLUSTERING HISTOGRAM
    ____________________


________________________________________________________________________________
     |           |     |           |     |
Clus | Lowest    | Run | Mean      | Num | Histogram
-ter | Binding   |     | Binding   | in  |
Rank | Energy    |     | Energy    | Clus|    5    10   15   20   25   30   35
_____|___________|_____|___________|_____|____:____|____:____|____:____|____:___
   1 |     +7.46 |   1 |     +7.46 |   1 |#
   2 |     +7.46 |   2 |     +7.46 |   1 |#
   3 |     +7.46 |   3 |     +7.46 |   1 |#
   4 |     +7.46 |   4 |     +7.46 |   1 |#
   5 |     +7.46 |   5 |     +7.46 |   1 |#
   6 |     +7.46 |   6 |     +7.46 |   1 |#
   7 |     +7.46 |   7 |     +7.46 |   1 |#
   8 |     +7.46 |   8 |     +7.46 |   1 |#
   9 |     +7.46 |   9 |     +7.46 |   1 |#
  10 |     +7.46 |  10 |     +7.46 |   1 |#
  11 |     +7.46 |  11 |     +7.46 |   1 |#
  12 |     +7.46 |  12 |     +7.46 |   1 |#
  13 |     +7.46 |  13 |     +7.46 |   1 |#
  14 |     +7.46 |  14 |     +7.46 |   1 |#
  15 |     +7.46 |  15 |     +7.46 |   1 |#
  16 |     +7.46 |  16 |     +7.46 |   1 |#
  17 |     +7.46 |  17 |     +7.46 |   1 |#
  18 |     +7.46 |  18 |     +7.46 |   1 |#
  19 |     +7.46 |  19 |     +7.46 |   1 |#
  20 |     +7.46 |  20 |     +7.46 |   1 |#
_____|___________|_____|___________|_____|______________________________________


    RMSD TABLE
    __________


_______________________________________________________________________
     |      |      |           |         |                 |
Rank | Sub- | Run  | Binding   | Cluster | Reference       | Grep
     | Rank |      | Energy    | RMSD    | RMSD            | Pattern
_____|______|______|___________|_________|_________________|___________
   1      1      1       +7.46      0.00      6.54           RANKING
   2      1      2       +7.46      0.00      6.18           RANKING
   3      1      3       +7.46      0.00      7.95           RANKING
   4      1      4       +7.46      0.00      9.66           RANKING
   5      1      5       +7.46      0.00      8.09           RANKING
   6      1      6       +7.46      0.00     11.15           RANKING
   7      1      7       +7.46      0.00      7.38           RANKING
   8      1      8       +7.46      0.00      8.99           RANKING
   9      1      9       +7.46      0.00     10.53           RANKING
  10      1     10       +7.46      0.00      7.31           RANKING
  11      1     11       +7.46      0.00      7.05           RANKING
  12      1     12       +7.46      0.00      9.88           RANKING
  13      1     13       +7.46      0.00      5.07           RANKING
  14      1     14       +7.46      0.00      6.88           RANKING
  15      1     15       +7.46      0.00     11.29           RANKING
  16      1     16       +7.46      0.00     11.09           RANKING
  17      1     17       +7.46      0.00     11.27           RANKING
  18      1     18       +7.46      0.00      6.81           RANKING
  19      1     19       +7.46      0.00      7.27           RANKING
  20      1     20       +7.46      0.00      9.72           RANKING

Run time 64.693 sec
Idle time 0.289 sec
