AutoDock-GPU version: v1.6

**********************************************************
**    AutoDock-GPU AUTODOCKTOOLS-COMPATIBLE DLG FILE    **
**********************************************************


    DOCKING PARAMETERS
    ________________________


Ligand file:                               ligands/ligand_8.pdbqt
Grid fld file:                             protein.maps.fld

Random seed:                               1770973734, 32917
Number of runs:                            20
Number of energy evaluations:              8735288
Number of generations:                     42000
Size of population:                        150
Rate of crossover:                         80.000000%
Tournament selection probability limit:    60.000000%
Rate of mutation:                          2.000000%
Maximal allowed delta movement:            +/- 6.000000A
Maximal allowed delta angle:               +/- 90.000000

Rate of local search:                      100.000000%
Maximal number of local search iterations: 300
Rho lower bound:                           0.010000
Spread of local search delta movement:     2.000000A
Spread of local search delta angle:        74.999999
Limit of consecutive successes/failures:   4

Handle symmetry during clustering:         YES
RMSD tolerance:                            2.000000A

Program call in command line was:          ./autodock-gpu --ffile protein.maps.fld --lfile ligands/ligand_8.pdbqt --nrun 20 


    GRID PARAMETERS
    ________________________


Receptor name:                             #MACROMOLECULE
Number of grid points (x, y, z):           61, 61, 61
Grid center (x, y, z):                     10.261000, -3.492000, -0.127000A
Grid size (x, y, z):                       22.500000, 22.500000, 22.500000A
Grid spacing:                              0.375000A


    LIGAND PARAMETERS
    ________________________


Ligand name:                               ligands/ligand_8
Number of atoms:                           50
Number of rotatable bonds:                 19
Number of atom types:                      6


    DUMMY DATA (only for ADT-compatibility)
    ________________________


DPF> outlev 1
DPF> ga_run 20
DPF> fld protein.maps.fld
DPF> move ligands/ligand_8.pdbqt


    COUNTER STATES
    ________________________


Number of energy evaluations performed:    2880981
Number of generations used:                105


    INPUT LIGAND PDBQT FILE:
    ________________________


INPUT-LIGAND-PDBQT: REMARK  Name = ligands/ligand_8.pdb
INPUT-LIGAND-PDBQT: REMARK  25 active torsions:
INPUT-LIGAND-PDBQT: REMARK  status: ('A' for Active; 'I' for Inactive)
INPUT-LIGAND-PDBQT: REMARK    1  A    between atoms: C1_1  and  C2_2
INPUT-LIGAND-PDBQT: REMARK    2  A    between atoms: C2_2  and  C3_3
INPUT-LIGAND-PDBQT: REMARK    3  A    between atoms: C3_3  and  C4_4
INPUT-LIGAND-PDBQT: REMARK    4  A    between atoms: C3_3  and  C5_5
INPUT-LIGAND-PDBQT: REMARK    5  A    between atoms: C5_5  and  O1_6
INPUT-LIGAND-PDBQT: REMARK    6  A    between atoms: C5_5  and  C6_7
INPUT-LIGAND-PDBQT: REMARK    7  A    between atoms: N1_9  and  C7_10
INPUT-LIGAND-PDBQT: REMARK    8  A    between atoms: C7_10  and  C8_11
INPUT-LIGAND-PDBQT: REMARK    9  A    between atoms: C7_10  and  C9_12
INPUT-LIGAND-PDBQT: REMARK   10  A    between atoms: N2_14  and  C10_15
INPUT-LIGAND-PDBQT: REMARK   11  A    between atoms: C10_15  and  C11_16
INPUT-LIGAND-PDBQT: REMARK   12  A    between atoms: C10_15  and  C18_23
INPUT-LIGAND-PDBQT: REMARK   13  A    between atoms: C11_16  and  C12_17
INPUT-LIGAND-PDBQT: REMARK   14  A    between atoms: C18_23  and  O4_24
INPUT-LIGAND-PDBQT: REMARK   15  A    between atoms: C18_23  and  C19_25
INPUT-LIGAND-PDBQT: REMARK   16  A    between atoms: C19_25  and  C20_26
INPUT-LIGAND-PDBQT: REMARK   17  A    between atoms: C20_26  and  C21_27
INPUT-LIGAND-PDBQT: REMARK   18  A    between atoms: C20_26  and  C22_28
INPUT-LIGAND-PDBQT: REMARK   19  A    between atoms: N3_30  and  C23_31
INPUT-LIGAND-PDBQT: REMARK   20  A    between atoms: C23_31  and  C24_32
INPUT-LIGAND-PDBQT: REMARK   21  A    between atoms: C23_31  and  C31_42
INPUT-LIGAND-PDBQT: REMARK   22  A    between atoms: N4_34  and  C25_35
INPUT-LIGAND-PDBQT: REMARK   23  A    between atoms: C25_35  and  C26_36
INPUT-LIGAND-PDBQT: REMARK   24  A    between atoms: C31_42  and  C32_43
INPUT-LIGAND-PDBQT: REMARK   25  A    between atoms: C31_42  and  C33_44
INPUT-LIGAND-PDBQT: REMARK                            x       y       z     vdW  Elec       q    Type
INPUT-LIGAND-PDBQT: REMARK                         _______ _______ _______ _____ _____    ______ ____
INPUT-LIGAND-PDBQT: ROOT
INPUT-LIGAND-PDBQT: ATOM      1  C10 UNL     1      -0.878  -1.622  -0.166  0.00  0.00    +0.106 C 
INPUT-LIGAND-PDBQT: ENDROOT
INPUT-LIGAND-PDBQT: BRANCH   1   4
INPUT-LIGAND-PDBQT: ATOM      2  C9  UNL     1       0.681  -3.518   0.208  0.00  0.00    +0.233 C 
INPUT-LIGAND-PDBQT: ATOM      3  O3  UNL     1       0.144  -4.204  -0.661  0.00  0.00    -0.274 OA
INPUT-LIGAND-PDBQT: ATOM      4  N2  UNL     1       0.278  -2.231   0.499  0.00  0.00    -0.308 N 
INPUT-LIGAND-PDBQT: ATOM      5  H17 UNL     1       0.813  -1.676   1.157  0.00  0.00    +0.149 HD
INPUT-LIGAND-PDBQT: BRANCH   2   6
INPUT-LIGAND-PDBQT: ATOM      6  C7  UNL     1       1.855  -4.043   1.053  0.00  0.00    +0.156 C 
INPUT-LIGAND-PDBQT: ATOM      7  C8  UNL     1       3.169  -3.411   0.620  0.00  0.00    +0.038 C 
INPUT-LIGAND-PDBQT: BRANCH   6  10
INPUT-LIGAND-PDBQT: ATOM      8  C6  UNL     1       2.356  -6.315   1.892  0.00  0.00    +0.242 C 
INPUT-LIGAND-PDBQT: ATOM      9  O2  UNL     1       2.895  -5.889   2.915  0.00  0.00    -0.273 OA
INPUT-LIGAND-PDBQT: ATOM     10  N1  UNL     1       1.891  -5.491   0.901  0.00  0.00    -0.302 N 
INPUT-LIGAND-PDBQT: ATOM     11  H12 UNL     1       1.411  -5.870   0.089  0.00  0.00    +0.150 HD
INPUT-LIGAND-PDBQT: BRANCH   8  12
INPUT-LIGAND-PDBQT: ATOM     12  C5  UNL     1       2.217  -7.831   1.639  0.00  0.00    +0.203 C 
INPUT-LIGAND-PDBQT: BRANCH  12  13
INPUT-LIGAND-PDBQT: ATOM     13  C3  UNL     1       0.775  -8.303   1.346  0.00  0.00    +0.023 C 
INPUT-LIGAND-PDBQT: ATOM     14  C4  UNL     1       0.822  -9.698   0.702  0.00  0.00    +0.010 C 
INPUT-LIGAND-PDBQT: BRANCH  13  16
INPUT-LIGAND-PDBQT: ATOM     15  C1  UNL     1      -0.428  -7.030   3.240  0.00  0.00    +0.004 C 
INPUT-LIGAND-PDBQT: ATOM     16  C2  UNL     1      -0.151  -8.372   2.580  0.00  0.00    +0.003 C 
INPUT-LIGAND-PDBQT: ENDBRANCH  13  16
INPUT-LIGAND-PDBQT: ENDBRANCH  12  13
INPUT-LIGAND-PDBQT: BRANCH  12  17
INPUT-LIGAND-PDBQT: ATOM     17  O1  UNL     1       2.754  -8.575   2.734  0.00  0.00    -0.382 OA
INPUT-LIGAND-PDBQT: ATOM     18  H11 UNL     1       3.237  -7.928   3.287  0.00  0.00    +0.210 HD
INPUT-LIGAND-PDBQT: ENDBRANCH  12  17
INPUT-LIGAND-PDBQT: ENDBRANCH   8  12
INPUT-LIGAND-PDBQT: ENDBRANCH   6  10
INPUT-LIGAND-PDBQT: ENDBRANCH   2   6
INPUT-LIGAND-PDBQT: ENDBRANCH   1   4
INPUT-LIGAND-PDBQT: BRANCH   1  19
INPUT-LIGAND-PDBQT: ATOM     19  C18 UNL     1      -0.543  -1.073  -1.594  0.00  0.00    +0.136 C 
INPUT-LIGAND-PDBQT: BRANCH  19  20
INPUT-LIGAND-PDBQT: ATOM     20  O4  UNL     1      -1.491  -0.103  -2.036  0.00  0.00    -0.390 OA
INPUT-LIGAND-PDBQT: ATOM     21  H27 UNL     1      -2.374  -0.520  -1.986  0.00  0.00    +0.210 HD
INPUT-LIGAND-PDBQT: ENDBRANCH  19  20
INPUT-LIGAND-PDBQT: BRANCH  19  22
INPUT-LIGAND-PDBQT: ATOM     22  C19 UNL     1       0.878  -0.509  -1.821  0.00  0.00    +0.045 C 
INPUT-LIGAND-PDBQT: BRANCH  22  23
INPUT-LIGAND-PDBQT: ATOM     23  C20 UNL     1       1.242   0.767  -1.039  0.00  0.00    +0.074 C 
INPUT-LIGAND-PDBQT: ATOM     24  C21 UNL     1       2.704   0.695  -0.580  0.00  0.00    +0.017 C 
INPUT-LIGAND-PDBQT: BRANCH  23  25
INPUT-LIGAND-PDBQT: ATOM     25  C22 UNL     1       1.033   2.065  -1.830  0.00  0.00    +0.217 C 
INPUT-LIGAND-PDBQT: ATOM     26  O5  UNL     1       1.880   2.955  -1.881  0.00  0.00    -0.276 OA
INPUT-LIGAND-PDBQT: ATOM     27  N3  UNL     1      -0.208   2.213  -2.404  0.00  0.00    -0.304 N 
INPUT-LIGAND-PDBQT: ATOM     28  H34 UNL     1      -0.918   1.525  -2.144  0.00  0.00    +0.149 HD
INPUT-LIGAND-PDBQT: BRANCH  27  29
INPUT-LIGAND-PDBQT: ATOM     29  C23 UNL     1      -0.666   3.532  -2.827  0.00  0.00    +0.161 C 
INPUT-LIGAND-PDBQT: BRANCH  29  30
INPUT-LIGAND-PDBQT: ATOM     30  C24 UNL     1      -1.127   4.281  -1.555  0.00  0.00    +0.234 C 
INPUT-LIGAND-PDBQT: ATOM     31  O6  UNL     1      -1.714   3.717  -0.632  0.00  0.00    -0.274 OA
INPUT-LIGAND-PDBQT: ATOM     32  N4  UNL     1      -0.837   5.630  -1.549  0.00  0.00    -0.310 N 
INPUT-LIGAND-PDBQT: ATOM     33  H36 UNL     1      -0.196   5.986  -2.247  0.00  0.00    +0.149 HD
INPUT-LIGAND-PDBQT: BRANCH  32  34
INPUT-LIGAND-PDBQT: ATOM     34  C25 UNL     1      -1.020   6.435  -0.361  0.00  0.00    +0.139 C 
INPUT-LIGAND-PDBQT: BRANCH  34  35
INPUT-LIGAND-PDBQT: ATOM     35  C26 UNL     1       0.291   6.806   0.288  0.00  0.00    -0.027 A 
INPUT-LIGAND-PDBQT: ATOM     36  C27 UNL     1       0.436   8.055   0.903  0.00  0.00    +0.025 A 
INPUT-LIGAND-PDBQT: ATOM     37  C28 UNL     1       1.638   8.362   1.522  0.00  0.00    +0.111 A 
INPUT-LIGAND-PDBQT: ATOM     38  N5  UNL     1       2.692   7.520   1.576  0.00  0.00    -0.263 NA
INPUT-LIGAND-PDBQT: ATOM     39  C29 UNL     1       2.531   6.313   0.994  0.00  0.00    +0.111 A 
INPUT-LIGAND-PDBQT: ATOM     40  C30 UNL     1       1.367   5.914   0.356  0.00  0.00    +0.025 A 
INPUT-LIGAND-PDBQT: ENDBRANCH  34  35
INPUT-LIGAND-PDBQT: ENDBRANCH  32  34
INPUT-LIGAND-PDBQT: ENDBRANCH  29  30
INPUT-LIGAND-PDBQT: BRANCH  29  41
INPUT-LIGAND-PDBQT: ATOM     41  C31 UNL     1      -1.756   3.449  -3.917  0.00  0.00    +0.012 C 
INPUT-LIGAND-PDBQT: ATOM     42  C32 UNL     1      -3.103   2.920  -3.416  0.00  0.00    +0.009 C 
INPUT-LIGAND-PDBQT: ATOM     43  C33 UNL     1      -1.959   4.800  -4.609  0.00  0.00    +0.009 C 
INPUT-LIGAND-PDBQT: ENDBRANCH  29  41
INPUT-LIGAND-PDBQT: ENDBRANCH  27  29
INPUT-LIGAND-PDBQT: ENDBRANCH  23  25
INPUT-LIGAND-PDBQT: ENDBRANCH  22  23
INPUT-LIGAND-PDBQT: ENDBRANCH  19  22
INPUT-LIGAND-PDBQT: ENDBRANCH   1  19
INPUT-LIGAND-PDBQT: BRANCH   1  44
INPUT-LIGAND-PDBQT: ATOM     44  C11 UNL     1      -1.607  -0.647   0.795  0.00  0.00    +0.060 C 
INPUT-LIGAND-PDBQT: BRANCH  44  45
INPUT-LIGAND-PDBQT: ATOM     45  C12 UNL     1      -3.094  -0.513   0.545  0.00  0.00    -0.046 A 
INPUT-LIGAND-PDBQT: ATOM     46  C13 UNL     1      -3.950  -1.612   0.707  0.00  0.00    +0.004 A 
INPUT-LIGAND-PDBQT: ATOM     47  C14 UNL     1      -5.317  -1.490   0.455  0.00  0.00    +0.000 A 
INPUT-LIGAND-PDBQT: ATOM     48  C15 UNL     1      -5.844  -0.267   0.049  0.00  0.00    +0.000 A 
INPUT-LIGAND-PDBQT: ATOM     49  C16 UNL     1      -5.007   0.837  -0.098  0.00  0.00    +0.000 A 
INPUT-LIGAND-PDBQT: ATOM     50  C17 UNL     1      -3.640   0.717   0.156  0.00  0.00    +0.004 A 
INPUT-LIGAND-PDBQT: ENDBRANCH  44  45
INPUT-LIGAND-PDBQT: ENDBRANCH   1  44
INPUT-LIGAND-PDBQT: TORSDOF 19


    FINAL DOCKED STATE:
    ________________________


Run:   1 / 20
Time taken for this run:   0.674s

DOCKED: MODEL        1
DOCKED: USER    Run = 1
DOCKED: USER
DOCKED: USER    Estimated Free Energy of Binding    =  +5.67 kcal/mol  [=(1)+(2)+(3)-(4)]
DOCKED: USER
DOCKED: USER    (1) Final Intermolecular Energy     =  +0.00 kcal/mol
DOCKED: USER        vdW + Hbond + desolv Energy     =  +0.00 kcal/mol
DOCKED: USER        Electrostatic Energy            =  +0.00 kcal/mol
DOCKED: USER        Moving Ligand-Fixed Receptor    =  +0.00 kcal/mol
DOCKED: USER        Moving Ligand-Moving Receptor   =  +0.00 kcal/mol
DOCKED: USER    (2) Final Total Internal Energy     = -12.49 kcal/mol
DOCKED: USER    (3) Torsional Free Energy           =  +5.67 kcal/mol
DOCKED: USER    (4) Unbound System's Energy         = -12.49 kcal/mol
DOCKED: USER
DOCKED: USER
DOCKED: REMARK  Name = ligands/ligand_8.pdb
DOCKED: REMARK  25 active torsions:
DOCKED: REMARK  status: ('A' for Active; 'I' for Inactive)
DOCKED: REMARK    1  A    between atoms: C1_1  and  C2_2
DOCKED: REMARK    2  A    between atoms: C2_2  and  C3_3
DOCKED: REMARK    3  A    between atoms: C3_3  and  C4_4
DOCKED: REMARK    4  A    between atoms: C3_3  and  C5_5
DOCKED: REMARK    5  A    between atoms: C5_5  and  O1_6
DOCKED: REMARK    6  A    between atoms: C5_5  and  C6_7
DOCKED: REMARK    7  A    between atoms: N1_9  and  C7_10
DOCKED: REMARK    8  A    between atoms: C7_10  and  C8_11
DOCKED: REMARK    9  A    between atoms: C7_10  and  C9_12
DOCKED: REMARK   10  A    between atoms: N2_14  and  C10_15
DOCKED: REMARK   11  A    between atoms: C10_15  and  C11_16
DOCKED: REMARK   12  A    between atoms: C10_15  and  C18_23
DOCKED: REMARK   13  A    between atoms: C11_16  and  C12_17
DOCKED: REMARK   14  A    between atoms: C18_23  and  O4_24
DOCKED: REMARK   15  A    between atoms: C18_23  and  C19_25
DOCKED: REMARK   16  A    between atoms: C19_25  and  C20_26
DOCKED: REMARK   17  A    between atoms: C20_26  and  C21_27
DOCKED: REMARK   18  A    between atoms: C20_26  and  C22_28
DOCKED: REMARK   19  A    between atoms: N3_30  and  C23_31
DOCKED: REMARK   20  A    between atoms: C23_31  and  C24_32
DOCKED: REMARK   21  A    between atoms: C23_31  and  C31_42
DOCKED: REMARK   22  A    between atoms: N4_34  and  C25_35
DOCKED: REMARK   23  A    between atoms: C25_35  and  C26_36
DOCKED: REMARK   24  A    between atoms: C31_42  and  C32_43
DOCKED: REMARK   25  A    between atoms: C31_42  and  C33_44
DOCKED: REMARK                            x       y       z     vdW  Elec       q    Type
DOCKED: REMARK                         _______ _______ _______ _____ _____    ______ ____
DOCKED: USER                              x       y       z     vdW  Elec       q    Type
DOCKED: USER                           _______ _______ _______ _____ _____    ______ ____
DOCKED: ROOT
DOCKED: ATOM      1  C10 UNL     1      13.418   3.997  -4.276 +0.00 +0.00    +0.106 C  
DOCKED: ENDROOT
DOCKED: BRANCH   1   4
DOCKED: ATOM      2  C9  UNL     1      13.758   1.855  -5.484 +0.00 +0.00    +0.233 C  
DOCKED: ATOM      3  O3  UNL     1      13.634   2.391  -6.584 +0.00 -0.00    -0.274 OA 
DOCKED: ATOM      4  N2  UNL     1      13.705   2.560  -4.299 +0.00 -0.00    -0.308 N  
DOCKED: ATOM      5  H17 UNL     1      13.906   2.086  -3.426 +0.00 +0.00    +0.149 HD 
DOCKED: BRANCH   2   6
DOCKED: ATOM      6  C7  UNL     1      13.982   0.340  -5.334 +0.00 +0.00    +0.156 C  
DOCKED: ATOM      7  C8  UNL     1      12.995  -0.266  -4.347 +0.00 +0.00    +0.038 C  
DOCKED: BRANCH   6  10
DOCKED: ATOM      8  C6  UNL     1      15.768   0.458  -3.628 +0.00 +0.00    +0.242 C  
DOCKED: ATOM      9  O2  UNL     1      15.049   1.051  -2.822 +0.00 -0.00    -0.273 OA 
DOCKED: ATOM     10  N1  UNL     1      15.356   0.141  -4.895 +0.00 -0.00    -0.302 N  
DOCKED: ATOM     11  H12 UNL     1      15.956  -0.388  -5.523 +0.00 +0.00    +0.150 HD 
DOCKED: BRANCH   8  12
DOCKED: ATOM     12  C5  UNL     1      17.219   0.076  -3.267 +0.00 +0.00    +0.203 C  
DOCKED: BRANCH  12  13
DOCKED: ATOM     13  C3  UNL     1      17.397  -1.380  -2.781 +0.00 +0.00    +0.023 C  
DOCKED: ATOM     14  C4  UNL     1      17.319  -1.412  -1.246 +0.00 +0.00    +0.010 C  
DOCKED: BRANCH  13  16
DOCKED: ATOM     15  C1  UNL     1      15.418  -2.962  -2.297 +0.00 +0.00    +0.004 C  
DOCKED: ATOM     16  C2  UNL     1      16.365  -2.384  -3.338 +0.00 +0.00    +0.003 C  
DOCKED: ENDBRANCH  13  16
DOCKED: ENDBRANCH  12  13
DOCKED: BRANCH  12  17
DOCKED: ATOM     17  O1  UNL     1      17.749   0.977  -2.294 +0.00 -0.00    -0.382 OA 
DOCKED: ATOM     18  H11 UNL     1      17.076   1.679  -2.183 +0.00 +0.00    +0.210 HD 
DOCKED: ENDBRANCH  12  17
DOCKED: ENDBRANCH   8  12
DOCKED: ENDBRANCH   6  10
DOCKED: ENDBRANCH   2   6
DOCKED: ENDBRANCH   1   4
DOCKED: BRANCH   1  19
DOCKED: ATOM     19  C18 UNL     1      13.923   4.701  -2.970 +0.00 +0.00    +0.136 C  
DOCKED: BRANCH  19  20
DOCKED: ATOM     20  O4  UNL     1      14.478   3.775  -2.038 +0.00 -0.00    -0.390 OA 
DOCKED: ATOM     21  H27 UNL     1      14.991   3.121  -2.553 +0.00 +0.00    +0.210 HD 
DOCKED: ENDBRANCH  19  20
DOCKED: BRANCH  19  22
DOCKED: ATOM     22  C19 UNL     1      14.908   5.880  -3.136 +0.00 +0.00    +0.045 C  
DOCKED: BRANCH  22  23
DOCKED: ATOM     23  C20 UNL     1      16.250   5.561  -3.821 +0.00 +0.00    +0.074 C  
DOCKED: ATOM     24  C21 UNL     1      17.175   6.783  -3.745 +0.00 +0.00    +0.017 C  
DOCKED: BRANCH  23  25
DOCKED: ATOM     25  C22 UNL     1      16.980   4.348  -3.230 +0.00 +0.00    +0.217 C  
DOCKED: ATOM     26  O5  UNL     1      16.677   3.190  -3.510 +0.00 -0.00    -0.276 OA 
DOCKED: ATOM     27  N3  UNL     1      17.938   4.638  -2.287 +0.00 -0.00    -0.304 N  
DOCKED: ATOM     28  H34 UNL     1      17.985   5.606  -1.964 +0.00 +0.00    +0.149 HD 
DOCKED: BRANCH  27  29
DOCKED: ATOM     29  C23 UNL     1      18.409   3.598  -1.379 +0.00 +0.00    +0.161 C  
DOCKED: BRANCH  29  30
DOCKED: ATOM     30  C24 UNL     1      17.358   3.472  -0.251 +0.00 +0.00    +0.234 C  
DOCKED: ATOM     31  O6  UNL     1      17.480   4.042   0.833 +0.00 -0.00    -0.274 OA 
DOCKED: ATOM     32  N4  UNL     1      16.284   2.661  -0.557 +0.00 -0.00    -0.310 N  
DOCKED: ATOM     33  H36 UNL     1      16.156   2.378  -1.521 +0.00 +0.00    +0.149 HD 
DOCKED: BRANCH  32  34
DOCKED: ATOM     34  C25 UNL     1      15.123   2.592   0.302 +0.00 +0.00    +0.139 C  
DOCKED: BRANCH  34  35
DOCKED: ATOM     35  C26 UNL     1      14.177   1.486  -0.100 +0.00 -0.00    -0.027 A  
DOCKED: ATOM     36  C27 UNL     1      12.924   1.802  -0.638 +0.00 +0.00    +0.025 A  
DOCKED: ATOM     37  C28 UNL     1      12.084   0.771  -1.031 +0.00 +0.00    +0.111 A  
DOCKED: ATOM     38  N5  UNL     1      12.403  -0.537  -0.932 +0.00 -0.00    -0.263 NA 
DOCKED: ATOM     39  C29 UNL     1      13.622  -0.825  -0.428 +0.00 +0.00    +0.111 A  
DOCKED: ATOM     40  C30 UNL     1      14.531   0.135  -0.013 +0.00 +0.00    +0.025 A  
DOCKED: ENDBRANCH  34  35
DOCKED: ENDBRANCH  32  34
DOCKED: ENDBRANCH  29  30
DOCKED: BRANCH  29  41
DOCKED: ATOM     41  C31 UNL     1      19.834   3.879  -0.858 +0.00 +0.00    +0.012 C  
DOCKED: ATOM     42  C32 UNL     1      20.572   2.637  -0.351 +0.00 +0.00    +0.009 C  
DOCKED: ATOM     43  C33 UNL     1      20.686   4.588  -1.915 +0.00 +0.00    +0.009 C  
DOCKED: ENDBRANCH  29  41
DOCKED: ENDBRANCH  27  29
DOCKED: ENDBRANCH  23  25
DOCKED: ENDBRANCH  22  23
DOCKED: ENDBRANCH  19  22
DOCKED: ENDBRANCH   1  19
DOCKED: BRANCH   1  44
DOCKED: ATOM     44  C11 UNL     1      11.945   4.265  -4.678 +0.00 +0.00    +0.060 C  
DOCKED: BRANCH  44  45
DOCKED: ATOM     45  C12 UNL     1      10.930   3.400  -3.961 +0.00 -0.00    -0.046 A  
DOCKED: ATOM     46  C13 UNL     1      10.382   2.270  -4.584 +0.00 +0.00    +0.004 A  
DOCKED: ATOM     47  C14 UNL     1       9.432   1.488  -3.927 +0.00 +0.00    +0.000 A  
DOCKED: ATOM     48  C15 UNL     1       9.027   1.821  -2.637 +0.00 +0.00    +0.000 A  
DOCKED: ATOM     49  C16 UNL     1       9.577   2.931  -2.000 +0.00 +0.00    +0.000 A  
DOCKED: ATOM     50  C17 UNL     1      10.530   3.712  -2.655 +0.00 +0.00    +0.004 A  
DOCKED: ENDBRANCH  44  45
DOCKED: ENDBRANCH   1  44
DOCKED: TORSDOF 19
DOCKED: TER
DOCKED: ENDMDL
________________________________________________________________________________


    FINAL DOCKED STATE:
    ________________________


Run:   2 / 20
Time taken for this run:   0.674s

DOCKED: MODEL        2
DOCKED: USER    Run = 2
DOCKED: USER
DOCKED: USER    Estimated Free Energy of Binding    =  +5.67 kcal/mol  [=(1)+(2)+(3)-(4)]
DOCKED: USER
DOCKED: USER    (1) Final Intermolecular Energy     =  +0.00 kcal/mol
DOCKED: USER        vdW + Hbond + desolv Energy     =  +0.00 kcal/mol
DOCKED: USER        Electrostatic Energy            =  +0.00 kcal/mol
DOCKED: USER        Moving Ligand-Fixed Receptor    =  +0.00 kcal/mol
DOCKED: USER        Moving Ligand-Moving Receptor   =  +0.00 kcal/mol
DOCKED: USER    (2) Final Total Internal Energy     = -12.52 kcal/mol
DOCKED: USER    (3) Torsional Free Energy           =  +5.67 kcal/mol
DOCKED: USER    (4) Unbound System's Energy         = -12.52 kcal/mol
DOCKED: USER
DOCKED: USER
DOCKED: REMARK  Name = ligands/ligand_8.pdb
DOCKED: REMARK  25 active torsions:
DOCKED: REMARK  status: ('A' for Active; 'I' for Inactive)
DOCKED: REMARK    1  A    between atoms: C1_1  and  C2_2
DOCKED: REMARK    2  A    between atoms: C2_2  and  C3_3
DOCKED: REMARK    3  A    between atoms: C3_3  and  C4_4
DOCKED: REMARK    4  A    between atoms: C3_3  and  C5_5
DOCKED: REMARK    5  A    between atoms: C5_5  and  O1_6
DOCKED: REMARK    6  A    between atoms: C5_5  and  C6_7
DOCKED: REMARK    7  A    between atoms: N1_9  and  C7_10
DOCKED: REMARK    8  A    between atoms: C7_10  and  C8_11
DOCKED: REMARK    9  A    between atoms: C7_10  and  C9_12
DOCKED: REMARK   10  A    between atoms: N2_14  and  C10_15
DOCKED: REMARK   11  A    between atoms: C10_15  and  C11_16
DOCKED: REMARK   12  A    between atoms: C10_15  and  C18_23
DOCKED: REMARK   13  A    between atoms: C11_16  and  C12_17
DOCKED: REMARK   14  A    between atoms: C18_23  and  O4_24
DOCKED: REMARK   15  A    between atoms: C18_23  and  C19_25
DOCKED: REMARK   16  A    between atoms: C19_25  and  C20_26
DOCKED: REMARK   17  A    between atoms: C20_26  and  C21_27
DOCKED: REMARK   18  A    between atoms: C20_26  and  C22_28
DOCKED: REMARK   19  A    between atoms: N3_30  and  C23_31
DOCKED: REMARK   20  A    between atoms: C23_31  and  C24_32
DOCKED: REMARK   21  A    between atoms: C23_31  and  C31_42
DOCKED: REMARK   22  A    between atoms: N4_34  and  C25_35
DOCKED: REMARK   23  A    between atoms: C25_35  and  C26_36
DOCKED: REMARK   24  A    between atoms: C31_42  and  C32_43
DOCKED: REMARK   25  A    between atoms: C31_42  and  C33_44
DOCKED: REMARK                            x       y       z     vdW  Elec       q    Type
DOCKED: REMARK                         _______ _______ _______ _____ _____    ______ ____
DOCKED: USER                              x       y       z     vdW  Elec       q    Type
DOCKED: USER                           _______ _______ _______ _____ _____    ______ ____
DOCKED: ROOT
DOCKED: ATOM      1  C10 UNL     1       7.121  -7.366  -3.275 +0.00 +0.00    +0.106 C  
DOCKED: ENDROOT
DOCKED: BRANCH   1   4
DOCKED: ATOM      2  C9  UNL     1       6.275  -7.974  -5.529 +0.00 +0.00    +0.233 C  
DOCKED: ATOM      3  O3  UNL     1       5.354  -7.160  -5.464 +0.00 -0.00    -0.274 OA 
DOCKED: ATOM      4  N2  UNL     1       7.211  -8.124  -4.527 +0.00 -0.00    -0.308 N  
DOCKED: ATOM      5  H17 UNL     1       8.002  -8.741  -4.670 +0.00 +0.00    +0.149 HD 
DOCKED: BRANCH   2   6
DOCKED: ATOM      6  C7  UNL     1       6.459  -8.904  -6.741 +0.00 +0.00    +0.156 C  
DOCKED: ATOM      7  C8  UNL     1       5.378  -9.973  -6.783 +0.00 +0.00    +0.038 C  
DOCKED: BRANCH   6  10
DOCKED: ATOM      8  C6  UNL     1       8.904  -8.742  -6.411 +0.00 +0.00    +0.242 C  
DOCKED: ATOM      9  O2  UNL     1       8.888  -7.510  -6.409 +0.00 -0.00    -0.273 OA 
DOCKED: ATOM     10  N1  UNL     1       7.785  -9.497  -6.641 +0.00 -0.00    -0.302 N  
DOCKED: ATOM     11  H12 UNL     1       7.820 -10.512  -6.593 +0.00 +0.00    +0.150 HD 
DOCKED: BRANCH   8  12
DOCKED: ATOM     12  C5  UNL     1      10.221  -9.520  -6.204 +0.00 +0.00    +0.203 C  
DOCKED: BRANCH  12  13
DOCKED: ATOM     13  C3  UNL     1      10.036 -10.978  -5.728 +0.00 +0.00    +0.023 C  
DOCKED: ATOM     14  C4  UNL     1      11.413 -11.587  -5.419 +0.00 +0.00    +0.010 C  
DOCKED: BRANCH  13  16
DOCKED: ATOM     15  C1  UNL     1       9.853 -10.912  -3.156 +0.00 +0.00    +0.004 C  
DOCKED: ATOM     16  C2  UNL     1       9.142 -11.148  -4.480 +0.00 +0.00    +0.003 C  
DOCKED: ENDBRANCH  13  16
DOCKED: ENDBRANCH  12  13
DOCKED: BRANCH  12  17
DOCKED: ATOM     17  O1  UNL     1      11.080  -8.824  -5.300 +0.00 -0.00    -0.382 OA 
DOCKED: ATOM     18  H11 UNL     1      10.673  -7.944  -5.167 +0.00 +0.00    +0.210 HD 
DOCKED: ENDBRANCH  12  17
DOCKED: ENDBRANCH   8  12
DOCKED: ENDBRANCH   6  10
DOCKED: ENDBRANCH   2   6
DOCKED: ENDBRANCH   1   4
DOCKED: BRANCH   1  19
DOCKED: ATOM     19  C18 UNL     1       8.522  -7.049  -2.651 +0.00 +0.00    +0.136 C  
DOCKED: BRANCH  19  20
DOCKED: ATOM     20  O4  UNL     1       9.578  -7.745  -3.310 +0.00 -0.00    -0.390 OA 
DOCKED: ATOM     21  H27 UNL     1       9.437  -7.637  -4.272 +0.00 +0.00    +0.210 HD 
DOCKED: ENDBRANCH  19  20
DOCKED: BRANCH  19  22
DOCKED: ATOM     22  C19 UNL     1       8.920  -5.561  -2.523 +0.00 +0.00    +0.045 C  
DOCKED: BRANCH  22  23
DOCKED: ATOM     23  C20 UNL     1       9.350  -4.852  -3.821 +0.00 +0.00    +0.074 C  
DOCKED: ATOM     24  C21 UNL     1       9.425  -3.338  -3.585 +0.00 +0.00    +0.017 C  
DOCKED: BRANCH  23  25
DOCKED: ATOM     25  C22 UNL     1      10.694  -5.335  -4.380 +0.00 +0.00    +0.217 C  
DOCKED: ATOM     26  O5  UNL     1      10.782  -6.237  -5.212 +0.00 -0.00    -0.276 OA 
DOCKED: ATOM     27  N3  UNL     1      11.809  -4.759  -3.818 +0.00 -0.00    -0.304 N  
DOCKED: ATOM     28  H34 UNL     1      11.655  -4.172  -2.995 +0.00 +0.00    +0.149 HD 
DOCKED: BRANCH  27  29
DOCKED: ATOM     29  C23 UNL     1      13.114  -5.395  -3.961 +0.00 +0.00    +0.161 C  
DOCKED: BRANCH  29  30
DOCKED: ATOM     30  C24 UNL     1      13.226  -6.455  -2.841 +0.00 +0.00    +0.234 C  
DOCKED: ATOM     31  O6  UNL     1      13.991  -6.328  -1.885 +0.00 -0.00    -0.274 OA 
DOCKED: ATOM     32  N4  UNL     1      12.411  -7.556  -3.011 +0.00 -0.00    -0.310 N  
DOCKED: ATOM     33  H36 UNL     1      11.682  -7.509  -3.712 +0.00 +0.00    +0.149 HD 
DOCKED: BRANCH  32  34
DOCKED: ATOM     34  C25 UNL     1      12.247  -8.541  -1.964 +0.00 +0.00    +0.139 C  
DOCKED: BRANCH  34  35
DOCKED: ATOM     35  C26 UNL     1      11.237  -8.114  -0.928 +0.00 -0.00    -0.027 A  
DOCKED: ATOM     36  C27 UNL     1      10.315  -9.042  -0.429 +0.00 +0.00    +0.025 A  
DOCKED: ATOM     37  C28 UNL     1       9.417  -8.637   0.546 +0.00 +0.00    +0.111 A  
DOCKED: ATOM     38  N5  UNL     1       9.377  -7.389   1.059 +0.00 -0.00    -0.263 NA 
DOCKED: ATOM     39  C29 UNL     1      10.283  -6.510   0.581 +0.00 +0.00    +0.111 A  
DOCKED: ATOM     40  C30 UNL     1      11.222  -6.823  -0.390 +0.00 +0.00    +0.025 A  
DOCKED: ENDBRANCH  34  35
DOCKED: ENDBRANCH  32  34
DOCKED: ENDBRANCH  29  30
DOCKED: BRANCH  29  41
DOCKED: ATOM     41  C31 UNL     1      14.268  -4.369  -3.951 +0.00 +0.00    +0.012 C  
DOCKED: ATOM     42  C32 UNL     1      14.546  -3.728  -5.313 +0.00 +0.00    +0.009 C  
DOCKED: ATOM     43  C33 UNL     1      14.034  -3.276  -2.905 +0.00 +0.00    +0.009 C  
DOCKED: ENDBRANCH  29  41
DOCKED: ENDBRANCH  27  29
DOCKED: ENDBRANCH  23  25
DOCKED: ENDBRANCH  22  23
DOCKED: ENDBRANCH  19  22
DOCKED: ENDBRANCH   1  19
DOCKED: BRANCH   1  44
DOCKED: ATOM     44  C11 UNL     1       6.071  -8.003  -2.328 +0.00 +0.00    +0.060 C  
DOCKED: BRANCH  44  45
DOCKED: ATOM     45  C12 UNL     1       6.183  -9.506  -2.185 +0.00 -0.00    -0.046 A  
DOCKED: ATOM     46  C13 UNL     1       6.940 -10.073  -1.150 +0.00 +0.00    +0.004 A  
DOCKED: ATOM     47  C14 UNL     1       7.059 -11.459  -1.034 +0.00 +0.00    +0.000 A  
DOCKED: ATOM     48  C15 UNL     1       6.414 -12.291  -1.945 +0.00 +0.00    +0.000 A  
DOCKED: ATOM     49  C16 UNL     1       5.644 -11.740  -2.967 +0.00 +0.00    +0.000 A  
DOCKED: ATOM     50  C17 UNL     1       5.523 -10.355  -3.083 +0.00 +0.00    +0.004 A  
DOCKED: ENDBRANCH  44  45
DOCKED: ENDBRANCH   1  44
DOCKED: TORSDOF 19
DOCKED: TER
DOCKED: ENDMDL
________________________________________________________________________________


    FINAL DOCKED STATE:
    ________________________


Run:   3 / 20
Time taken for this run:   0.674s

DOCKED: MODEL        3
DOCKED: USER    Run = 3
DOCKED: USER
DOCKED: USER    Estimated Free Energy of Binding    =  +5.67 kcal/mol  [=(1)+(2)+(3)-(4)]
DOCKED: USER
DOCKED: USER    (1) Final Intermolecular Energy     =  +0.00 kcal/mol
DOCKED: USER        vdW + Hbond + desolv Energy     =  +0.00 kcal/mol
DOCKED: USER        Electrostatic Energy            =  +0.00 kcal/mol
DOCKED: USER        Moving Ligand-Fixed Receptor    =  +0.00 kcal/mol
DOCKED: USER        Moving Ligand-Moving Receptor   =  +0.00 kcal/mol
DOCKED: USER    (2) Final Total Internal Energy     = -12.51 kcal/mol
DOCKED: USER    (3) Torsional Free Energy           =  +5.67 kcal/mol
DOCKED: USER    (4) Unbound System's Energy         = -12.51 kcal/mol
DOCKED: USER
DOCKED: USER
DOCKED: REMARK  Name = ligands/ligand_8.pdb
DOCKED: REMARK  25 active torsions:
DOCKED: REMARK  status: ('A' for Active; 'I' for Inactive)
DOCKED: REMARK    1  A    between atoms: C1_1  and  C2_2
DOCKED: REMARK    2  A    between atoms: C2_2  and  C3_3
DOCKED: REMARK    3  A    between atoms: C3_3  and  C4_4
DOCKED: REMARK    4  A    between atoms: C3_3  and  C5_5
DOCKED: REMARK    5  A    between atoms: C5_5  and  O1_6
DOCKED: REMARK    6  A    between atoms: C5_5  and  C6_7
DOCKED: REMARK    7  A    between atoms: N1_9  and  C7_10
DOCKED: REMARK    8  A    between atoms: C7_10  and  C8_11
DOCKED: REMARK    9  A    between atoms: C7_10  and  C9_12
DOCKED: REMARK   10  A    between atoms: N2_14  and  C10_15
DOCKED: REMARK   11  A    between atoms: C10_15  and  C11_16
DOCKED: REMARK   12  A    between atoms: C10_15  and  C18_23
DOCKED: REMARK   13  A    between atoms: C11_16  and  C12_17
DOCKED: REMARK   14  A    between atoms: C18_23  and  O4_24
DOCKED: REMARK   15  A    between atoms: C18_23  and  C19_25
DOCKED: REMARK   16  A    between atoms: C19_25  and  C20_26
DOCKED: REMARK   17  A    between atoms: C20_26  and  C21_27
DOCKED: REMARK   18  A    between atoms: C20_26  and  C22_28
DOCKED: REMARK   19  A    between atoms: N3_30  and  C23_31
DOCKED: REMARK   20  A    between atoms: C23_31  and  C24_32
DOCKED: REMARK   21  A    between atoms: C23_31  and  C31_42
DOCKED: REMARK   22  A    between atoms: N4_34  and  C25_35
DOCKED: REMARK   23  A    between atoms: C25_35  and  C26_36
DOCKED: REMARK   24  A    between atoms: C31_42  and  C32_43
DOCKED: REMARK   25  A    between atoms: C31_42  and  C33_44
DOCKED: REMARK                            x       y       z     vdW  Elec       q    Type
DOCKED: REMARK                         _______ _______ _______ _____ _____    ______ ____
DOCKED: USER                              x       y       z     vdW  Elec       q    Type
DOCKED: USER                           _______ _______ _______ _____ _____    ______ ____
DOCKED: ROOT
DOCKED: ATOM      1  C10 UNL     1       7.954   2.700  -1.663 +0.00 +0.00    +0.106 C  
DOCKED: ENDROOT
DOCKED: BRANCH   1   4
DOCKED: ATOM      2  C9  UNL     1       8.538   0.527  -0.612 +0.00 +0.00    +0.233 C  
DOCKED: ATOM      3  O3  UNL     1       7.727   0.687   0.300 +0.00 -0.00    -0.274 OA 
DOCKED: ATOM      4  N2  UNL     1       8.697   1.436  -1.637 +0.00 -0.00    -0.308 N  
DOCKED: ATOM      5  H17 UNL     1       9.311   1.213  -2.413 +0.00 +0.00    +0.149 HD 
DOCKED: BRANCH   2   6
DOCKED: ATOM      6  C7  UNL     1       9.453  -0.708  -0.684 +0.00 +0.00    +0.156 C  
DOCKED: ATOM      7  C8  UNL     1      10.502  -0.679   0.417 +0.00 +0.00    +0.038 C  
DOCKED: BRANCH   6  10
DOCKED: ATOM      8  C6  UNL     1       9.337  -0.589  -3.152 +0.00 +0.00    +0.242 C  
DOCKED: ATOM      9  O2  UNL     1       8.105  -0.589  -3.159 +0.00 -0.00    -0.273 OA 
DOCKED: ATOM     10  N1  UNL     1      10.071  -0.718  -2.002 +0.00 -0.00    -0.302 N  
DOCKED: ATOM     11  H12 UNL     1      11.087  -0.670  -2.023 +0.00 +0.00    +0.150 HD 
DOCKED: BRANCH   8  12
DOCKED: ATOM     12  C5  UNL     1      10.140  -0.491  -4.466 +0.00 +0.00    +0.203 C  
DOCKED: BRANCH  12  13
DOCKED: ATOM     13  C3  UNL     1      11.596  -0.003  -4.294 +0.00 +0.00    +0.023 C  
DOCKED: ATOM     14  C4  UNL     1      12.229   0.194  -5.681 +0.00 +0.00    +0.010 C  
DOCKED: BRANCH  13  16
DOCKED: ATOM     15  C1  UNL     1      11.551   2.576  -4.324 +0.00 +0.00    +0.004 C  
DOCKED: ATOM     16  C2  UNL     1      11.752   1.313  -3.501 +0.00 +0.00    +0.003 C  
DOCKED: ENDBRANCH  13  16
DOCKED: ENDBRANCH  12  13
DOCKED: BRANCH  12  17
DOCKED: ATOM     17  O1  UNL     1       9.461   0.340  -5.409 +0.00 -0.00    -0.382 OA 
DOCKED: ATOM     18  H11 UNL     1       8.574   0.507  -5.031 +0.00 +0.00    +0.210 HD 
DOCKED: ENDBRANCH  12  17
DOCKED: ENDBRANCH   8  12
DOCKED: ENDBRANCH   6  10
DOCKED: ENDBRANCH   2   6
DOCKED: ENDBRANCH   1   4
DOCKED: BRANCH   1  19
DOCKED: ATOM     19  C18 UNL     1       7.671   3.213  -3.115 +0.00 +0.00    +0.136 C  
DOCKED: BRANCH  19  20
DOCKED: ATOM     20  O4  UNL     1       8.363   2.451  -4.102 +0.00 -0.00    -0.390 OA 
DOCKED: ATOM     21  H27 UNL     1       8.274   1.509  -3.854 +0.00 +0.00    +0.210 HD 
DOCKED: ENDBRANCH  19  20
DOCKED: BRANCH  19  22
DOCKED: ATOM     22  C19 UNL     1       6.191   3.344  -3.544 +0.00 +0.00    +0.045 C  
DOCKED: BRANCH  22  23
DOCKED: ATOM     23  C20 UNL     1       5.459   2.033  -3.888 +0.00 +0.00    +0.074 C  
DOCKED: ATOM     24  C21 UNL     1       3.957   2.303  -4.042 +0.00 +0.00    +0.017 C  
DOCKED: BRANCH  23  25
DOCKED: ATOM     25  C22 UNL     1       5.973   1.345  -5.159 +0.00 +0.00    +0.217 C  
DOCKED: ATOM     26  O5  UNL     1       6.874   0.508  -5.143 +0.00 -0.00    -0.276 OA 
DOCKED: ATOM     27  N3  UNL     1       5.425   1.796  -6.337 +0.00 -0.00    -0.304 N  
DOCKED: ATOM     28  H34 UNL     1       4.837   2.630  -6.279 +0.00 +0.00    +0.149 HD 
DOCKED: BRANCH  27  29
DOCKED: ATOM     29  C23 UNL     1       6.092   1.526  -7.606 +0.00 +0.00    +0.161 C  
DOCKED: BRANCH  29  30
DOCKED: ATOM     30  C24 UNL     1       7.163   2.625  -7.798 +0.00 +0.00    +0.234 C  
DOCKED: ATOM     31  O6  UNL     1       7.054   3.515  -8.641 +0.00 -0.00    -0.274 OA 
DOCKED: ATOM     32  N4  UNL     1       8.251   2.517  -6.956 +0.00 -0.00    -0.310 N  
DOCKED: ATOM     33  H36 UNL     1       8.189   1.880  -6.171 +0.00 +0.00    +0.149 HD 
DOCKED: BRANCH  32  34
DOCKED: ATOM     34  C25 UNL     1       9.243   3.567  -6.867 +0.00 +0.00    +0.139 C  
DOCKED: BRANCH  34  35
DOCKED: ATOM     35  C26 UNL     1       8.809   4.690  -5.958 +0.00 -0.00    -0.027 A  
DOCKED: ATOM     36  C27 UNL     1       9.727   5.264  -5.071 +0.00 +0.00    +0.025 A  
DOCKED: ATOM     37  C28 UNL     1       9.316   6.317  -4.269 +0.00 +0.00    +0.111 A  
DOCKED: ATOM     38  N5  UNL     1       8.070   6.837  -4.291 +0.00 -0.00    -0.263 NA 
DOCKED: ATOM     39  C29 UNL     1       7.201   6.285  -5.164 +0.00 +0.00    +0.111 A  
DOCKED: ATOM     40  C30 UNL     1       7.521   5.234  -6.009 +0.00 +0.00    +0.025 A  
DOCKED: ENDBRANCH  34  35
DOCKED: ENDBRANCH  32  34
DOCKED: ENDBRANCH  29  30
DOCKED: BRANCH  29  41
DOCKED: ATOM     41  C31 UNL     1       5.096   1.431  -8.781 +0.00 +0.00    +0.012 C  
DOCKED: ATOM     42  C32 UNL     1       4.458   0.049  -8.950 +0.00 +0.00    +0.009 C  
DOCKED: ATOM     43  C33 UNL     1       3.999   2.494  -8.671 +0.00 +0.00    +0.009 C  
DOCKED: ENDBRANCH  29  41
DOCKED: ENDBRANCH  27  29
DOCKED: ENDBRANCH  23  25
DOCKED: ENDBRANCH  22  23
DOCKED: ENDBRANCH  19  22
DOCKED: ENDBRANCH   1  19
DOCKED: BRANCH   1  44
DOCKED: ATOM     44  C11 UNL     1       8.584   3.721  -0.680 +0.00 +0.00    +0.060 C  
DOCKED: BRANCH  44  45
DOCKED: ATOM     45  C12 UNL     1      10.087   3.859  -0.795 +0.00 -0.00    -0.046 A  
DOCKED: ATOM     46  C13 UNL     1      10.656   4.844  -1.614 +0.00 +0.00    +0.004 A  
DOCKED: ATOM     47  C14 UNL     1      12.042   4.954  -1.734 +0.00 +0.00    +0.000 A  
DOCKED: ATOM     48  C15 UNL     1      12.873   4.088  -1.028 +0.00 +0.00    +0.000 A  
DOCKED: ATOM     49  C16 UNL     1      12.320   3.116  -0.197 +0.00 +0.00    +0.000 A  
DOCKED: ATOM     50  C17 UNL     1      10.934   3.007  -0.074 +0.00 +0.00    +0.004 A  
DOCKED: ENDBRANCH  44  45
DOCKED: ENDBRANCH   1  44
DOCKED: TORSDOF 19
DOCKED: TER
DOCKED: ENDMDL
________________________________________________________________________________


    FINAL DOCKED STATE:
    ________________________


Run:   4 / 20
Time taken for this run:   0.674s

DOCKED: MODEL        4
DOCKED: USER    Run = 4
DOCKED: USER
DOCKED: USER    Estimated Free Energy of Binding    =  +5.67 kcal/mol  [=(1)+(2)+(3)-(4)]
DOCKED: USER
DOCKED: USER    (1) Final Intermolecular Energy     =  +0.00 kcal/mol
DOCKED: USER        vdW + Hbond + desolv Energy     =  +0.00 kcal/mol
DOCKED: USER        Electrostatic Energy            =  +0.00 kcal/mol
DOCKED: USER        Moving Ligand-Fixed Receptor    =  +0.00 kcal/mol
DOCKED: USER        Moving Ligand-Moving Receptor   =  +0.00 kcal/mol
DOCKED: USER    (2) Final Total Internal Energy     = -12.49 kcal/mol
DOCKED: USER    (3) Torsional Free Energy           =  +5.67 kcal/mol
DOCKED: USER    (4) Unbound System's Energy         = -12.49 kcal/mol
DOCKED: USER
DOCKED: USER
DOCKED: REMARK  Name = ligands/ligand_8.pdb
DOCKED: REMARK  25 active torsions:
DOCKED: REMARK  status: ('A' for Active; 'I' for Inactive)
DOCKED: REMARK    1  A    between atoms: C1_1  and  C2_2
DOCKED: REMARK    2  A    between atoms: C2_2  and  C3_3
DOCKED: REMARK    3  A    between atoms: C3_3  and  C4_4
DOCKED: REMARK    4  A    between atoms: C3_3  and  C5_5
DOCKED: REMARK    5  A    between atoms: C5_5  and  O1_6
DOCKED: REMARK    6  A    between atoms: C5_5  and  C6_7
DOCKED: REMARK    7  A    between atoms: N1_9  and  C7_10
DOCKED: REMARK    8  A    between atoms: C7_10  and  C8_11
DOCKED: REMARK    9  A    between atoms: C7_10  and  C9_12
DOCKED: REMARK   10  A    between atoms: N2_14  and  C10_15
DOCKED: REMARK   11  A    between atoms: C10_15  and  C11_16
DOCKED: REMARK   12  A    between atoms: C10_15  and  C18_23
DOCKED: REMARK   13  A    between atoms: C11_16  and  C12_17
DOCKED: REMARK   14  A    between atoms: C18_23  and  O4_24
DOCKED: REMARK   15  A    between atoms: C18_23  and  C19_25
DOCKED: REMARK   16  A    between atoms: C19_25  and  C20_26
DOCKED: REMARK   17  A    between atoms: C20_26  and  C21_27
DOCKED: REMARK   18  A    between atoms: C20_26  and  C22_28
DOCKED: REMARK   19  A    between atoms: N3_30  and  C23_31
DOCKED: REMARK   20  A    between atoms: C23_31  and  C24_32
DOCKED: REMARK   21  A    between atoms: C23_31  and  C31_42
DOCKED: REMARK   22  A    between atoms: N4_34  and  C25_35
DOCKED: REMARK   23  A    between atoms: C25_35  and  C26_36
DOCKED: REMARK   24  A    between atoms: C31_42  and  C32_43
DOCKED: REMARK   25  A    between atoms: C31_42  and  C33_44
DOCKED: REMARK                            x       y       z     vdW  Elec       q    Type
DOCKED: REMARK                         _______ _______ _______ _____ _____    ______ ____
DOCKED: USER                              x       y       z     vdW  Elec       q    Type
DOCKED: USER                           _______ _______ _______ _____ _____    ______ ____
DOCKED: ROOT
DOCKED: ATOM      1  C10 UNL     1      10.815  -4.234   1.676 +0.00 +0.00    +0.106 C  
DOCKED: ENDROOT
DOCKED: BRANCH   1   4
DOCKED: ATOM      2  C9  UNL     1       9.128  -4.568  -0.115 +0.00 +0.00    +0.233 C  
DOCKED: ATOM      3  O3  UNL     1       9.493  -5.725  -0.321 +0.00 -0.00    -0.274 OA 
DOCKED: ATOM      4  N2  UNL     1       9.687  -3.771   0.862 +0.00 -0.00    -0.308 N  
DOCKED: ATOM      5  H17 UNL     1       9.287  -2.859   1.053 +0.00 +0.00    +0.149 HD 
DOCKED: BRANCH   2   6
DOCKED: ATOM      6  C7  UNL     1       8.010  -3.906  -0.940 +0.00 +0.00    +0.156 C  
DOCKED: ATOM      7  C8  UNL     1       8.459  -2.562  -1.493 +0.00 +0.00    +0.038 C  
DOCKED: BRANCH   6  10
DOCKED: ATOM      8  C6  UNL     1       6.823  -2.846   0.953 +0.00 +0.00    +0.242 C  
DOCKED: ATOM      9  O2  UNL     1       7.810  -2.189   1.289 +0.00 -0.00    -0.273 OA 
DOCKED: ATOM     10  N1  UNL     1       6.852  -3.758  -0.069 +0.00 -0.00    -0.302 N  
DOCKED: ATOM     11  H12 UNL     1       6.011  -4.252  -0.353 +0.00 +0.00    +0.150 HD 
DOCKED: BRANCH   8  12
DOCKED: ATOM     12  C5  UNL     1       5.485  -2.714   1.710 +0.00 +0.00    +0.203 C  
DOCKED: BRANCH  12  13
DOCKED: ATOM     13  C3  UNL     1       4.526  -1.646   1.139 +0.00 +0.00    +0.023 C  
DOCKED: ATOM     14  C4  UNL     1       4.299  -0.554   2.196 +0.00 +0.00    +0.010 C  
DOCKED: BRANCH  13  16
DOCKED: ATOM     15  C1  UNL     1       4.589  -1.674  -1.440 +0.00 +0.00    +0.004 C  
DOCKED: ATOM     16  C2  UNL     1       5.009  -0.966  -0.161 +0.00 +0.00    +0.003 C  
DOCKED: ENDBRANCH  13  16
DOCKED: ENDBRANCH  12  13
DOCKED: BRANCH  12  17
DOCKED: ATOM     17  O1  UNL     1       5.715  -2.462   3.098 +0.00 -0.00    -0.382 OA 
DOCKED: ATOM     18  H11 UNL     1       6.686  -2.484   3.217 +0.00 +0.00    +0.210 HD 
DOCKED: ENDBRANCH  12  17
DOCKED: ENDBRANCH   8  12
DOCKED: ENDBRANCH   6  10
DOCKED: ENDBRANCH   2   6
DOCKED: ENDBRANCH   1   4
DOCKED: BRANCH   1  19
DOCKED: ATOM     19  C18 UNL     1      10.971  -3.438   3.016 +0.00 +0.00    +0.136 C  
DOCKED: BRANCH  19  20
DOCKED: ATOM     20  O4  UNL     1      10.001  -2.400   3.143 +0.00 -0.00    -0.390 OA 
DOCKED: ATOM     21  H27 UNL     1       9.160  -2.746   2.785 +0.00 +0.00    +0.210 HD 
DOCKED: ENDBRANCH  19  20
DOCKED: BRANCH  19  22
DOCKED: ATOM     22  C19 UNL     1      10.989  -4.256   4.327 +0.00 +0.00    +0.045 C  
DOCKED: BRANCH  22  23
DOCKED: ATOM     23  C20 UNL     1       9.719  -5.067   4.647 +0.00 +0.00    +0.074 C  
DOCKED: ATOM     24  C21 UNL     1       9.802  -5.619   6.076 +0.00 +0.00    +0.017 C  
DOCKED: BRANCH  23  25
DOCKED: ATOM     25  C22 UNL     1       8.416  -4.272   4.496 +0.00 +0.00    +0.217 C  
DOCKED: ATOM     26  O5  UNL     1       7.924  -4.004   3.401 +0.00 -0.00    -0.276 OA 
DOCKED: ATOM     27  N3  UNL     1       7.879  -3.792   5.668 +0.00 -0.00    -0.304 N  
DOCKED: ATOM     28  H34 UNL     1       8.455  -3.884   6.507 +0.00 +0.00    +0.149 HD 
DOCKED: BRANCH  27  29
DOCKED: ATOM     29  C23 UNL     1       6.897  -2.713   5.635 +0.00 +0.00    +0.161 C  
DOCKED: BRANCH  29  30
DOCKED: ATOM     30  C24 UNL     1       7.680  -1.394   5.434 +0.00 +0.00    +0.234 C  
DOCKED: ATOM     31  O6  UNL     1       8.004  -0.669   6.373 +0.00 -0.00    -0.274 OA 
DOCKED: ATOM     32  N4  UNL     1       7.970  -1.097   4.118 +0.00 -0.00    -0.310 N  
DOCKED: ATOM     33  H36 UNL     1       7.839  -1.820   3.422 +0.00 +0.00    +0.149 HD 
DOCKED: BRANCH  32  34
DOCKED: ATOM     34  C25 UNL     1       8.861  -0.011   3.770 +0.00 +0.00    +0.139 C  
DOCKED: BRANCH  34  35
DOCKED: ATOM     35  C26 UNL     1       8.870   0.270   2.287 +0.00 -0.00    -0.027 A  
DOCKED: ATOM     36  C27 UNL     1      10.018  -0.002   1.533 +0.00 +0.00    +0.025 A  
DOCKED: ATOM     37  C28 UNL     1       9.994   0.232   0.167 +0.00 +0.00    +0.111 A  
DOCKED: ATOM     38  N5  UNL     1       8.917   0.708  -0.495 +0.00 -0.00    -0.263 NA 
DOCKED: ATOM     39  C29 UNL     1       7.813   0.949   0.243 +0.00 +0.00    +0.111 A  
DOCKED: ATOM     40  C30 UNL     1       7.740   0.742   1.611 +0.00 +0.00    +0.025 A  
DOCKED: ENDBRANCH  34  35
DOCKED: ENDBRANCH  32  34
DOCKED: ENDBRANCH  29  30
DOCKED: BRANCH  29  41
DOCKED: ATOM     41  C31 UNL     1       5.997  -2.705   6.889 +0.00 +0.00    +0.012 C  
DOCKED: ATOM     42  C32 UNL     1       4.662  -1.980   6.696 +0.00 +0.00    +0.009 C  
DOCKED: ATOM     43  C33 UNL     1       5.742  -4.125   7.403 +0.00 +0.00    +0.009 C  
DOCKED: ENDBRANCH  29  41
DOCKED: ENDBRANCH  27  29
DOCKED: ENDBRANCH  23  25
DOCKED: ENDBRANCH  22  23
DOCKED: ENDBRANCH  19  22
DOCKED: ENDBRANCH   1  19
DOCKED: BRANCH   1  44
DOCKED: ATOM     44  C11 UNL     1      12.091  -4.376   0.805 +0.00 +0.00    +0.060 C  
DOCKED: BRANCH  44  45
DOCKED: ATOM     45  C12 UNL     1      12.389  -3.179  -0.073 +0.00 -0.00    -0.046 A  
DOCKED: ATOM     46  C13 UNL     1      12.976  -2.024   0.465 +0.00 +0.00    +0.004 A  
DOCKED: ATOM     47  C14 UNL     1      13.230  -0.915  -0.343 +0.00 +0.00    +0.000 A  
DOCKED: ATOM     48  C15 UNL     1      12.910  -0.952  -1.697 +0.00 +0.00    +0.000 A  
DOCKED: ATOM     49  C16 UNL     1      12.344  -2.100  -2.247 +0.00 +0.00    +0.000 A  
DOCKED: ATOM     50  C17 UNL     1      12.091  -3.211  -1.441 +0.00 +0.00    +0.004 A  
DOCKED: ENDBRANCH  44  45
DOCKED: ENDBRANCH   1  44
DOCKED: TORSDOF 19
DOCKED: TER
DOCKED: ENDMDL
________________________________________________________________________________


    FINAL DOCKED STATE:
    ________________________


Run:   5 / 20
Time taken for this run:   0.674s

DOCKED: MODEL        5
DOCKED: USER    Run = 5
DOCKED: USER
DOCKED: USER    Estimated Free Energy of Binding    =  +5.67 kcal/mol  [=(1)+(2)+(3)-(4)]
DOCKED: USER
DOCKED: USER    (1) Final Intermolecular Energy     =  +0.00 kcal/mol
DOCKED: USER        vdW + Hbond + desolv Energy     =  +0.00 kcal/mol
DOCKED: USER        Electrostatic Energy            =  +0.00 kcal/mol
DOCKED: USER        Moving Ligand-Fixed Receptor    =  +0.00 kcal/mol
DOCKED: USER        Moving Ligand-Moving Receptor   =  +0.00 kcal/mol
DOCKED: USER    (2) Final Total Internal Energy     = -12.49 kcal/mol
DOCKED: USER    (3) Torsional Free Energy           =  +5.67 kcal/mol
DOCKED: USER    (4) Unbound System's Energy         = -12.49 kcal/mol
DOCKED: USER
DOCKED: USER
DOCKED: REMARK  Name = ligands/ligand_8.pdb
DOCKED: REMARK  25 active torsions:
DOCKED: REMARK  status: ('A' for Active; 'I' for Inactive)
DOCKED: REMARK    1  A    between atoms: C1_1  and  C2_2
DOCKED: REMARK    2  A    between atoms: C2_2  and  C3_3
DOCKED: REMARK    3  A    between atoms: C3_3  and  C4_4
DOCKED: REMARK    4  A    between atoms: C3_3  and  C5_5
DOCKED: REMARK    5  A    between atoms: C5_5  and  O1_6
DOCKED: REMARK    6  A    between atoms: C5_5  and  C6_7
DOCKED: REMARK    7  A    between atoms: N1_9  and  C7_10
DOCKED: REMARK    8  A    between atoms: C7_10  and  C8_11
DOCKED: REMARK    9  A    between atoms: C7_10  and  C9_12
DOCKED: REMARK   10  A    between atoms: N2_14  and  C10_15
DOCKED: REMARK   11  A    between atoms: C10_15  and  C11_16
DOCKED: REMARK   12  A    between atoms: C10_15  and  C18_23
DOCKED: REMARK   13  A    between atoms: C11_16  and  C12_17
DOCKED: REMARK   14  A    between atoms: C18_23  and  O4_24
DOCKED: REMARK   15  A    between atoms: C18_23  and  C19_25
DOCKED: REMARK   16  A    between atoms: C19_25  and  C20_26
DOCKED: REMARK   17  A    between atoms: C20_26  and  C21_27
DOCKED: REMARK   18  A    between atoms: C20_26  and  C22_28
DOCKED: REMARK   19  A    between atoms: N3_30  and  C23_31
DOCKED: REMARK   20  A    between atoms: C23_31  and  C24_32
DOCKED: REMARK   21  A    between atoms: C23_31  and  C31_42
DOCKED: REMARK   22  A    between atoms: N4_34  and  C25_35
DOCKED: REMARK   23  A    between atoms: C25_35  and  C26_36
DOCKED: REMARK   24  A    between atoms: C31_42  and  C32_43
DOCKED: REMARK   25  A    between atoms: C31_42  and  C33_44
DOCKED: REMARK                            x       y       z     vdW  Elec       q    Type
DOCKED: REMARK                         _______ _______ _______ _____ _____    ______ ____
DOCKED: USER                              x       y       z     vdW  Elec       q    Type
DOCKED: USER                           _______ _______ _______ _____ _____    ______ ____
DOCKED: ROOT
DOCKED: ATOM      1  C10 UNL     1      10.864  -3.682  -2.381 +0.00 +0.00    +0.106 C  
DOCKED: ENDROOT
DOCKED: BRANCH   1   4
DOCKED: ATOM      2  C9  UNL     1       9.205  -5.450  -2.918 +0.00 +0.00    +0.233 C  
DOCKED: ATOM      3  O3  UNL     1       9.750  -6.265  -2.175 +0.00 -0.00    -0.274 OA 
DOCKED: ATOM      4  N2  UNL     1       9.652  -4.152  -3.060 +0.00 -0.00    -0.308 N  
DOCKED: ATOM      5  H17 UNL     1       9.113  -3.495  -3.611 +0.00 +0.00    +0.149 HD 
DOCKED: BRANCH   2   6
DOCKED: ATOM      6  C7  UNL     1       7.971  -5.812  -3.763 +0.00 +0.00    +0.156 C  
DOCKED: ATOM      7  C8  UNL     1       8.181  -5.450  -5.225 +0.00 +0.00    +0.038 C  
DOCKED: BRANCH   6  10
DOCKED: ATOM      8  C6  UNL     1       6.685  -3.744  -3.333 +0.00 +0.00    +0.242 C  
DOCKED: ATOM      9  O2  UNL     1       7.561  -3.022  -3.811 +0.00 -0.00    -0.273 OA 
DOCKED: ATOM     10  N1  UNL     1       6.832  -5.100  -3.201 +0.00 -0.00    -0.302 N  
DOCKED: ATOM     11  H12 UNL     1       6.074  -5.675  -2.844 +0.00 +0.00    +0.150 HD 
DOCKED: BRANCH   8  12
DOCKED: ATOM     12  C5  UNL     1       5.367  -3.146  -2.797 +0.00 +0.00    +0.203 C  
DOCKED: BRANCH  12  13
DOCKED: ATOM     13  C3  UNL     1       4.230  -3.062  -3.840 +0.00 +0.00    +0.023 C  
DOCKED: ATOM     14  C4  UNL     1       3.882  -1.585  -4.088 +0.00 +0.00    +0.010 C  
DOCKED: BRANCH  13  16
DOCKED: ATOM     15  C1  UNL     1       4.207  -5.200  -5.283 +0.00 +0.00    +0.004 C  
DOCKED: ATOM     16  C2  UNL     1       4.544  -3.719  -5.201 +0.00 +0.00    +0.003 C  
DOCKED: ENDBRANCH  13  16
DOCKED: ENDBRANCH  12  13
DOCKED: BRANCH  12  17
DOCKED: ATOM     17  O1  UNL     1       5.595  -1.856  -2.227 +0.00 -0.00    -0.382 OA 
DOCKED: ATOM     18  H11 UNL     1       6.558  -1.700  -2.294 +0.00 +0.00    +0.210 HD 
DOCKED: ENDBRANCH  12  17
DOCKED: ENDBRANCH   8  12
DOCKED: ENDBRANCH   6  10
DOCKED: ENDBRANCH   2   6
DOCKED: ENDBRANCH   1   4
DOCKED: BRANCH   1  19
DOCKED: ATOM     19  C18 UNL     1      10.939  -2.121  -2.275 +0.00 +0.00    +0.136 C  
DOCKED: BRANCH  19  20
DOCKED: ATOM     20  O4  UNL     1       9.827  -1.483  -2.902 +0.00 -0.00    -0.390 OA 
DOCKED: ATOM     21  H27 UNL     1       9.037  -2.023  -2.704 +0.00 +0.00    +0.210 HD 
DOCKED: ENDBRANCH  19  20
DOCKED: BRANCH  19  22
DOCKED: ATOM     22  C19 UNL     1      11.122  -1.514  -0.866 +0.00 +0.00    +0.045 C  
DOCKED: BRANCH  22  23
DOCKED: ATOM     23  C20 UNL     1      10.013  -1.815   0.160 +0.00 +0.00    +0.074 C  
DOCKED: ATOM     24  C21 UNL     1      10.227  -0.966   1.419 +0.00 +0.00    +0.017 C  
DOCKED: BRANCH  23  25
DOCKED: ATOM     25  C22 UNL     1       8.593  -1.572  -0.368 +0.00 +0.00    +0.217 C  
DOCKED: ATOM     26  O5  UNL     1       8.028  -2.349  -1.137 +0.00 -0.00    -0.276 OA 
DOCKED: ATOM     27  N3  UNL     1       8.023  -0.376   0.000 +0.00 -0.00    -0.304 N  
DOCKED: ATOM     28  H34 UNL     1       8.634   0.298   0.468 +0.00 +0.00    +0.149 HD 
DOCKED: BRANCH  27  29
DOCKED: ATOM     29  C23 UNL     1       6.878   0.147  -0.737 +0.00 +0.00    +0.161 C  
DOCKED: BRANCH  29  30
DOCKED: ATOM     30  C24 UNL     1       7.428   0.796  -2.029 +0.00 +0.00    +0.234 C  
DOCKED: ATOM     31  O6  UNL     1       7.647   2.003  -2.120 +0.00 -0.00    -0.274 OA 
DOCKED: ATOM     32  N4  UNL     1       7.639  -0.088  -3.067 +0.00 -0.00    -0.310 N  
DOCKED: ATOM     33  H36 UNL     1       7.615  -1.080  -2.866 +0.00 +0.00    +0.149 HD 
DOCKED: BRANCH  32  34
DOCKED: ATOM     34  C25 UNL     1       8.330   0.316  -4.272 +0.00 +0.00    +0.139 C  
DOCKED: BRANCH  34  35
DOCKED: ATOM     35  C26 UNL     1       8.228  -0.718  -5.366 +0.00 -0.00    -0.027 A  
DOCKED: ATOM     36  C27 UNL     1       9.368  -1.427  -5.764 +0.00 +0.00    +0.025 A  
DOCKED: ATOM     37  C28 UNL     1       9.245  -2.396  -6.748 +0.00 +0.00    +0.111 A  
DOCKED: ATOM     38  N5  UNL     1       8.079  -2.709  -7.353 +0.00 -0.00    -0.263 NA 
DOCKED: ATOM     39  C29 UNL     1       6.986  -2.029  -6.946 +0.00 +0.00    +0.111 A  
DOCKED: ATOM     40  C30 UNL     1       7.009  -1.048  -5.968 +0.00 +0.00    +0.025 A  
DOCKED: ENDBRANCH  34  35
DOCKED: ENDBRANCH  32  34
DOCKED: ENDBRANCH  29  30
DOCKED: BRANCH  29  41
DOCKED: ATOM     41  C31 UNL     1       6.025   1.110   0.116 +0.00 +0.00    +0.012 C  
DOCKED: ATOM     42  C32 UNL     1       4.700   1.516  -0.534 +0.00 +0.00    +0.009 C  
DOCKED: ATOM     43  C33 UNL     1       5.759   0.536   1.511 +0.00 +0.00    +0.009 C  
DOCKED: ENDBRANCH  29  41
DOCKED: ENDBRANCH  27  29
DOCKED: ENDBRANCH  23  25
DOCKED: ENDBRANCH  22  23
DOCKED: ENDBRANCH  19  22
DOCKED: ENDBRANCH   1  19
DOCKED: BRANCH   1  44
DOCKED: ATOM     44  C11 UNL     1      12.118  -4.396  -2.950 +0.00 +0.00    +0.060 C  
DOCKED: BRANCH  44  45
DOCKED: ATOM     45  C12 UNL     1      12.179  -4.450  -4.462 +0.00 -0.00    -0.046 A  
DOCKED: ATOM     46  C13 UNL     1      12.523  -3.312  -5.206 +0.00 +0.00    +0.004 A  
DOCKED: ATOM     47  C14 UNL     1      12.558  -3.360  -6.600 +0.00 +0.00    +0.000 A  
DOCKED: ATOM     48  C15 UNL     1      12.258  -4.546  -7.264 +0.00 +0.00    +0.000 A  
DOCKED: ATOM     49  C16 UNL     1      11.933  -5.688  -6.535 +0.00 +0.00    +0.000 A  
DOCKED: ATOM     50  C17 UNL     1      11.900  -5.643  -5.141 +0.00 +0.00    +0.004 A  
DOCKED: ENDBRANCH  44  45
DOCKED: ENDBRANCH   1  44
DOCKED: TORSDOF 19
DOCKED: TER
DOCKED: ENDMDL
________________________________________________________________________________


    FINAL DOCKED STATE:
    ________________________


Run:   6 / 20
Time taken for this run:   0.674s

DOCKED: MODEL        6
DOCKED: USER    Run = 6
DOCKED: USER
DOCKED: USER    Estimated Free Energy of Binding    =  +5.67 kcal/mol  [=(1)+(2)+(3)-(4)]
DOCKED: USER
DOCKED: USER    (1) Final Intermolecular Energy     =  +0.00 kcal/mol
DOCKED: USER        vdW + Hbond + desolv Energy     =  +0.00 kcal/mol
DOCKED: USER        Electrostatic Energy            =  +0.00 kcal/mol
DOCKED: USER        Moving Ligand-Fixed Receptor    =  +0.00 kcal/mol
DOCKED: USER        Moving Ligand-Moving Receptor   =  +0.00 kcal/mol
DOCKED: USER    (2) Final Total Internal Energy     = -12.40 kcal/mol
DOCKED: USER    (3) Torsional Free Energy           =  +5.67 kcal/mol
DOCKED: USER    (4) Unbound System's Energy         = -12.40 kcal/mol
DOCKED: USER
DOCKED: USER
DOCKED: REMARK  Name = ligands/ligand_8.pdb
DOCKED: REMARK  25 active torsions:
DOCKED: REMARK  status: ('A' for Active; 'I' for Inactive)
DOCKED: REMARK    1  A    between atoms: C1_1  and  C2_2
DOCKED: REMARK    2  A    between atoms: C2_2  and  C3_3
DOCKED: REMARK    3  A    between atoms: C3_3  and  C4_4
DOCKED: REMARK    4  A    between atoms: C3_3  and  C5_5
DOCKED: REMARK    5  A    between atoms: C5_5  and  O1_6
DOCKED: REMARK    6  A    between atoms: C5_5  and  C6_7
DOCKED: REMARK    7  A    between atoms: N1_9  and  C7_10
DOCKED: REMARK    8  A    between atoms: C7_10  and  C8_11
DOCKED: REMARK    9  A    between atoms: C7_10  and  C9_12
DOCKED: REMARK   10  A    between atoms: N2_14  and  C10_15
DOCKED: REMARK   11  A    between atoms: C10_15  and  C11_16
DOCKED: REMARK   12  A    between atoms: C10_15  and  C18_23
DOCKED: REMARK   13  A    between atoms: C11_16  and  C12_17
DOCKED: REMARK   14  A    between atoms: C18_23  and  O4_24
DOCKED: REMARK   15  A    between atoms: C18_23  and  C19_25
DOCKED: REMARK   16  A    between atoms: C19_25  and  C20_26
DOCKED: REMARK   17  A    between atoms: C20_26  and  C21_27
DOCKED: REMARK   18  A    between atoms: C20_26  and  C22_28
DOCKED: REMARK   19  A    between atoms: N3_30  and  C23_31
DOCKED: REMARK   20  A    between atoms: C23_31  and  C24_32
DOCKED: REMARK   21  A    between atoms: C23_31  and  C31_42
DOCKED: REMARK   22  A    between atoms: N4_34  and  C25_35
DOCKED: REMARK   23  A    between atoms: C25_35  and  C26_36
DOCKED: REMARK   24  A    between atoms: C31_42  and  C32_43
DOCKED: REMARK   25  A    between atoms: C31_42  and  C33_44
DOCKED: REMARK                            x       y       z     vdW  Elec       q    Type
DOCKED: REMARK                         _______ _______ _______ _____ _____    ______ ____
DOCKED: USER                              x       y       z     vdW  Elec       q    Type
DOCKED: USER                           _______ _______ _______ _____ _____    ______ ____
DOCKED: ROOT
DOCKED: ATOM      1  C10 UNL     1       8.280  -2.506   0.018 +0.00 +0.00    +0.106 C  
DOCKED: ENDROOT
DOCKED: BRANCH   1   4
DOCKED: ATOM      2  C9  UNL     1       7.752  -1.126   2.013 +0.00 +0.00    +0.233 C  
DOCKED: ATOM      3  O3  UNL     1       8.941  -0.983   2.299 +0.00 -0.00    -0.274 OA 
DOCKED: ATOM      4  N2  UNL     1       7.329  -1.821   0.899 +0.00 -0.00    -0.308 N  
DOCKED: ATOM      5  H17 UNL     1       6.345  -1.829   0.659 +0.00 +0.00    +0.149 HD 
DOCKED: BRANCH   2   6
DOCKED: ATOM      6  C7  UNL     1       6.628  -0.538   2.884 +0.00 +0.00    +0.156 C  
DOCKED: ATOM      7  C8  UNL     1       6.924  -0.727   4.364 +0.00 +0.00    +0.038 C  
DOCKED: BRANCH   6  10
DOCKED: ATOM      8  C6  UNL     1       5.142  -2.514   2.815 +0.00 +0.00    +0.242 C  
DOCKED: ATOM      9  O2  UNL     1       5.995  -3.254   3.309 +0.00 -0.00    -0.273 OA 
DOCKED: ATOM     10  N1  UNL     1       5.388  -1.202   2.506 +0.00 -0.00    -0.302 N  
DOCKED: ATOM     11  H12 UNL     1       4.652  -0.605   2.140 +0.00 +0.00    +0.150 HD 
DOCKED: BRANCH   8  12
DOCKED: ATOM     12  C5  UNL     1       3.738  -3.046   2.461 +0.00 +0.00    +0.203 C  
DOCKED: BRANCH  12  13
DOCKED: ATOM     13  C3  UNL     1       3.735  -4.327   1.596 +0.00 +0.00    +0.023 C  
DOCKED: ATOM     14  C4  UNL     1       2.496  -5.168   1.943 +0.00 +0.00    +0.010 C  
DOCKED: BRANCH  13  16
DOCKED: ATOM     15  C1  UNL     1       4.245  -5.255  -0.756 +0.00 +0.00    +0.004 C  
DOCKED: ATOM     16  C2  UNL     1       3.741  -4.082   0.071 +0.00 +0.00    +0.003 C  
DOCKED: ENDBRANCH  13  16
DOCKED: ENDBRANCH  12  13
DOCKED: BRANCH  12  17
DOCKED: ATOM     17  O1  UNL     1       2.962  -2.031   1.821 +0.00 -0.00    -0.382 OA 
DOCKED: ATOM     18  H11 UNL     1       3.520  -1.684   1.096 +0.00 +0.00    +0.210 HD 
DOCKED: ENDBRANCH  12  17
DOCKED: ENDBRANCH   8  12
DOCKED: ENDBRANCH   6  10
DOCKED: ENDBRANCH   2   6
DOCKED: ENDBRANCH   1   4
DOCKED: BRANCH   1  19
DOCKED: ATOM     19  C18 UNL     1       7.607  -3.092  -1.269 +0.00 +0.00    +0.136 C  
DOCKED: BRANCH  19  20
DOCKED: ATOM     20  O4  UNL     1       6.183  -3.043  -1.205 +0.00 -0.00    -0.390 OA 
DOCKED: ATOM     21  H27 UNL     1       5.942  -2.171  -0.833 +0.00 +0.00    +0.210 HD 
DOCKED: ENDBRANCH  19  20
DOCKED: BRANCH  19  22
DOCKED: ATOM     22  C19 UNL     1       8.057  -2.515  -2.630 +0.00 +0.00    +0.045 C  
DOCKED: BRANCH  22  23
DOCKED: ATOM     23  C20 UNL     1       6.997  -2.486  -3.747 +0.00 +0.00    +0.074 C  
DOCKED: ATOM     24  C21 UNL     1       6.349  -3.871  -3.883 +0.00 +0.00    +0.017 C  
DOCKED: BRANCH  23  25
DOCKED: ATOM     25  C22 UNL     1       5.894  -1.441  -3.535 +0.00 +0.00    +0.217 C  
DOCKED: ATOM     26  O5  UNL     1       6.041  -0.254  -3.818 +0.00 -0.00    -0.276 OA 
DOCKED: ATOM     27  N3  UNL     1       4.756  -1.902  -2.914 +0.00 -0.00    -0.304 N  
DOCKED: ATOM     28  H34 UNL     1       4.795  -2.848  -2.529 +0.00 +0.00    +0.149 HD 
DOCKED: BRANCH  27  29
DOCKED: ATOM     29  C23 UNL     1       3.823  -0.960  -2.304 +0.00 +0.00    +0.161 C  
DOCKED: BRANCH  29  30
DOCKED: ATOM     30  C24 UNL     1       4.531  -0.358  -1.068 +0.00 +0.00    +0.234 C  
DOCKED: ATOM     31  O6  UNL     1       4.494  -0.891   0.040 +0.00 -0.00    -0.274 OA 
DOCKED: ATOM     32  N4  UNL     1       5.193   0.829  -1.310 +0.00 -0.00    -0.310 N  
DOCKED: ATOM     33  H36 UNL     1       5.337   1.110  -2.272 +0.00 +0.00    +0.149 HD 
DOCKED: BRANCH  32  34
DOCKED: ATOM     34  C25 UNL     1       6.065   1.420  -0.319 +0.00 +0.00    +0.139 C  
DOCKED: BRANCH  34  35
DOCKED: ATOM     35  C26 UNL     1       7.525   1.213  -0.643 +0.00 -0.00    -0.027 A  
DOCKED: ATOM     36  C27 UNL     1       8.499   1.481   0.325 +0.00 +0.00    +0.025 A  
DOCKED: ATOM     37  C28 UNL     1       9.831   1.252   0.017 +0.00 +0.00    +0.111 A  
DOCKED: ATOM     38  N5  UNL     1      10.256   0.775  -1.172 +0.00 -0.00    -0.263 NA 
DOCKED: ATOM     39  C29 UNL     1       9.304   0.506  -2.090 +0.00 +0.00    +0.111 A  
DOCKED: ATOM     40  C30 UNL     1       7.948   0.697  -1.873 +0.00 +0.00    +0.025 A  
DOCKED: ENDBRANCH  34  35
DOCKED: ENDBRANCH  32  34
DOCKED: ENDBRANCH  29  30
DOCKED: BRANCH  29  41
DOCKED: ATOM     41  C31 UNL     1       2.466  -1.616  -1.973 +0.00 +0.00    +0.012 C  
DOCKED: ATOM     42  C32 UNL     1       1.266  -0.673  -2.102 +0.00 +0.00    +0.009 C  
DOCKED: ATOM     43  C33 UNL     1       2.228  -2.869  -2.821 +0.00 +0.00    +0.009 C  
DOCKED: ENDBRANCH  29  41
DOCKED: ENDBRANCH  27  29
DOCKED: ENDBRANCH  23  25
DOCKED: ENDBRANCH  22  23
DOCKED: ENDBRANCH  19  22
DOCKED: ENDBRANCH   1  19
DOCKED: BRANCH   1  44
DOCKED: ATOM     44  C11 UNL     1       9.176  -3.475   0.832 +0.00 +0.00    +0.060 C  
DOCKED: BRANCH  44  45
DOCKED: ATOM     45  C12 UNL     1       8.414  -4.463   1.691 +0.00 -0.00    -0.046 A  
DOCKED: ATOM     46  C13 UNL     1       7.384  -5.242   1.145 +0.00 +0.00    +0.004 A  
DOCKED: ATOM     47  C14 UNL     1       6.670  -6.135   1.945 +0.00 +0.00    +0.000 A  
DOCKED: ATOM     48  C15 UNL     1       6.985  -6.267   3.294 +0.00 +0.00    +0.000 A  
DOCKED: ATOM     49  C16 UNL     1       8.019  -5.512   3.844 +0.00 +0.00    +0.000 A  
DOCKED: ATOM     50  C17 UNL     1       8.735  -4.619   3.045 +0.00 +0.00    +0.004 A  
DOCKED: ENDBRANCH  44  45
DOCKED: ENDBRANCH   1  44
DOCKED: TORSDOF 19
DOCKED: TER
DOCKED: ENDMDL
________________________________________________________________________________


    FINAL DOCKED STATE:
    ________________________


Run:   7 / 20
Time taken for this run:   0.674s

DOCKED: MODEL        7
DOCKED: USER    Run = 7
DOCKED: USER
DOCKED: USER    Estimated Free Energy of Binding    =  +5.67 kcal/mol  [=(1)+(2)+(3)-(4)]
DOCKED: USER
DOCKED: USER    (1) Final Intermolecular Energy     =  +0.00 kcal/mol
DOCKED: USER        vdW + Hbond + desolv Energy     =  +0.00 kcal/mol
DOCKED: USER        Electrostatic Energy            =  +0.00 kcal/mol
DOCKED: USER        Moving Ligand-Fixed Receptor    =  +0.00 kcal/mol
DOCKED: USER        Moving Ligand-Moving Receptor   =  +0.00 kcal/mol
DOCKED: USER    (2) Final Total Internal Energy     = -12.49 kcal/mol
DOCKED: USER    (3) Torsional Free Energy           =  +5.67 kcal/mol
DOCKED: USER    (4) Unbound System's Energy         = -12.49 kcal/mol
DOCKED: USER
DOCKED: USER
DOCKED: REMARK  Name = ligands/ligand_8.pdb
DOCKED: REMARK  25 active torsions:
DOCKED: REMARK  status: ('A' for Active; 'I' for Inactive)
DOCKED: REMARK    1  A    between atoms: C1_1  and  C2_2
DOCKED: REMARK    2  A    between atoms: C2_2  and  C3_3
DOCKED: REMARK    3  A    between atoms: C3_3  and  C4_4
DOCKED: REMARK    4  A    between atoms: C3_3  and  C5_5
DOCKED: REMARK    5  A    between atoms: C5_5  and  O1_6
DOCKED: REMARK    6  A    between atoms: C5_5  and  C6_7
DOCKED: REMARK    7  A    between atoms: N1_9  and  C7_10
DOCKED: REMARK    8  A    between atoms: C7_10  and  C8_11
DOCKED: REMARK    9  A    between atoms: C7_10  and  C9_12
DOCKED: REMARK   10  A    between atoms: N2_14  and  C10_15
DOCKED: REMARK   11  A    between atoms: C10_15  and  C11_16
DOCKED: REMARK   12  A    between atoms: C10_15  and  C18_23
DOCKED: REMARK   13  A    between atoms: C11_16  and  C12_17
DOCKED: REMARK   14  A    between atoms: C18_23  and  O4_24
DOCKED: REMARK   15  A    between atoms: C18_23  and  C19_25
DOCKED: REMARK   16  A    between atoms: C19_25  and  C20_26
DOCKED: REMARK   17  A    between atoms: C20_26  and  C21_27
DOCKED: REMARK   18  A    between atoms: C20_26  and  C22_28
DOCKED: REMARK   19  A    between atoms: N3_30  and  C23_31
DOCKED: REMARK   20  A    between atoms: C23_31  and  C24_32
DOCKED: REMARK   21  A    between atoms: C23_31  and  C31_42
DOCKED: REMARK   22  A    between atoms: N4_34  and  C25_35
DOCKED: REMARK   23  A    between atoms: C25_35  and  C26_36
DOCKED: REMARK   24  A    between atoms: C31_42  and  C32_43
DOCKED: REMARK   25  A    between atoms: C31_42  and  C33_44
DOCKED: REMARK                            x       y       z     vdW  Elec       q    Type
DOCKED: REMARK                         _______ _______ _______ _____ _____    ______ ____
DOCKED: USER                              x       y       z     vdW  Elec       q    Type
DOCKED: USER                           _______ _______ _______ _____ _____    ______ ____
DOCKED: ROOT
DOCKED: ATOM      1  C10 UNL     1      13.536   1.573  -1.180 +0.00 +0.00    +0.106 C  
DOCKED: ENDROOT
DOCKED: BRANCH   1   4
DOCKED: ATOM      2  C9  UNL     1      13.897   0.381   0.968 +0.00 +0.00    +0.233 C  
DOCKED: ATOM      3  O3  UNL     1      14.845   1.104   1.275 +0.00 -0.00    -0.274 OA 
DOCKED: ATOM      4  N2  UNL     1      13.171   0.553  -0.192 +0.00 -0.00    -0.308 N  
DOCKED: ATOM      5  H17 UNL     1      12.343  -0.009  -0.351 +0.00 +0.00    +0.149 HD 
DOCKED: BRANCH   2   6
DOCKED: ATOM      6  C7  UNL     1      13.441  -0.787   1.860 +0.00 +0.00    +0.156 C  
DOCKED: ATOM      7  C8  UNL     1      14.455  -1.921   1.841 +0.00 +0.00    +0.038 C  
DOCKED: BRANCH   6  10
DOCKED: ATOM      8  C6  UNL     1      11.115  -0.357   1.135 +0.00 +0.00    +0.242 C  
DOCKED: ATOM      9  O2  UNL     1      11.169   0.833   1.448 +0.00 -0.00    -0.273 OA 
DOCKED: ATOM     10  N1  UNL     1      12.144  -1.232   1.368 +0.00 -0.00    -0.302 N  
DOCKED: ATOM     11  H12 UNL     1      12.088  -2.199   1.059 +0.00 +0.00    +0.150 HD 
DOCKED: BRANCH   8  12
DOCKED: ATOM     12  C5  UNL     1       9.844  -0.955   0.498 +0.00 +0.00    +0.203 C  
DOCKED: BRANCH  12  13
DOCKED: ATOM     13  C3  UNL     1      10.074  -2.268  -0.284 +0.00 +0.00    +0.023 C  
DOCKED: ATOM     14  C4  UNL     1       8.768  -2.673  -0.986 +0.00 +0.00    +0.010 C  
DOCKED: BRANCH  13  16
DOCKED: ATOM     15  C1  UNL     1      10.773  -1.604  -2.676 +0.00 +0.00    +0.004 C  
DOCKED: ATOM     16  C2  UNL     1      11.194  -2.207  -1.345 +0.00 +0.00    +0.003 C  
DOCKED: ENDBRANCH  13  16
DOCKED: ENDBRANCH  12  13
DOCKED: BRANCH  12  17
DOCKED: ATOM     17  O1  UNL     1       9.207   0.004  -0.349 +0.00 -0.00    -0.382 OA 
DOCKED: ATOM     18  H11 UNL     1       9.659   0.855  -0.178 +0.00 +0.00    +0.210 HD 
DOCKED: ENDBRANCH  12  17
DOCKED: ENDBRANCH   8  12
DOCKED: ENDBRANCH   6  10
DOCKED: ENDBRANCH   2   6
DOCKED: ENDBRANCH   1   4
DOCKED: BRANCH   1  19
DOCKED: ATOM     19  C18 UNL     1      12.300   2.146  -1.952 +0.00 +0.00    +0.136 C  
DOCKED: BRANCH  19  20
DOCKED: ATOM     20  O4  UNL     1      11.109   1.406  -1.691 +0.00 -0.00    -0.390 OA 
DOCKED: ATOM     21  H27 UNL     1      11.063   1.266  -0.724 +0.00 +0.00    +0.210 HD 
DOCKED: ENDBRANCH  19  20
DOCKED: BRANCH  19  22
DOCKED: ATOM     22  C19 UNL     1      11.991   3.650  -1.779 +0.00 +0.00    +0.045 C  
DOCKED: BRANCH  22  23
DOCKED: ATOM     23  C20 UNL     1      11.320   4.064  -0.455 +0.00 +0.00    +0.074 C  
DOCKED: ATOM     24  C21 UNL     1      11.339   5.592  -0.319 +0.00 +0.00    +0.017 C  
DOCKED: BRANCH  23  25
DOCKED: ATOM     25  C22 UNL     1       9.875   3.570  -0.307 +0.00 +0.00    +0.217 C  
DOCKED: ATOM     26  O5  UNL     1       9.589   2.508   0.243 +0.00 -0.00    -0.276 OA 
DOCKED: ATOM     27  N3  UNL     1       8.919   4.349  -0.917 +0.00 -0.00    -0.304 N  
DOCKED: ATOM     28  H34 UNL     1       9.258   5.099  -1.523 +0.00 +0.00    +0.149 HD 
DOCKED: BRANCH  27  29
DOCKED: ATOM     29  C23 UNL     1       7.596   3.801  -1.194 +0.00 +0.00    +0.161 C  
DOCKED: BRANCH  29  30
DOCKED: ATOM     30  C24 UNL     1       7.690   3.046  -2.540 +0.00 +0.00    +0.234 C  
DOCKED: ATOM     31  O6  UNL     1       7.155   3.458  -3.568 +0.00 -0.00    -0.274 OA 
DOCKED: ATOM     32  N4  UNL     1       8.410   1.870  -2.486 +0.00 -0.00    -0.310 N  
DOCKED: ATOM     33  H36 UNL     1       8.972   1.688  -1.664 +0.00 +0.00    +0.149 HD 
DOCKED: BRANCH  32  34
DOCKED: ATOM     34  C25 UNL     1       8.761   1.146  -3.689 +0.00 +0.00    +0.139 C  
DOCKED: BRANCH  34  35
DOCKED: ATOM     35  C26 UNL     1       9.971   1.729  -4.377 +0.00 -0.00    -0.027 A  
DOCKED: ATOM     36  C27 UNL     1      10.948   0.880  -4.909 +0.00 +0.00    +0.025 A  
DOCKED: ATOM     37  C28 UNL     1      12.034   1.436  -5.567 +0.00 +0.00    +0.111 A  
DOCKED: ATOM     38  N5  UNL     1      12.211   2.764  -5.735 +0.00 -0.00    -0.263 NA 
DOCKED: ATOM     39  C29 UNL     1      11.252   3.569  -5.232 +0.00 +0.00    +0.111 A  
DOCKED: ATOM     40  C30 UNL     1      10.129   3.107  -4.564 +0.00 +0.00    +0.025 A  
DOCKED: ENDBRANCH  34  35
DOCKED: ENDBRANCH  32  34
DOCKED: ENDBRANCH  29  30
DOCKED: BRANCH  29  41
DOCKED: ATOM     41  C31 UNL     1       6.500   4.888  -1.178 +0.00 +0.00    +0.012 C  
DOCKED: ATOM     42  C32 UNL     1       5.952   5.204   0.217 +0.00 +0.00    +0.009 C  
DOCKED: ATOM     43  C33 UNL     1       6.982   6.179  -1.846 +0.00 +0.00    +0.009 C  
DOCKED: ENDBRANCH  29  41
DOCKED: ENDBRANCH  27  29
DOCKED: ENDBRANCH  23  25
DOCKED: ENDBRANCH  22  23
DOCKED: ENDBRANCH  19  22
DOCKED: ENDBRANCH   1  19
DOCKED: BRANCH   1  44
DOCKED: ATOM     44  C11 UNL     1      14.728   1.089  -2.046 +0.00 +0.00    +0.060 C  
DOCKED: BRANCH  44  45
DOCKED: ATOM     45  C12 UNL     1      14.596  -0.328  -2.562 +0.00 -0.00    -0.046 A  
DOCKED: ATOM     46  C13 UNL     1      14.034  -0.582  -3.821 +0.00 +0.00    +0.004 A  
DOCKED: ATOM     47  C14 UNL     1      13.894  -1.891  -4.284 +0.00 +0.00    +0.000 A  
DOCKED: ATOM     48  C15 UNL     1      14.324  -2.957  -3.499 +0.00 +0.00    +0.000 A  
DOCKED: ATOM     49  C16 UNL     1      14.900  -2.717  -2.254 +0.00 +0.00    +0.000 A  
DOCKED: ATOM     50  C17 UNL     1      15.043  -1.408  -1.790 +0.00 +0.00    +0.004 A  
DOCKED: ENDBRANCH  44  45
DOCKED: ENDBRANCH   1  44
DOCKED: TORSDOF 19
DOCKED: TER
DOCKED: ENDMDL
________________________________________________________________________________


    FINAL DOCKED STATE:
    ________________________


Run:   8 / 20
Time taken for this run:   0.674s

DOCKED: MODEL        8
DOCKED: USER    Run = 8
DOCKED: USER
DOCKED: USER    Estimated Free Energy of Binding    =  +5.67 kcal/mol  [=(1)+(2)+(3)-(4)]
DOCKED: USER
DOCKED: USER    (1) Final Intermolecular Energy     =  +0.00 kcal/mol
DOCKED: USER        vdW + Hbond + desolv Energy     =  +0.00 kcal/mol
DOCKED: USER        Electrostatic Energy            =  +0.00 kcal/mol
DOCKED: USER        Moving Ligand-Fixed Receptor    =  +0.00 kcal/mol
DOCKED: USER        Moving Ligand-Moving Receptor   =  +0.00 kcal/mol
DOCKED: USER    (2) Final Total Internal Energy     = -12.53 kcal/mol
DOCKED: USER    (3) Torsional Free Energy           =  +5.67 kcal/mol
DOCKED: USER    (4) Unbound System's Energy         = -12.53 kcal/mol
DOCKED: USER
DOCKED: USER
DOCKED: REMARK  Name = ligands/ligand_8.pdb
DOCKED: REMARK  25 active torsions:
DOCKED: REMARK  status: ('A' for Active; 'I' for Inactive)
DOCKED: REMARK    1  A    between atoms: C1_1  and  C2_2
DOCKED: REMARK    2  A    between atoms: C2_2  and  C3_3
DOCKED: REMARK    3  A    between atoms: C3_3  and  C4_4
DOCKED: REMARK    4  A    between atoms: C3_3  and  C5_5
DOCKED: REMARK    5  A    between atoms: C5_5  and  O1_6
DOCKED: REMARK    6  A    between atoms: C5_5  and  C6_7
DOCKED: REMARK    7  A    between atoms: N1_9  and  C7_10
DOCKED: REMARK    8  A    between atoms: C7_10  and  C8_11
DOCKED: REMARK    9  A    between atoms: C7_10  and  C9_12
DOCKED: REMARK   10  A    between atoms: N2_14  and  C10_15
DOCKED: REMARK   11  A    between atoms: C10_15  and  C11_16
DOCKED: REMARK   12  A    between atoms: C10_15  and  C18_23
DOCKED: REMARK   13  A    between atoms: C11_16  and  C12_17
DOCKED: REMARK   14  A    between atoms: C18_23  and  O4_24
DOCKED: REMARK   15  A    between atoms: C18_23  and  C19_25
DOCKED: REMARK   16  A    between atoms: C19_25  and  C20_26
DOCKED: REMARK   17  A    between atoms: C20_26  and  C21_27
DOCKED: REMARK   18  A    between atoms: C20_26  and  C22_28
DOCKED: REMARK   19  A    between atoms: N3_30  and  C23_31
DOCKED: REMARK   20  A    between atoms: C23_31  and  C24_32
DOCKED: REMARK   21  A    between atoms: C23_31  and  C31_42
DOCKED: REMARK   22  A    between atoms: N4_34  and  C25_35
DOCKED: REMARK   23  A    between atoms: C25_35  and  C26_36
DOCKED: REMARK   24  A    between atoms: C31_42  and  C32_43
DOCKED: REMARK   25  A    between atoms: C31_42  and  C33_44
DOCKED: REMARK                            x       y       z     vdW  Elec       q    Type
DOCKED: REMARK                         _______ _______ _______ _____ _____    ______ ____
DOCKED: USER                              x       y       z     vdW  Elec       q    Type
DOCKED: USER                           _______ _______ _______ _____ _____    ______ ____
DOCKED: ROOT
DOCKED: ATOM      1  C10 UNL     1      12.137  -1.672  -3.345 +0.00 +0.00    +0.106 C  
DOCKED: ENDROOT
DOCKED: BRANCH   1   4
DOCKED: ATOM      2  C9  UNL     1      13.365  -0.209  -4.931 +0.00 +0.00    +0.233 C  
DOCKED: ATOM      3  O3  UNL     1      13.020   0.814  -4.342 +0.00 -0.00    -0.274 OA 
DOCKED: ATOM      4  N2  UNL     1      13.015  -1.473  -4.502 +0.00 -0.00    -0.308 N  
DOCKED: ATOM      5  H17 UNL     1      13.403  -2.285  -4.968 +0.00 +0.00    +0.149 HD 
DOCKED: BRANCH   2   6
DOCKED: ATOM      6  C7  UNL     1      14.221  -0.166  -6.210 +0.00 +0.00    +0.156 C  
DOCKED: ATOM      7  C8  UNL     1      13.542  -0.909  -7.350 +0.00 +0.00    +0.038 C  
DOCKED: BRANCH   6  10
DOCKED: ATOM      8  C6  UNL     1      15.679  -2.108  -5.739 +0.00 +0.00    +0.242 C  
DOCKED: ATOM      9  O2  UNL     1      14.733  -2.897  -5.727 +0.00 -0.00    -0.273 OA 
DOCKED: ATOM     10  N1  UNL     1      15.514  -0.756  -5.892 +0.00 -0.00    -0.302 N  
DOCKED: ATOM     11  H12 UNL     1      16.316  -0.134  -5.943 +0.00 +0.00    +0.150 HD 
DOCKED: BRANCH   8  12
DOCKED: ATOM     12  C5  UNL     1      17.127  -2.598  -5.529 +0.00 +0.00    +0.203 C  
DOCKED: BRANCH  12  13
DOCKED: ATOM     13  C3  UNL     1      17.922  -2.830  -6.833 +0.00 +0.00    +0.023 C  
DOCKED: ATOM     14  C4  UNL     1      17.797  -4.306  -7.244 +0.00 +0.00    +0.010 C  
DOCKED: BRANCH  13  16
DOCKED: ATOM     15  C1  UNL     1      16.669  -2.693  -9.085 +0.00 +0.00    +0.004 C  
DOCKED: ATOM     16  C2  UNL     1      17.481  -1.957  -8.029 +0.00 +0.00    +0.003 C  
DOCKED: ENDBRANCH  13  16
DOCKED: ENDBRANCH  12  13
DOCKED: BRANCH  12  17
DOCKED: ATOM     17  O1  UNL     1      17.145  -3.786  -4.736 +0.00 -0.00    -0.382 OA 
DOCKED: ATOM     18  H11 UNL     1      16.219  -3.938  -4.459 +0.00 +0.00    +0.210 HD 
DOCKED: ENDBRANCH  12  17
DOCKED: ENDBRANCH   8  12
DOCKED: ENDBRANCH   6  10
DOCKED: ENDBRANCH   2   6
DOCKED: ENDBRANCH   1   4
DOCKED: BRANCH   1  19
DOCKED: ATOM     19  C18 UNL     1      12.156  -3.144  -2.810 +0.00 +0.00    +0.136 C  
DOCKED: BRANCH  19  20
DOCKED: ATOM     20  O4  UNL     1      12.960  -4.002  -3.617 +0.00 -0.00    -0.390 OA 
DOCKED: ATOM     21  H27 UNL     1      13.730  -3.479  -3.915 +0.00 +0.00    +0.210 HD 
DOCKED: ENDBRANCH  19  20
DOCKED: BRANCH  19  22
DOCKED: ATOM     22  C19 UNL     1      12.547  -3.354  -1.329 +0.00 +0.00    +0.045 C  
DOCKED: BRANCH  22  23
DOCKED: ATOM     23  C20 UNL     1      13.956  -2.887  -0.919 +0.00 +0.00    +0.074 C  
DOCKED: ATOM     24  C21 UNL     1      14.272  -3.375   0.500 +0.00 +0.00    +0.017 C  
DOCKED: BRANCH  23  25
DOCKED: ATOM     25  C22 UNL     1      15.069  -3.356  -1.865 +0.00 +0.00    +0.217 C  
DOCKED: ATOM     26  O5  UNL     1      15.262  -2.845  -2.967 +0.00 -0.00    -0.276 OA 
DOCKED: ATOM     27  N3  UNL     1      15.781  -4.453  -1.441 +0.00 -0.00    -0.304 N  
DOCKED: ATOM     28  H34 UNL     1      15.425  -4.939  -0.615 +0.00 +0.00    +0.149 HD 
DOCKED: BRANCH  27  29
DOCKED: ATOM     29  C23 UNL     1      16.570  -5.227  -2.393 +0.00 +0.00    +0.161 C  
DOCKED: BRANCH  29  30
DOCKED: ATOM     30  C24 UNL     1      15.586  -6.141  -3.159 +0.00 +0.00    +0.234 C  
DOCKED: ATOM     31  O6  UNL     1      15.387  -7.313  -2.839 +0.00 -0.00    -0.274 OA 
DOCKED: ATOM     32  N4  UNL     1      14.964  -5.539  -4.234 +0.00 -0.00    -0.310 N  
DOCKED: ATOM     33  H36 UNL     1      15.032  -4.534  -4.326 +0.00 +0.00    +0.149 HD 
DOCKED: BRANCH  32  34
DOCKED: ATOM     34  C25 UNL     1      13.876  -6.186  -4.934 +0.00 +0.00    +0.139 C  
DOCKED: BRANCH  34  35
DOCKED: ATOM     35  C26 UNL     1      13.515  -5.475  -6.215 +0.00 -0.00    -0.027 A  
DOCKED: ATOM     36  C27 UNL     1      12.294  -4.797  -6.316 +0.00 +0.00    +0.025 A  
DOCKED: ATOM     37  C28 UNL     1      11.997  -4.123  -7.491 +0.00 +0.00    +0.111 A  
DOCKED: ATOM     38  N5  UNL     1      12.824  -4.072  -8.557 +0.00 -0.00    -0.263 NA 
DOCKED: ATOM     39  C29 UNL     1      14.004  -4.715  -8.438 +0.00 +0.00    +0.111 A  
DOCKED: ATOM     40  C30 UNL     1      14.391  -5.411  -7.304 +0.00 +0.00    +0.025 A  
DOCKED: ENDBRANCH  34  35
DOCKED: ENDBRANCH  32  34
DOCKED: ENDBRANCH  29  30
DOCKED: BRANCH  29  41
DOCKED: ATOM     41  C31 UNL     1      17.717  -6.000  -1.708 +0.00 +0.00    +0.012 C  
DOCKED: ATOM     42  C32 UNL     1      19.011  -6.053  -2.526 +0.00 +0.00    +0.009 C  
DOCKED: ATOM     43  C33 UNL     1      18.013  -5.441  -0.313 +0.00 +0.00    +0.009 C  
DOCKED: ENDBRANCH  29  41
DOCKED: ENDBRANCH  27  29
DOCKED: ENDBRANCH  23  25
DOCKED: ENDBRANCH  22  23
DOCKED: ENDBRANCH  19  22
DOCKED: ENDBRANCH   1  19
DOCKED: BRANCH   1  44
DOCKED: ATOM     44  C11 UNL     1      10.740  -1.052  -3.610 +0.00 +0.00    +0.060 C  
DOCKED: BRANCH  44  45
DOCKED: ATOM     45  C12 UNL     1      10.128  -1.427  -4.942 +0.00 -0.00    -0.046 A  
DOCKED: ATOM     46  C13 UNL     1       9.540  -2.686  -5.133 +0.00 +0.00    +0.004 A  
DOCKED: ATOM     47  C14 UNL     1       8.996  -3.035  -6.369 +0.00 +0.00    +0.000 A  
DOCKED: ATOM     48  C15 UNL     1       9.024  -2.128  -7.424 +0.00 +0.00    +0.000 A  
DOCKED: ATOM     49  C16 UNL     1       9.589  -0.867  -7.243 +0.00 +0.00    +0.000 A  
DOCKED: ATOM     50  C17 UNL     1      10.131  -0.515  -6.006 +0.00 +0.00    +0.004 A  
DOCKED: ENDBRANCH  44  45
DOCKED: ENDBRANCH   1  44
DOCKED: TORSDOF 19
DOCKED: TER
DOCKED: ENDMDL
________________________________________________________________________________


    FINAL DOCKED STATE:
    ________________________


Run:   9 / 20
Time taken for this run:   0.674s

DOCKED: MODEL        9
DOCKED: USER    Run = 9
DOCKED: USER
DOCKED: USER    Estimated Free Energy of Binding    =  +5.67 kcal/mol  [=(1)+(2)+(3)-(4)]
DOCKED: USER
DOCKED: USER    (1) Final Intermolecular Energy     =  +0.00 kcal/mol
DOCKED: USER        vdW + Hbond + desolv Energy     =  +0.00 kcal/mol
DOCKED: USER        Electrostatic Energy            =  +0.00 kcal/mol
DOCKED: USER        Moving Ligand-Fixed Receptor    =  +0.00 kcal/mol
DOCKED: USER        Moving Ligand-Moving Receptor   =  +0.00 kcal/mol
DOCKED: USER    (2) Final Total Internal Energy     = -12.50 kcal/mol
DOCKED: USER    (3) Torsional Free Energy           =  +5.67 kcal/mol
DOCKED: USER    (4) Unbound System's Energy         = -12.50 kcal/mol
DOCKED: USER
DOCKED: USER
DOCKED: REMARK  Name = ligands/ligand_8.pdb
DOCKED: REMARK  25 active torsions:
DOCKED: REMARK  status: ('A' for Active; 'I' for Inactive)
DOCKED: REMARK    1  A    between atoms: C1_1  and  C2_2
DOCKED: REMARK    2  A    between atoms: C2_2  and  C3_3
DOCKED: REMARK    3  A    between atoms: C3_3  and  C4_4
DOCKED: REMARK    4  A    between atoms: C3_3  and  C5_5
DOCKED: REMARK    5  A    between atoms: C5_5  and  O1_6
DOCKED: REMARK    6  A    between atoms: C5_5  and  C6_7
DOCKED: REMARK    7  A    between atoms: N1_9  and  C7_10
DOCKED: REMARK    8  A    between atoms: C7_10  and  C8_11
DOCKED: REMARK    9  A    between atoms: C7_10  and  C9_12
DOCKED: REMARK   10  A    between atoms: N2_14  and  C10_15
DOCKED: REMARK   11  A    between atoms: C10_15  and  C11_16
DOCKED: REMARK   12  A    between atoms: C10_15  and  C18_23
DOCKED: REMARK   13  A    between atoms: C11_16  and  C12_17
DOCKED: REMARK   14  A    between atoms: C18_23  and  O4_24
DOCKED: REMARK   15  A    between atoms: C18_23  and  C19_25
DOCKED: REMARK   16  A    between atoms: C19_25  and  C20_26
DOCKED: REMARK   17  A    between atoms: C20_26  and  C21_27
DOCKED: REMARK   18  A    between atoms: C20_26  and  C22_28
DOCKED: REMARK   19  A    between atoms: N3_30  and  C23_31
DOCKED: REMARK   20  A    between atoms: C23_31  and  C24_32
DOCKED: REMARK   21  A    between atoms: C23_31  and  C31_42
DOCKED: REMARK   22  A    between atoms: N4_34  and  C25_35
DOCKED: REMARK   23  A    between atoms: C25_35  and  C26_36
DOCKED: REMARK   24  A    between atoms: C31_42  and  C32_43
DOCKED: REMARK   25  A    between atoms: C31_42  and  C33_44
DOCKED: REMARK                            x       y       z     vdW  Elec       q    Type
DOCKED: REMARK                         _______ _______ _______ _____ _____    ______ ____
DOCKED: USER                              x       y       z     vdW  Elec       q    Type
DOCKED: USER                           _______ _______ _______ _____ _____    ______ ____
DOCKED: ROOT
DOCKED: ATOM      1  C10 UNL     1       9.593  -1.854   1.549 +0.00 +0.00    +0.106 C  
DOCKED: ENDROOT
DOCKED: BRANCH   1   4
DOCKED: ATOM      2  C9  UNL     1       7.996  -0.290   2.630 +0.00 +0.00    +0.233 C  
DOCKED: ATOM      3  O3  UNL     1       8.896   0.461   3.003 +0.00 -0.00    -0.274 OA 
DOCKED: ATOM      4  N2  UNL     1       8.231  -1.426   1.884 +0.00 -0.00    -0.308 N  
DOCKED: ATOM      5  H17 UNL     1       7.448  -1.959   1.522 +0.00 +0.00    +0.149 HD 
DOCKED: BRANCH   2   6
DOCKED: ATOM      6  C7  UNL     1       6.519  -0.025   2.970 +0.00 +0.00    +0.156 C  
DOCKED: ATOM      7  C8  UNL     1       6.250  -0.237   4.453 +0.00 +0.00    +0.038 C  
DOCKED: BRANCH   6  10
DOCKED: ATOM      8  C6  UNL     1       5.889  -1.032   0.801 +0.00 +0.00    +0.242 C  
DOCKED: ATOM      9  O2  UNL     1       6.639  -0.289   0.165 +0.00 -0.00    -0.273 OA 
DOCKED: ATOM     10  N1  UNL     1       5.713  -0.924   2.155 +0.00 -0.00    -0.302 N  
DOCKED: ATOM     11  H12 UNL     1       5.122  -1.580   2.659 +0.00 +0.00    +0.150 HD 
DOCKED: BRANCH   8  12
DOCKED: ATOM     12  C5  UNL     1       5.051  -2.115   0.089 +0.00 +0.00    +0.203 C  
DOCKED: BRANCH  12  13
DOCKED: ATOM     13  C3  UNL     1       4.563  -3.257   1.009 +0.00 +0.00    +0.023 C  
DOCKED: ATOM     14  C4  UNL     1       3.872  -4.332   0.154 +0.00 +0.00    +0.010 C  
DOCKED: BRANCH  13  16
DOCKED: ATOM     15  C1  UNL     1       6.453  -5.011   1.098 +0.00 +0.00    +0.004 C  
DOCKED: ATOM     16  C2  UNL     1       5.670  -3.940   1.842 +0.00 +0.00    +0.003 C  
DOCKED: ENDBRANCH  13  16
DOCKED: ENDBRANCH  12  13
DOCKED: BRANCH  12  17
DOCKED: ATOM     17  O1  UNL     1       5.772  -2.662  -1.017 +0.00 -0.00    -0.382 OA 
DOCKED: ATOM     18  H11 UNL     1       6.554  -2.087  -1.139 +0.00 +0.00    +0.210 HD 
DOCKED: ENDBRANCH  12  17
DOCKED: ENDBRANCH   8  12
DOCKED: ENDBRANCH   6  10
DOCKED: ENDBRANCH   2   6
DOCKED: ENDBRANCH   1   4
DOCKED: BRANCH   1  19
DOCKED: ATOM     19  C18 UNL     1       9.676  -2.618   0.185 +0.00 +0.00    +0.136 C  
DOCKED: BRANCH  19  20
DOCKED: ATOM     20  O4  UNL     1       8.387  -2.913  -0.349 +0.00 -0.00    -0.390 OA 
DOCKED: ATOM     21  H27 UNL     1       7.839  -2.111  -0.238 +0.00 +0.00    +0.210 HD 
DOCKED: ENDBRANCH  19  20
DOCKED: BRANCH  19  22
DOCKED: ATOM     22  C19 UNL     1      10.536  -1.983  -0.932 +0.00 +0.00    +0.045 C  
DOCKED: BRANCH  22  23
DOCKED: ATOM     23  C20 UNL     1       9.923  -0.776  -1.666 +0.00 +0.00    +0.074 C  
DOCKED: ATOM     24  C21 UNL     1      10.987  -0.109  -2.547 +0.00 +0.00    +0.017 C  
DOCKED: BRANCH  23  25
DOCKED: ATOM     25  C22 UNL     1       8.707  -1.126  -2.535 +0.00 +0.00    +0.217 C  
DOCKED: ATOM     26  O5  UNL     1       7.554  -1.088  -2.110 +0.00 -0.00    -0.276 OA 
DOCKED: ATOM     27  N3  UNL     1       8.997  -1.580  -3.801 +0.00 -0.00    -0.304 N  
DOCKED: ATOM     28  H34 UNL     1       9.980  -1.774  -4.003 +0.00 +0.00    +0.149 HD 
DOCKED: BRANCH  27  29
DOCKED: ATOM     29  C23 UNL     1       7.991  -2.308  -4.565 +0.00 +0.00    +0.161 C  
DOCKED: BRANCH  29  30
DOCKED: ATOM     30  C24 UNL     1       8.070  -3.788  -4.124 +0.00 +0.00    +0.234 C  
DOCKED: ATOM     31  O6  UNL     1       8.513  -4.673  -4.855 +0.00 -0.00    -0.274 OA 
DOCKED: ATOM     32  N4  UNL     1       7.592  -4.032  -2.853 +0.00 -0.00    -0.310 N  
DOCKED: ATOM     33  H36 UNL     1       7.418  -3.241  -2.246 +0.00 +0.00    +0.149 HD 
DOCKED: BRANCH  32  34
DOCKED: ATOM     34  C25 UNL     1       7.772  -5.317  -2.214 +0.00 +0.00    +0.139 C  
DOCKED: BRANCH  34  35
DOCKED: ATOM     35  C26 UNL     1       9.140  -5.463  -1.594 +0.00 -0.00    -0.027 A  
DOCKED: ATOM     36  C27 UNL     1       9.275  -6.051  -0.331 +0.00 +0.00    +0.025 A  
DOCKED: ATOM     37  C28 UNL     1      10.544  -6.204   0.205 +0.00 +0.00    +0.111 A  
DOCKED: ATOM     38  N5  UNL     1      11.677  -5.823  -0.424 +0.00 -0.00    -0.263 NA 
DOCKED: ATOM     39  C29 UNL     1      11.532  -5.274  -1.648 +0.00 +0.00    +0.111 A  
DOCKED: ATOM     40  C30 UNL     1      10.307  -5.084  -2.268 +0.00 +0.00    +0.025 A  
DOCKED: ENDBRANCH  34  35
DOCKED: ENDBRANCH  32  34
DOCKED: ENDBRANCH  29  30
DOCKED: BRANCH  29  41
DOCKED: ATOM     41  C31 UNL     1       8.161  -2.113  -6.087 +0.00 +0.00    +0.012 C  
DOCKED: ATOM     42  C32 UNL     1       7.458  -0.871  -6.642 +0.00 +0.00    +0.009 C  
DOCKED: ATOM     43  C33 UNL     1       9.640  -2.089  -6.486 +0.00 +0.00    +0.009 C  
DOCKED: ENDBRANCH  29  41
DOCKED: ENDBRANCH  27  29
DOCKED: ENDBRANCH  23  25
DOCKED: ENDBRANCH  22  23
DOCKED: ENDBRANCH  19  22
DOCKED: ENDBRANCH   1  19
DOCKED: BRANCH   1  44
DOCKED: ATOM     44  C11 UNL     1      10.262  -2.542   2.768 +0.00 +0.00    +0.060 C  
DOCKED: BRANCH  44  45
DOCKED: ATOM     45  C12 UNL     1       9.399  -3.578   3.456 +0.00 -0.00    -0.046 A  
DOCKED: ATOM     46  C13 UNL     1       9.475  -4.930   3.094 +0.00 +0.00    +0.004 A  
DOCKED: ATOM     47  C14 UNL     1       8.663  -5.879   3.716 +0.00 +0.00    +0.000 A  
DOCKED: ATOM     48  C15 UNL     1       7.774  -5.488   4.713 +0.00 +0.00    +0.000 A  
DOCKED: ATOM     49  C16 UNL     1       7.701  -4.150   5.095 +0.00 +0.00    +0.000 A  
DOCKED: ATOM     50  C17 UNL     1       8.515  -3.200   4.476 +0.00 +0.00    +0.004 A  
DOCKED: ENDBRANCH  44  45
DOCKED: ENDBRANCH   1  44
DOCKED: TORSDOF 19
DOCKED: TER
DOCKED: ENDMDL
________________________________________________________________________________


    FINAL DOCKED STATE:
    ________________________


Run:   10 / 20
Time taken for this run:   0.674s

DOCKED: MODEL        10
DOCKED: USER    Run = 10
DOCKED: USER
DOCKED: USER    Estimated Free Energy of Binding    =  +5.67 kcal/mol  [=(1)+(2)+(3)-(4)]
DOCKED: USER
DOCKED: USER    (1) Final Intermolecular Energy     =  +0.00 kcal/mol
DOCKED: USER        vdW + Hbond + desolv Energy     =  +0.00 kcal/mol
DOCKED: USER        Electrostatic Energy            =  +0.00 kcal/mol
DOCKED: USER        Moving Ligand-Fixed Receptor    =  +0.00 kcal/mol
DOCKED: USER        Moving Ligand-Moving Receptor   =  +0.00 kcal/mol
DOCKED: USER    (2) Final Total Internal Energy     = -12.49 kcal/mol
DOCKED: USER    (3) Torsional Free Energy           =  +5.67 kcal/mol
DOCKED: USER    (4) Unbound System's Energy         = -12.49 kcal/mol
DOCKED: USER
DOCKED: USER
DOCKED: REMARK  Name = ligands/ligand_8.pdb
DOCKED: REMARK  25 active torsions:
DOCKED: REMARK  status: ('A' for Active; 'I' for Inactive)
DOCKED: REMARK    1  A    between atoms: C1_1  and  C2_2
DOCKED: REMARK    2  A    between atoms: C2_2  and  C3_3
DOCKED: REMARK    3  A    between atoms: C3_3  and  C4_4
DOCKED: REMARK    4  A    between atoms: C3_3  and  C5_5
DOCKED: REMARK    5  A    between atoms: C5_5  and  O1_6
DOCKED: REMARK    6  A    between atoms: C5_5  and  C6_7
DOCKED: REMARK    7  A    between atoms: N1_9  and  C7_10
DOCKED: REMARK    8  A    between atoms: C7_10  and  C8_11
DOCKED: REMARK    9  A    between atoms: C7_10  and  C9_12
DOCKED: REMARK   10  A    between atoms: N2_14  and  C10_15
DOCKED: REMARK   11  A    between atoms: C10_15  and  C11_16
DOCKED: REMARK   12  A    between atoms: C10_15  and  C18_23
DOCKED: REMARK   13  A    between atoms: C11_16  and  C12_17
DOCKED: REMARK   14  A    between atoms: C18_23  and  O4_24
DOCKED: REMARK   15  A    between atoms: C18_23  and  C19_25
DOCKED: REMARK   16  A    between atoms: C19_25  and  C20_26
DOCKED: REMARK   17  A    between atoms: C20_26  and  C21_27
DOCKED: REMARK   18  A    between atoms: C20_26  and  C22_28
DOCKED: REMARK   19  A    between atoms: N3_30  and  C23_31
DOCKED: REMARK   20  A    between atoms: C23_31  and  C24_32
DOCKED: REMARK   21  A    between atoms: C23_31  and  C31_42
DOCKED: REMARK   22  A    between atoms: N4_34  and  C25_35
DOCKED: REMARK   23  A    between atoms: C25_35  and  C26_36
DOCKED: REMARK   24  A    between atoms: C31_42  and  C32_43
DOCKED: REMARK   25  A    between atoms: C31_42  and  C33_44
DOCKED: REMARK                            x       y       z     vdW  Elec       q    Type
DOCKED: REMARK                         _______ _______ _______ _____ _____    ______ ____
DOCKED: USER                              x       y       z     vdW  Elec       q    Type
DOCKED: USER                           _______ _______ _______ _____ _____    ______ ____
DOCKED: ROOT
DOCKED: ATOM      1  C10 UNL     1       7.065   0.947   3.093 +0.00 +0.00    +0.106 C  
DOCKED: ENDROOT
DOCKED: BRANCH   1   4
DOCKED: ATOM      2  C9  UNL     1       4.711   0.793   3.868 +0.00 +0.00    +0.233 C  
DOCKED: ATOM      3  O3  UNL     1       4.377   1.791   3.231 +0.00 -0.00    -0.274 OA 
DOCKED: ATOM      4  N2  UNL     1       5.992   0.281   3.837 +0.00 -0.00    -0.308 N  
DOCKED: ATOM      5  H17 UNL     1       6.192  -0.596   4.305 +0.00 +0.00    +0.149 HD 
DOCKED: BRANCH   2   6
DOCKED: ATOM      6  C7  UNL     1       3.722   0.027   4.764 +0.00 +0.00    +0.156 C  
DOCKED: ATOM      7  C8  UNL     1       3.375   0.828   6.009 +0.00 +0.00    +0.038 C  
DOCKED: BRANCH   6  10
DOCKED: ATOM      8  C6  UNL     1       4.902  -2.062   4.166 +0.00 +0.00    +0.242 C  
DOCKED: ATOM      9  O2  UNL     1       4.808  -1.846   2.956 +0.00 -0.00    -0.273 OA 
DOCKED: ATOM     10  N1  UNL     1       4.339  -1.246   5.111 +0.00 -0.00    -0.302 N  
DOCKED: ATOM     11  H12 UNL     1       4.472  -1.425   6.103 +0.00 +0.00    +0.150 HD 
DOCKED: BRANCH   8  12
DOCKED: ATOM     12  C5  UNL     1       5.630  -3.317   4.695 +0.00 +0.00    +0.203 C  
DOCKED: BRANCH  12  13
DOCKED: ATOM     13  C3  UNL     1       6.105  -3.212   6.162 +0.00 +0.00    +0.023 C  
DOCKED: ATOM     14  C4  UNL     1       6.945  -4.451   6.510 +0.00 +0.00    +0.010 C  
DOCKED: BRANCH  13  16
DOCKED: ATOM     15  C1  UNL     1       8.419  -2.071   6.143 +0.00 +0.00    +0.004 C  
DOCKED: ATOM     16  C2  UNL     1       6.942  -1.955   6.486 +0.00 +0.00    +0.003 C  
DOCKED: ENDBRANCH  13  16
DOCKED: ENDBRANCH  12  13
DOCKED: BRANCH  12  17
DOCKED: ATOM     17  O1  UNL     1       6.735  -3.650   3.853 +0.00 -0.00    -0.382 OA 
DOCKED: ATOM     18  H11 UNL     1       6.642  -3.092   3.055 +0.00 +0.00    +0.210 HD 
DOCKED: ENDBRANCH  12  17
DOCKED: ENDBRANCH   8  12
DOCKED: ENDBRANCH   6  10
DOCKED: ENDBRANCH   2   6
DOCKED: ENDBRANCH   1   4
DOCKED: BRANCH   1  19
DOCKED: ATOM     19  C18 UNL     1       8.133  -0.053   2.532 +0.00 +0.00    +0.136 C  
DOCKED: BRANCH  19  20
DOCKED: ATOM     20  O4  UNL     1       7.952  -1.375   3.037 +0.00 -0.00    -0.390 OA 
DOCKED: ATOM     21  H27 UNL     1       7.002  -1.588   2.953 +0.00 +0.00    +0.210 HD 
DOCKED: ENDBRANCH  19  20
DOCKED: BRANCH  19  22
DOCKED: ATOM     22  C19 UNL     1       8.292  -0.131   0.997 +0.00 +0.00    +0.045 C  
DOCKED: BRANCH  22  23
DOCKED: ATOM     23  C20 UNL     1       7.195  -0.895   0.232 +0.00 +0.00    +0.074 C  
DOCKED: ATOM     24  C21 UNL     1       7.334  -0.634  -1.273 +0.00 +0.00    +0.017 C  
DOCKED: BRANCH  23  25
DOCKED: ATOM     25  C22 UNL     1       7.203  -2.410   0.476 +0.00 +0.00    +0.217 C  
DOCKED: ATOM     26  O5  UNL     1       6.522  -2.946   1.349 +0.00 -0.00    -0.276 OA 
DOCKED: ATOM     27  N3  UNL     1       8.098  -3.126  -0.284 +0.00 -0.00    -0.304 N  
DOCKED: ATOM     28  H34 UNL     1       8.766  -2.584  -0.836 +0.00 +0.00    +0.149 HD 
DOCKED: BRANCH  27  29
DOCKED: ATOM     29  C23 UNL     1       8.487  -4.473   0.118 +0.00 +0.00    +0.161 C  
DOCKED: BRANCH  29  30
DOCKED: ATOM     30  C24 UNL     1       9.637  -4.327   1.141 +0.00 +0.00    +0.234 C  
DOCKED: ATOM     31  O6  UNL     1      10.797  -4.646   0.882 +0.00 -0.00    -0.274 OA 
DOCKED: ATOM     32  N4  UNL     1       9.251  -3.822   2.366 +0.00 -0.00    -0.310 N  
DOCKED: ATOM     33  H36 UNL     1       8.330  -3.410   2.447 +0.00 +0.00    +0.149 HD 
DOCKED: BRANCH  32  34
DOCKED: ATOM     34  C25 UNL     1      10.226  -3.438   3.364 +0.00 +0.00    +0.139 C  
DOCKED: BRANCH  34  35
DOCKED: ATOM     35  C26 UNL     1      10.788  -2.059   3.117 +0.00 -0.00    -0.027 A  
DOCKED: ATOM     36  C27 UNL     1      10.972  -1.179   4.189 +0.00 +0.00    +0.025 A  
DOCKED: ATOM     37  C28 UNL     1      11.520   0.071   3.944 +0.00 +0.00    +0.111 A  
DOCKED: ATOM     38  N5  UNL     1      11.899   0.499   2.721 +0.00 -0.00    -0.263 NA 
DOCKED: ATOM     39  C29 UNL     1      11.731  -0.368   1.700 +0.00 +0.00    +0.111 A  
DOCKED: ATOM     40  C30 UNL     1      11.197  -1.638   1.846 +0.00 +0.00    +0.025 A  
DOCKED: ENDBRANCH  34  35
DOCKED: ENDBRANCH  32  34
DOCKED: ENDBRANCH  29  30
DOCKED: BRANCH  29  41
DOCKED: ATOM     41  C31 UNL     1       8.854  -5.360  -1.092 +0.00 +0.00    +0.012 C  
DOCKED: ATOM     42  C32 UNL     1       7.649  -6.002  -1.785 +0.00 +0.00    +0.009 C  
DOCKED: ATOM     43  C33 UNL     1       9.687  -4.588  -2.119 +0.00 +0.00    +0.009 C  
DOCKED: ENDBRANCH  29  41
DOCKED: ENDBRANCH  27  29
DOCKED: ENDBRANCH  23  25
DOCKED: ENDBRANCH  22  23
DOCKED: ENDBRANCH  19  22
DOCKED: ENDBRANCH   1  19
DOCKED: BRANCH   1  44
DOCKED: ATOM     44  C11 UNL     1       7.608   2.161   3.891 +0.00 +0.00    +0.060 C  
DOCKED: BRANCH  44  45
DOCKED: ATOM     45  C12 UNL     1       7.849   1.890   5.361 +0.00 -0.00    -0.046 A  
DOCKED: ATOM     46  C13 UNL     1       9.097   1.431   5.809 +0.00 +0.00    +0.004 A  
DOCKED: ATOM     47  C14 UNL     1       9.309   1.162   7.162 +0.00 +0.00    +0.000 A  
DOCKED: ATOM     48  C15 UNL     1       8.281   1.357   8.081 +0.00 +0.00    +0.000 A  
DOCKED: ATOM     49  C16 UNL     1       7.043   1.830   7.650 +0.00 +0.00    +0.000 A  
DOCKED: ATOM     50  C17 UNL     1       6.830   2.102   6.298 +0.00 +0.00    +0.004 A  
DOCKED: ENDBRANCH  44  45
DOCKED: ENDBRANCH   1  44
DOCKED: TORSDOF 19
DOCKED: TER
DOCKED: ENDMDL
________________________________________________________________________________


    FINAL DOCKED STATE:
    ________________________


Run:   11 / 20
Time taken for this run:   0.674s

DOCKED: MODEL        11
DOCKED: USER    Run = 11
DOCKED: USER
DOCKED: USER    Estimated Free Energy of Binding    =  +5.67 kcal/mol  [=(1)+(2)+(3)-(4)]
DOCKED: USER
DOCKED: USER    (1) Final Intermolecular Energy     =  +0.00 kcal/mol
DOCKED: USER        vdW + Hbond + desolv Energy     =  +0.00 kcal/mol
DOCKED: USER        Electrostatic Energy            =  +0.00 kcal/mol
DOCKED: USER        Moving Ligand-Fixed Receptor    =  +0.00 kcal/mol
DOCKED: USER        Moving Ligand-Moving Receptor   =  +0.00 kcal/mol
DOCKED: USER    (2) Final Total Internal Energy     = -12.51 kcal/mol
DOCKED: USER    (3) Torsional Free Energy           =  +5.67 kcal/mol
DOCKED: USER    (4) Unbound System's Energy         = -12.51 kcal/mol
DOCKED: USER
DOCKED: USER
DOCKED: REMARK  Name = ligands/ligand_8.pdb
DOCKED: REMARK  25 active torsions:
DOCKED: REMARK  status: ('A' for Active; 'I' for Inactive)
DOCKED: REMARK    1  A    between atoms: C1_1  and  C2_2
DOCKED: REMARK    2  A    between atoms: C2_2  and  C3_3
DOCKED: REMARK    3  A    between atoms: C3_3  and  C4_4
DOCKED: REMARK    4  A    between atoms: C3_3  and  C5_5
DOCKED: REMARK    5  A    between atoms: C5_5  and  O1_6
DOCKED: REMARK    6  A    between atoms: C5_5  and  C6_7
DOCKED: REMARK    7  A    between atoms: N1_9  and  C7_10
DOCKED: REMARK    8  A    between atoms: C7_10  and  C8_11
DOCKED: REMARK    9  A    between atoms: C7_10  and  C9_12
DOCKED: REMARK   10  A    between atoms: N2_14  and  C10_15
DOCKED: REMARK   11  A    between atoms: C10_15  and  C11_16
DOCKED: REMARK   12  A    between atoms: C10_15  and  C18_23
DOCKED: REMARK   13  A    between atoms: C11_16  and  C12_17
DOCKED: REMARK   14  A    between atoms: C18_23  and  O4_24
DOCKED: REMARK   15  A    between atoms: C18_23  and  C19_25
DOCKED: REMARK   16  A    between atoms: C19_25  and  C20_26
DOCKED: REMARK   17  A    between atoms: C20_26  and  C21_27
DOCKED: REMARK   18  A    between atoms: C20_26  and  C22_28
DOCKED: REMARK   19  A    between atoms: N3_30  and  C23_31
DOCKED: REMARK   20  A    between atoms: C23_31  and  C24_32
DOCKED: REMARK   21  A    between atoms: C23_31  and  C31_42
DOCKED: REMARK   22  A    between atoms: N4_34  and  C25_35
DOCKED: REMARK   23  A    between atoms: C25_35  and  C26_36
DOCKED: REMARK   24  A    between atoms: C31_42  and  C32_43
DOCKED: REMARK   25  A    between atoms: C31_42  and  C33_44
DOCKED: REMARK                            x       y       z     vdW  Elec       q    Type
DOCKED: REMARK                         _______ _______ _______ _____ _____    ______ ____
DOCKED: USER                              x       y       z     vdW  Elec       q    Type
DOCKED: USER                           _______ _______ _______ _____ _____    ______ ____
DOCKED: ROOT
DOCKED: ATOM      1  C10 UNL     1       3.850  -7.564  -3.128 +0.00 +0.00    +0.106 C  
DOCKED: ENDROOT
DOCKED: BRANCH   1   4
DOCKED: ATOM      2  C9  UNL     1       4.393  -9.176  -4.937 +0.00 +0.00    +0.233 C  
DOCKED: ATOM      3  O3  UNL     1       3.207  -9.363  -5.203 +0.00 -0.00    -0.274 OA 
DOCKED: ATOM      4  N2  UNL     1       4.810  -8.289  -3.965 +0.00 -0.00    -0.308 N  
DOCKED: ATOM      5  H17 UNL     1       5.800  -8.102  -3.850 +0.00 +0.00    +0.149 HD 
DOCKED: BRANCH   2   6
DOCKED: ATOM      6  C7  UNL     1       5.522  -9.922  -5.669 +0.00 +0.00    +0.156 C  
DOCKED: ATOM      7  C8  UNL     1       5.582 -11.381  -5.244 +0.00 +0.00    +0.038 C  
DOCKED: BRANCH   6  10
DOCKED: ATOM      8  C6  UNL     1       6.896  -7.874  -5.481 +0.00 +0.00    +0.242 C  
DOCKED: ATOM      9  O2  UNL     1       6.016  -7.161  -5.968 +0.00 -0.00    -0.273 OA 
DOCKED: ATOM     10  N1  UNL     1       6.770  -9.234  -5.369 +0.00 -0.00    -0.302 N  
DOCKED: ATOM     11  H12 UNL     1       7.494  -9.790  -4.922 +0.00 +0.00    +0.150 HD 
DOCKED: BRANCH   8  12
DOCKED: ATOM     12  C5  UNL     1       8.236  -7.272  -5.009 +0.00 +0.00    +0.203 C  
DOCKED: BRANCH  12  13
DOCKED: ATOM     13  C3  UNL     1       9.004  -8.141  -3.987 +0.00 +0.00    +0.023 C  
DOCKED: ATOM     14  C4  UNL     1      10.229  -7.360  -3.482 +0.00 +0.00    +0.010 C  
DOCKED: BRANCH  13  16
DOCKED: ATOM     15  C1  UNL     1       8.081  -7.554  -1.651 +0.00 +0.00    +0.004 C  
DOCKED: ATOM     16  C2  UNL     1       8.178  -8.588  -2.762 +0.00 +0.00    +0.003 C  
DOCKED: ENDBRANCH  13  16
DOCKED: ENDBRANCH  12  13
DOCKED: BRANCH  12  17
DOCKED: ATOM     17  O1  UNL     1       8.039  -5.962  -4.475 +0.00 -0.00    -0.382 OA 
DOCKED: ATOM     18  H11 UNL     1       7.118  -5.718  -4.697 +0.00 +0.00    +0.210 HD 
DOCKED: ENDBRANCH  12  17
DOCKED: ENDBRANCH   8  12
DOCKED: ENDBRANCH   6  10
DOCKED: ENDBRANCH   2   6
DOCKED: ENDBRANCH   1   4
DOCKED: BRANCH   1  19
DOCKED: ATOM     19  C18 UNL     1       4.354  -6.141  -2.712 +0.00 +0.00    +0.136 C  
DOCKED: BRANCH  19  20
DOCKED: ATOM     20  O4  UNL     1       5.723  -5.932  -3.052 +0.00 -0.00    -0.390 OA 
DOCKED: ATOM     21  H27 UNL     1       5.837  -6.222  -3.979 +0.00 +0.00    +0.210 HD 
DOCKED: ENDBRANCH  19  20
DOCKED: BRANCH  19  22
DOCKED: ATOM     22  C19 UNL     1       3.535  -4.927  -3.206 +0.00 +0.00    +0.045 C  
DOCKED: BRANCH  22  23
DOCKED: ATOM     23  C20 UNL     1       3.715  -4.534  -4.684 +0.00 +0.00    +0.074 C  
DOCKED: ATOM     24  C21 UNL     1       2.632  -3.525  -5.089 +0.00 +0.00    +0.017 C  
DOCKED: BRANCH  23  25
DOCKED: ATOM     25  C22 UNL     1       5.092  -3.941  -5.009 +0.00 +0.00    +0.217 C  
DOCKED: ATOM     26  O5  UNL     1       6.030  -4.625  -5.417 +0.00 -0.00    -0.276 OA 
DOCKED: ATOM     27  N3  UNL     1       5.242  -2.604  -4.723 +0.00 -0.00    -0.304 N  
DOCKED: ATOM     28  H34 UNL     1       4.485  -2.160  -4.199 +0.00 +0.00    +0.149 HD 
DOCKED: BRANCH  27  29
DOCKED: ATOM     29  C23 UNL     1       6.576  -2.026  -4.606 +0.00 +0.00    +0.161 C  
DOCKED: BRANCH  29  30
DOCKED: ATOM     30  C24 UNL     1       7.055  -2.281  -3.157 +0.00 +0.00    +0.234 C  
DOCKED: ATOM     31  O6  UNL     1       7.174  -1.376  -2.332 +0.00 -0.00    -0.274 OA 
DOCKED: ATOM     32  N4  UNL     1       7.347  -3.600  -2.876 +0.00 -0.00    -0.310 N  
DOCKED: ATOM     33  H36 UNL     1       7.053  -4.308  -3.536 +0.00 +0.00    +0.149 HD 
DOCKED: BRANCH  32  34
DOCKED: ATOM     34  C25 UNL     1       7.617  -4.040  -1.524 +0.00 +0.00    +0.139 C  
DOCKED: BRANCH  34  35
DOCKED: ATOM     35  C26 UNL     1       6.352  -4.282  -0.737 +0.00 -0.00    -0.027 A  
DOCKED: ATOM     36  C27 UNL     1       6.249  -5.408   0.088 +0.00 +0.00    +0.025 A  
DOCKED: ATOM     37  C28 UNL     1       5.091  -5.593   0.827 +0.00 +0.00    +0.111 A  
DOCKED: ATOM     38  N5  UNL     1       4.042  -4.743   0.808 +0.00 -0.00    -0.263 NA 
DOCKED: ATOM     39  C29 UNL     1       4.164  -3.653   0.021 +0.00 +0.00    +0.111 A  
DOCKED: ATOM     40  C30 UNL     1       5.282  -3.380  -0.750 +0.00 +0.00    +0.025 A  
DOCKED: ENDBRANCH  34  35
DOCKED: ENDBRANCH  32  34
DOCKED: ENDBRANCH  29  30
DOCKED: BRANCH  29  41
DOCKED: ATOM     41  C31 UNL     1       6.603  -0.535  -5.005 +0.00 +0.00    +0.012 C  
DOCKED: ATOM     42  C32 UNL     1       6.711  -0.293  -6.514 +0.00 +0.00    +0.009 C  
DOCKED: ATOM     43  C33 UNL     1       5.388   0.215  -4.450 +0.00 +0.00    +0.009 C  
DOCKED: ENDBRANCH  29  41
DOCKED: ENDBRANCH  27  29
DOCKED: ENDBRANCH  23  25
DOCKED: ENDBRANCH  22  23
DOCKED: ENDBRANCH  19  22
DOCKED: ENDBRANCH   1  19
DOCKED: BRANCH   1  44
DOCKED: ATOM     44  C11 UNL     1       3.329  -8.474  -1.985 +0.00 +0.00    +0.060 C  
DOCKED: BRANCH  44  45
DOCKED: ATOM     45  C12 UNL     1       4.402  -9.285  -1.289 +0.00 -0.00    -0.046 A  
DOCKED: ATOM     46  C13 UNL     1       5.073  -8.774  -0.169 +0.00 +0.00    +0.004 A  
DOCKED: ATOM     47  C14 UNL     1       6.076  -9.516   0.457 +0.00 +0.00    +0.000 A  
DOCKED: ATOM     48  C15 UNL     1       6.411 -10.779  -0.025 +0.00 +0.00    +0.000 A  
DOCKED: ATOM     49  C16 UNL     1       5.739 -11.305  -1.126 +0.00 +0.00    +0.000 A  
DOCKED: ATOM     50  C17 UNL     1       4.734 -10.565  -1.751 +0.00 +0.00    +0.004 A  
DOCKED: ENDBRANCH  44  45
DOCKED: ENDBRANCH   1  44
DOCKED: TORSDOF 19
DOCKED: TER
DOCKED: ENDMDL
________________________________________________________________________________


    FINAL DOCKED STATE:
    ________________________


Run:   12 / 20
Time taken for this run:   0.674s

DOCKED: MODEL        12
DOCKED: USER    Run = 12
DOCKED: USER
DOCKED: USER    Estimated Free Energy of Binding    =  +5.67 kcal/mol  [=(1)+(2)+(3)-(4)]
DOCKED: USER
DOCKED: USER    (1) Final Intermolecular Energy     =  +0.00 kcal/mol
DOCKED: USER        vdW + Hbond + desolv Energy     =  +0.00 kcal/mol
DOCKED: USER        Electrostatic Energy            =  +0.00 kcal/mol
DOCKED: USER        Moving Ligand-Fixed Receptor    =  +0.00 kcal/mol
DOCKED: USER        Moving Ligand-Moving Receptor   =  +0.00 kcal/mol
DOCKED: USER    (2) Final Total Internal Energy     = -12.52 kcal/mol
DOCKED: USER    (3) Torsional Free Energy           =  +5.67 kcal/mol
DOCKED: USER    (4) Unbound System's Energy         = -12.52 kcal/mol
DOCKED: USER
DOCKED: USER
DOCKED: REMARK  Name = ligands/ligand_8.pdb
DOCKED: REMARK  25 active torsions:
DOCKED: REMARK  status: ('A' for Active; 'I' for Inactive)
DOCKED: REMARK    1  A    between atoms: C1_1  and  C2_2
DOCKED: REMARK    2  A    between atoms: C2_2  and  C3_3
DOCKED: REMARK    3  A    between atoms: C3_3  and  C4_4
DOCKED: REMARK    4  A    between atoms: C3_3  and  C5_5
DOCKED: REMARK    5  A    between atoms: C5_5  and  O1_6
DOCKED: REMARK    6  A    between atoms: C5_5  and  C6_7
DOCKED: REMARK    7  A    between atoms: N1_9  and  C7_10
DOCKED: REMARK    8  A    between atoms: C7_10  and  C8_11
DOCKED: REMARK    9  A    between atoms: C7_10  and  C9_12
DOCKED: REMARK   10  A    between atoms: N2_14  and  C10_15
DOCKED: REMARK   11  A    between atoms: C10_15  and  C11_16
DOCKED: REMARK   12  A    between atoms: C10_15  and  C18_23
DOCKED: REMARK   13  A    between atoms: C11_16  and  C12_17
DOCKED: REMARK   14  A    between atoms: C18_23  and  O4_24
DOCKED: REMARK   15  A    between atoms: C18_23  and  C19_25
DOCKED: REMARK   16  A    between atoms: C19_25  and  C20_26
DOCKED: REMARK   17  A    between atoms: C20_26  and  C21_27
DOCKED: REMARK   18  A    between atoms: C20_26  and  C22_28
DOCKED: REMARK   19  A    between atoms: N3_30  and  C23_31
DOCKED: REMARK   20  A    between atoms: C23_31  and  C24_32
DOCKED: REMARK   21  A    between atoms: C23_31  and  C31_42
DOCKED: REMARK   22  A    between atoms: N4_34  and  C25_35
DOCKED: REMARK   23  A    between atoms: C25_35  and  C26_36
DOCKED: REMARK   24  A    between atoms: C31_42  and  C32_43
DOCKED: REMARK   25  A    between atoms: C31_42  and  C33_44
DOCKED: REMARK                            x       y       z     vdW  Elec       q    Type
DOCKED: REMARK                         _______ _______ _______ _____ _____    ______ ____
DOCKED: USER                              x       y       z     vdW  Elec       q    Type
DOCKED: USER                           _______ _______ _______ _____ _____    ______ ____
DOCKED: ROOT
DOCKED: ATOM      1  C10 UNL     1      13.613  -3.506   7.480 +0.00 +0.00    +0.106 C  
DOCKED: ENDROOT
DOCKED: BRANCH   1   4
DOCKED: ATOM      2  C9  UNL     1      15.650  -4.909   7.262 +0.00 +0.00    +0.233 C  
DOCKED: ATOM      3  O3  UNL     1      15.233  -5.738   8.071 +0.00 -0.00    -0.274 OA 
DOCKED: ATOM      4  N2  UNL     1      14.917  -3.804   6.880 +0.00 -0.00    -0.308 N  
DOCKED: ATOM      5  H17 UNL     1      15.266  -3.204   6.142 +0.00 +0.00    +0.149 HD 
DOCKED: BRANCH   2   6
DOCKED: ATOM      6  C7  UNL     1      17.036  -5.035   6.606 +0.00 +0.00    +0.156 C  
DOCKED: ATOM      7  C8  UNL     1      17.862  -3.777   6.823 +0.00 +0.00    +0.038 C  
DOCKED: BRANCH   6  10
DOCKED: ATOM      8  C6  UNL     1      16.411  -4.309   4.325 +0.00 +0.00    +0.242 C  
DOCKED: ATOM      9  O2  UNL     1      16.059  -3.191   4.707 +0.00 -0.00    -0.273 OA 
DOCKED: ATOM     10  N1  UNL     1      16.827  -5.290   5.187 +0.00 -0.00    -0.302 N  
DOCKED: ATOM     11  H12 UNL     1      17.153  -6.187   4.838 +0.00 +0.00    +0.150 HD 
DOCKED: BRANCH   8  12
DOCKED: ATOM     12  C5  UNL     1      16.354  -4.693   2.832 +0.00 +0.00    +0.203 C  
DOCKED: BRANCH  12  13
DOCKED: ATOM     13  C3  UNL     1      17.695  -4.543   2.079 +0.00 +0.00    +0.023 C  
DOCKED: ATOM     14  C4  UNL     1      17.756  -3.152   1.428 +0.00 +0.00    +0.010 C  
DOCKED: BRANCH  13  16
DOCKED: ATOM     15  C1  UNL     1      19.689  -3.430   3.280 +0.00 +0.00    +0.004 C  
DOCKED: ATOM     16  C2  UNL     1      18.956  -4.722   2.953 +0.00 +0.00    +0.003 C  
DOCKED: ENDBRANCH  13  16
DOCKED: ENDBRANCH  12  13
DOCKED: BRANCH  12  17
DOCKED: ATOM     17  O1  UNL     1      15.338  -3.947   2.159 +0.00 -0.00    -0.382 OA 
DOCKED: ATOM     18  H11 UNL     1      14.878  -3.433   2.853 +0.00 +0.00    +0.210 HD 
DOCKED: ENDBRANCH  12  17
DOCKED: ENDBRANCH   8  12
DOCKED: ENDBRANCH   6  10
DOCKED: ENDBRANCH   2   6
DOCKED: ENDBRANCH   1   4
DOCKED: BRANCH   1  19
DOCKED: ATOM     19  C18 UNL     1      12.789  -2.456   6.660 +0.00 +0.00    +0.136 C  
DOCKED: BRANCH  19  20
DOCKED: ATOM     20  O4  UNL     1      13.518  -1.950   5.543 +0.00 -0.00    -0.390 OA 
DOCKED: ATOM     21  H27 UNL     1      14.017  -2.700   5.161 +0.00 +0.00    +0.210 HD 
DOCKED: ENDBRANCH  19  20
DOCKED: BRANCH  19  22
DOCKED: ATOM     22  C19 UNL     1      11.383  -2.880   6.177 +0.00 +0.00    +0.045 C  
DOCKED: BRANCH  22  23
DOCKED: ATOM     23  C20 UNL     1      11.320  -4.091   5.227 +0.00 +0.00    +0.074 C  
DOCKED: ATOM     24  C21 UNL     1       9.902  -4.234   4.662 +0.00 +0.00    +0.017 C  
DOCKED: BRANCH  23  25
DOCKED: ATOM     25  C22 UNL     1      12.315  -4.022   4.061 +0.00 +0.00    +0.217 C  
DOCKED: ATOM     26  O5  UNL     1      13.517  -4.244   4.199 +0.00 -0.00    -0.276 OA 
DOCKED: ATOM     27  N3  UNL     1      11.790  -3.599   2.862 +0.00 -0.00    -0.304 N  
DOCKED: ATOM     28  H34 UNL     1      10.833  -3.240   2.882 +0.00 +0.00    +0.149 HD 
DOCKED: BRANCH  27  29
DOCKED: ATOM     29  C23 UNL     1      12.674  -3.114   1.807 +0.00 +0.00    +0.161 C  
DOCKED: BRANCH  29  30
DOCKED: ATOM     30  C24 UNL     1      13.055  -1.660   2.169 +0.00 +0.00    +0.234 C  
DOCKED: ATOM     31  O6  UNL     1      12.465  -0.686   1.702 +0.00 -0.00    -0.274 OA 
DOCKED: ATOM     32  N4  UNL     1      14.116  -1.547   3.043 +0.00 -0.00    -0.310 N  
DOCKED: ATOM     33  H36 UNL     1      14.430  -2.380   3.526 +0.00 +0.00    +0.149 HD 
DOCKED: BRANCH  32  34
DOCKED: ATOM     34  C25 UNL     1      14.474  -0.277   3.635 +0.00 +0.00    +0.139 C  
DOCKED: BRANCH  34  35
DOCKED: ATOM     35  C26 UNL     1      15.794  -0.335   4.366 +0.00 -0.00    -0.027 A  
DOCKED: ATOM     36  C27 UNL     1      15.824  -0.225   5.761 +0.00 +0.00    +0.025 A  
DOCKED: ATOM     37  C28 UNL     1      17.044  -0.315   6.414 +0.00 +0.00    +0.111 A  
DOCKED: ATOM     38  N5  UNL     1      18.221  -0.510   5.783 +0.00 -0.00    -0.263 NA 
DOCKED: ATOM     39  C29 UNL     1      18.174  -0.632   4.440 +0.00 +0.00    +0.111 A  
DOCKED: ATOM     40  C30 UNL     1      17.004  -0.561   3.700 +0.00 +0.00    +0.025 A  
DOCKED: ENDBRANCH  34  35
DOCKED: ENDBRANCH  32  34
DOCKED: ENDBRANCH  29  30
DOCKED: BRANCH  29  41
DOCKED: ATOM     41  C31 UNL     1      12.039  -3.250   0.406 +0.00 +0.00    +0.012 C  
DOCKED: ATOM     42  C32 UNL     1      13.053  -3.443  -0.724 +0.00 +0.00    +0.009 C  
DOCKED: ATOM     43  C33 UNL     1      11.005  -4.378   0.368 +0.00 +0.00    +0.009 C  
DOCKED: ENDBRANCH  29  41
DOCKED: ENDBRANCH  27  29
DOCKED: ENDBRANCH  23  25
DOCKED: ENDBRANCH  22  23
DOCKED: ENDBRANCH  19  22
DOCKED: ENDBRANCH   1  19
DOCKED: BRANCH   1  44
DOCKED: ATOM     44  C11 UNL     1      13.762  -3.233   8.999 +0.00 +0.00    +0.060 C  
DOCKED: BRANCH  44  45
DOCKED: ATOM     45  C12 UNL     1      14.833  -2.224   9.354 +0.00 -0.00    -0.046 A  
DOCKED: ATOM     46  C13 UNL     1      14.601  -0.849   9.204 +0.00 +0.00    +0.004 A  
DOCKED: ATOM     47  C14 UNL     1      15.598   0.076   9.512 +0.00 +0.00    +0.000 A  
DOCKED: ATOM     48  C15 UNL     1      16.833  -0.361   9.983 +0.00 +0.00    +0.000 A  
DOCKED: ATOM     49  C16 UNL     1      17.070  -1.723  10.154 +0.00 +0.00    +0.000 A  
DOCKED: ATOM     50  C17 UNL     1      16.073  -2.650   9.848 +0.00 +0.00    +0.004 A  
DOCKED: ENDBRANCH  44  45
DOCKED: ENDBRANCH   1  44
DOCKED: TORSDOF 19
DOCKED: TER
DOCKED: ENDMDL
________________________________________________________________________________


    FINAL DOCKED STATE:
    ________________________


Run:   13 / 20
Time taken for this run:   0.674s

DOCKED: MODEL        13
DOCKED: USER    Run = 13
DOCKED: USER
DOCKED: USER    Estimated Free Energy of Binding    =  +5.67 kcal/mol  [=(1)+(2)+(3)-(4)]
DOCKED: USER
DOCKED: USER    (1) Final Intermolecular Energy     =  +0.00 kcal/mol
DOCKED: USER        vdW + Hbond + desolv Energy     =  +0.00 kcal/mol
DOCKED: USER        Electrostatic Energy            =  +0.00 kcal/mol
DOCKED: USER        Moving Ligand-Fixed Receptor    =  +0.00 kcal/mol
DOCKED: USER        Moving Ligand-Moving Receptor   =  +0.00 kcal/mol
DOCKED: USER    (2) Final Total Internal Energy     = -12.51 kcal/mol
DOCKED: USER    (3) Torsional Free Energy           =  +5.67 kcal/mol
DOCKED: USER    (4) Unbound System's Energy         = -12.51 kcal/mol
DOCKED: USER
DOCKED: USER
DOCKED: REMARK  Name = ligands/ligand_8.pdb
DOCKED: REMARK  25 active torsions:
DOCKED: REMARK  status: ('A' for Active; 'I' for Inactive)
DOCKED: REMARK    1  A    between atoms: C1_1  and  C2_2
DOCKED: REMARK    2  A    between atoms: C2_2  and  C3_3
DOCKED: REMARK    3  A    between atoms: C3_3  and  C4_4
DOCKED: REMARK    4  A    between atoms: C3_3  and  C5_5
DOCKED: REMARK    5  A    between atoms: C5_5  and  O1_6
DOCKED: REMARK    6  A    between atoms: C5_5  and  C6_7
DOCKED: REMARK    7  A    between atoms: N1_9  and  C7_10
DOCKED: REMARK    8  A    between atoms: C7_10  and  C8_11
DOCKED: REMARK    9  A    between atoms: C7_10  and  C9_12
DOCKED: REMARK   10  A    between atoms: N2_14  and  C10_15
DOCKED: REMARK   11  A    between atoms: C10_15  and  C11_16
DOCKED: REMARK   12  A    between atoms: C10_15  and  C18_23
DOCKED: REMARK   13  A    between atoms: C11_16  and  C12_17
DOCKED: REMARK   14  A    between atoms: C18_23  and  O4_24
DOCKED: REMARK   15  A    between atoms: C18_23  and  C19_25
DOCKED: REMARK   16  A    between atoms: C19_25  and  C20_26
DOCKED: REMARK   17  A    between atoms: C20_26  and  C21_27
DOCKED: REMARK   18  A    between atoms: C20_26  and  C22_28
DOCKED: REMARK   19  A    between atoms: N3_30  and  C23_31
DOCKED: REMARK   20  A    between atoms: C23_31  and  C24_32
DOCKED: REMARK   21  A    between atoms: C23_31  and  C31_42
DOCKED: REMARK   22  A    between atoms: N4_34  and  C25_35
DOCKED: REMARK   23  A    between atoms: C25_35  and  C26_36
DOCKED: REMARK   24  A    between atoms: C31_42  and  C32_43
DOCKED: REMARK   25  A    between atoms: C31_42  and  C33_44
DOCKED: REMARK                            x       y       z     vdW  Elec       q    Type
DOCKED: REMARK                         _______ _______ _______ _____ _____    ______ ____
DOCKED: USER                              x       y       z     vdW  Elec       q    Type
DOCKED: USER                           _______ _______ _______ _____ _____    ______ ____
DOCKED: ROOT
DOCKED: ATOM      1  C10 UNL     1       6.086  -3.189   1.571 +0.00 +0.00    +0.106 C  
DOCKED: ENDROOT
DOCKED: BRANCH   1   4
DOCKED: ATOM      2  C9  UNL     1       5.613  -4.287  -0.606 +0.00 +0.00    +0.233 C  
DOCKED: ATOM      3  O3  UNL     1       4.633  -3.573  -0.816 +0.00 -0.00    -0.274 OA 
DOCKED: ATOM      4  N2  UNL     1       6.408  -4.153   0.514 +0.00 -0.00    -0.308 N  
DOCKED: ATOM      5  H17 UNL     1       7.256  -4.701   0.593 +0.00 +0.00    +0.149 HD 
DOCKED: BRANCH   2   6
DOCKED: ATOM      6  C7  UNL     1       6.036  -5.400  -1.580 +0.00 +0.00    +0.156 C  
DOCKED: ATOM      7  C8  UNL     1       5.060  -6.567  -1.537 +0.00 +0.00    +0.038 C  
DOCKED: BRANCH   6  10
DOCKED: ATOM      8  C6  UNL     1       8.392  -4.924  -0.998 +0.00 +0.00    +0.242 C  
DOCKED: ATOM      9  O2  UNL     1       8.276  -3.721  -1.240 +0.00 -0.00    -0.273 OA 
DOCKED: ATOM     10  N1  UNL     1       7.379  -5.822  -1.206 +0.00 -0.00    -0.302 N  
DOCKED: ATOM     11  H12 UNL     1       7.489  -6.801  -0.955 +0.00 +0.00    +0.150 HD 
DOCKED: BRANCH   8  12
DOCKED: ATOM     12  C5  UNL     1       9.725  -5.507  -0.485 +0.00 +0.00    +0.203 C  
DOCKED: BRANCH  12  13
DOCKED: ATOM     13  C3  UNL     1       9.594  -6.861   0.248 +0.00 +0.00    +0.023 C  
DOCKED: ATOM     14  C4  UNL     1      10.957  -7.245   0.846 +0.00 +0.00    +0.010 C  
DOCKED: BRANCH  13  16
DOCKED: ATOM     15  C1  UNL     1       9.035  -6.339   2.712 +0.00 +0.00    +0.004 C  
DOCKED: ATOM     16  C2  UNL     1       8.545  -6.888   1.381 +0.00 +0.00    +0.003 C  
DOCKED: ENDBRANCH  13  16
DOCKED: ENDBRANCH  12  13
DOCKED: BRANCH  12  17
DOCKED: ATOM     17  O1  UNL     1      10.395  -4.566   0.356 +0.00 -0.00    -0.382 OA 
DOCKED: ATOM     18  H11 UNL     1       9.901  -3.726   0.266 +0.00 +0.00    +0.210 HD 
DOCKED: ENDBRANCH  12  17
DOCKED: ENDBRANCH   8  12
DOCKED: ENDBRANCH   6  10
DOCKED: ENDBRANCH   2   6
DOCKED: ENDBRANCH   1   4
DOCKED: BRANCH   1  19
DOCKED: ATOM     19  C18 UNL     1       7.357  -2.618   2.286 +0.00 +0.00    +0.136 C  
DOCKED: BRANCH  19  20
DOCKED: ATOM     20  O4  UNL     1       8.546  -3.308   1.906 +0.00 -0.00    -0.390 OA 
DOCKED: ATOM     21  H27 UNL     1       8.534  -3.387   0.932 +0.00 +0.00    +0.210 HD 
DOCKED: ENDBRANCH  19  20
DOCKED: BRANCH  19  22
DOCKED: ATOM     22  C19 UNL     1       7.612  -1.098   2.168 +0.00 +0.00    +0.045 C  
DOCKED: BRANCH  22  23
DOCKED: ATOM     23  C20 UNL     1       8.160  -0.597   0.818 +0.00 +0.00    +0.074 C  
DOCKED: ATOM     24  C21 UNL     1       8.079   0.934   0.761 +0.00 +0.00    +0.017 C  
DOCKED: BRANCH  23  25
DOCKED: ATOM     25  C22 UNL     1       9.603  -1.030   0.531 +0.00 +0.00    +0.217 C  
DOCKED: ATOM     26  O5  UNL     1       9.878  -2.051  -0.097 +0.00 -0.00    -0.276 OA 
DOCKED: ATOM     27  N3  UNL     1      10.579  -0.249   1.106 +0.00 -0.00    -0.304 N  
DOCKED: ATOM     28  H34 UNL     1      10.265   0.456   1.776 +0.00 +0.00    +0.149 HD 
DOCKED: BRANCH  27  29
DOCKED: ATOM     29  C23 UNL     1      11.937  -0.761   1.247 +0.00 +0.00    +0.161 C  
DOCKED: BRANCH  29  30
DOCKED: ATOM     30  C24 UNL     1      11.976  -1.588   2.553 +0.00 +0.00    +0.234 C  
DOCKED: ATOM     31  O6  UNL     1      12.585  -1.215   3.555 +0.00 -0.00    -0.274 OA 
DOCKED: ATOM     32  N4  UNL     1      11.283  -2.780   2.496 +0.00 -0.00    -0.310 N  
DOCKED: ATOM     33  H36 UNL     1      10.658  -2.935   1.714 +0.00 +0.00    +0.149 HD 
DOCKED: BRANCH  32  34
DOCKED: ATOM     34  C25 UNL     1      11.053  -3.577   3.681 +0.00 +0.00    +0.139 C  
DOCKED: BRANCH  34  35
DOCKED: ATOM     35  C26 UNL     1       9.886  -3.071   4.494 +0.00 -0.00    -0.027 A  
DOCKED: ATOM     36  C27 UNL     1       8.981  -3.980   5.055 +0.00 +0.00    +0.025 A  
DOCKED: ATOM     37  C28 UNL     1       7.935  -3.496   5.826 +0.00 +0.00    +0.111 A  
DOCKED: ATOM     38  N5  UNL     1       7.732  -2.185   6.078 +0.00 -0.00    -0.263 NA 
DOCKED: ATOM     39  C29 UNL     1       8.622  -1.322   5.545 +0.00 +0.00    +0.111 A  
DOCKED: ATOM     40  C30 UNL     1       9.701  -1.711   4.766 +0.00 +0.00    +0.025 A  
DOCKED: ENDBRANCH  34  35
DOCKED: ENDBRANCH  32  34
DOCKED: ENDBRANCH  29  30
DOCKED: BRANCH  29  41
DOCKED: ATOM     41  C31 UNL     1      12.993   0.365   1.205 +0.00 +0.00    +0.012 C  
DOCKED: ATOM     42  C32 UNL     1      13.397   0.791  -0.209 +0.00 +0.00    +0.009 C  
DOCKED: ATOM     43  C33 UNL     1      12.535   1.591   2.001 +0.00 +0.00    +0.009 C  
DOCKED: ENDBRANCH  29  41
DOCKED: ENDBRANCH  27  29
DOCKED: ENDBRANCH  23  25
DOCKED: ENDBRANCH  22  23
DOCKED: ENDBRANCH  19  22
DOCKED: ENDBRANCH   1  19
DOCKED: BRANCH   1  44
DOCKED: ATOM     44  C11 UNL     1       4.967  -3.745   2.491 +0.00 +0.00    +0.060 C  
DOCKED: BRANCH  44  45
DOCKED: ATOM     45  C12 UNL     1       5.175  -5.177   2.936 +0.00 -0.00    -0.046 A  
DOCKED: ATOM     46  C13 UNL     1       5.817  -5.464   4.149 +0.00 +0.00    +0.004 A  
DOCKED: ATOM     47  C14 UNL     1       6.026  -6.786   4.547 +0.00 +0.00    +0.000 A  
DOCKED: ATOM     48  C15 UNL     1       5.585  -7.833   3.742 +0.00 +0.00    +0.000 A  
DOCKED: ATOM     49  C16 UNL     1       4.928  -7.560   2.544 +0.00 +0.00    +0.000 A  
DOCKED: ATOM     50  C17 UNL     1       4.717  -6.239   2.146 +0.00 +0.00    +0.004 A  
DOCKED: ENDBRANCH  44  45
DOCKED: ENDBRANCH   1  44
DOCKED: TORSDOF 19
DOCKED: TER
DOCKED: ENDMDL
________________________________________________________________________________


    FINAL DOCKED STATE:
    ________________________


Run:   14 / 20
Time taken for this run:   0.674s

DOCKED: MODEL        14
DOCKED: USER    Run = 14
DOCKED: USER
DOCKED: USER    Estimated Free Energy of Binding    =  +5.67 kcal/mol  [=(1)+(2)+(3)-(4)]
DOCKED: USER
DOCKED: USER    (1) Final Intermolecular Energy     =  +0.00 kcal/mol
DOCKED: USER        vdW + Hbond + desolv Energy     =  +0.00 kcal/mol
DOCKED: USER        Electrostatic Energy            =  +0.00 kcal/mol
DOCKED: USER        Moving Ligand-Fixed Receptor    =  +0.00 kcal/mol
DOCKED: USER        Moving Ligand-Moving Receptor   =  +0.00 kcal/mol
DOCKED: USER    (2) Final Total Internal Energy     = -12.08 kcal/mol
DOCKED: USER    (3) Torsional Free Energy           =  +5.67 kcal/mol
DOCKED: USER    (4) Unbound System's Energy         = -12.08 kcal/mol
DOCKED: USER
DOCKED: USER
DOCKED: REMARK  Name = ligands/ligand_8.pdb
DOCKED: REMARK  25 active torsions:
DOCKED: REMARK  status: ('A' for Active; 'I' for Inactive)
DOCKED: REMARK    1  A    between atoms: C1_1  and  C2_2
DOCKED: REMARK    2  A    between atoms: C2_2  and  C3_3
DOCKED: REMARK    3  A    between atoms: C3_3  and  C4_4
DOCKED: REMARK    4  A    between atoms: C3_3  and  C5_5
DOCKED: REMARK    5  A    between atoms: C5_5  and  O1_6
DOCKED: REMARK    6  A    between atoms: C5_5  and  C6_7
DOCKED: REMARK    7  A    between atoms: N1_9  and  C7_10
DOCKED: REMARK    8  A    between atoms: C7_10  and  C8_11
DOCKED: REMARK    9  A    between atoms: C7_10  and  C9_12
DOCKED: REMARK   10  A    between atoms: N2_14  and  C10_15
DOCKED: REMARK   11  A    between atoms: C10_15  and  C11_16
DOCKED: REMARK   12  A    between atoms: C10_15  and  C18_23
DOCKED: REMARK   13  A    between atoms: C11_16  and  C12_17
DOCKED: REMARK   14  A    between atoms: C18_23  and  O4_24
DOCKED: REMARK   15  A    between atoms: C18_23  and  C19_25
DOCKED: REMARK   16  A    between atoms: C19_25  and  C20_26
DOCKED: REMARK   17  A    between atoms: C20_26  and  C21_27
DOCKED: REMARK   18  A    between atoms: C20_26  and  C22_28
DOCKED: REMARK   19  A    between atoms: N3_30  and  C23_31
DOCKED: REMARK   20  A    between atoms: C23_31  and  C24_32
DOCKED: REMARK   21  A    between atoms: C23_31  and  C31_42
DOCKED: REMARK   22  A    between atoms: N4_34  and  C25_35
DOCKED: REMARK   23  A    between atoms: C25_35  and  C26_36
DOCKED: REMARK   24  A    between atoms: C31_42  and  C32_43
DOCKED: REMARK   25  A    between atoms: C31_42  and  C33_44
DOCKED: REMARK                            x       y       z     vdW  Elec       q    Type
DOCKED: REMARK                         _______ _______ _______ _____ _____    ______ ____
DOCKED: USER                              x       y       z     vdW  Elec       q    Type
DOCKED: USER                           _______ _______ _______ _____ _____    ______ ____
DOCKED: ROOT
DOCKED: ATOM      1  C10 UNL     1      17.583  -5.343  -0.986 +0.00 +0.00    +0.106 C  
DOCKED: ENDROOT
DOCKED: BRANCH   1   4
DOCKED: ATOM      2  C9  UNL     1      17.363  -7.741  -1.590 +0.00 +0.00    +0.233 C  
DOCKED: ATOM      3  O3  UNL     1      16.288  -7.556  -2.160 +0.00 -0.00    -0.274 OA 
DOCKED: ATOM      4  N2  UNL     1      18.090  -6.718  -1.017 +0.00 -0.00    -0.308 N  
DOCKED: ATOM      5  H17 UNL     1      19.013  -6.908  -0.644 +0.00 +0.00    +0.149 HD 
DOCKED: BRANCH   2   6
DOCKED: ATOM      6  C7  UNL     1      17.991  -9.140  -1.465 +0.00 +0.00    +0.156 C  
DOCKED: ATOM      7  C8  UNL     1      19.291  -9.231  -2.248 +0.00 +0.00    +0.038 C  
DOCKED: BRANCH   6  10
DOCKED: ATOM      8  C6  UNL     1      17.196 -11.455  -1.818 +0.00 +0.00    +0.242 C  
DOCKED: ATOM      9  O2  UNL     1      18.247 -11.949  -1.405 +0.00 -0.00    -0.273 OA 
DOCKED: ATOM     10  N1  UNL     1      17.013 -10.104  -1.951 +0.00 -0.00    -0.302 N  
DOCKED: ATOM     11  H12 UNL     1      16.120  -9.725  -2.253 +0.00 +0.00    +0.150 HD 
DOCKED: BRANCH   8  12
DOCKED: ATOM     12  C5  UNL     1      16.021 -12.350  -2.267 +0.00 +0.00    +0.203 C  
DOCKED: BRANCH  12  13
DOCKED: ATOM     13  C3  UNL     1      16.234 -13.056  -3.625 +0.00 +0.00    +0.023 C  
DOCKED: ATOM     14  C4  UNL     1      15.010 -12.807  -4.521 +0.00 +0.00    +0.010 C  
DOCKED: BRANCH  13  16
DOCKED: ATOM     15  C1  UNL     1      17.295 -11.401  -5.296 +0.00 +0.00    +0.004 C  
DOCKED: ATOM     16  C2  UNL     1      17.496 -12.612  -4.399 +0.00 +0.00    +0.003 C  
DOCKED: ENDBRANCH  13  16
DOCKED: ENDBRANCH  12  13
DOCKED: BRANCH  12  17
DOCKED: ATOM     17  O1  UNL     1      14.804 -11.602  -2.299 +0.00 -0.00    -0.382 OA 
DOCKED: ATOM     18  H11 UNL     1      14.974 -10.838  -2.886 +0.00 +0.00    +0.210 HD 
DOCKED: ENDBRANCH  12  17
DOCKED: ENDBRANCH   8  12
DOCKED: ENDBRANCH   6  10
DOCKED: ENDBRANCH   2   6
DOCKED: ENDBRANCH   1   4
DOCKED: BRANCH   1  19
DOCKED: ATOM     19  C18 UNL     1      17.678  -4.624  -2.375 +0.00 +0.00    +0.136 C  
DOCKED: BRANCH  19  20
DOCKED: ATOM     20  O4  UNL     1      18.133  -5.499  -3.406 +0.00 -0.00    -0.390 OA 
DOCKED: ATOM     21  H27 UNL     1      17.614  -6.324  -3.333 +0.00 +0.00    +0.210 HD 
DOCKED: ENDBRANCH  19  20
DOCKED: BRANCH  19  22
DOCKED: ATOM     22  C19 UNL     1      16.417  -3.886  -2.879 +0.00 +0.00    +0.045 C  
DOCKED: BRANCH  22  23
DOCKED: ATOM     23  C20 UNL     1      15.061  -4.453  -2.417 +0.00 +0.00    +0.074 C  
DOCKED: ATOM     24  C21 UNL     1      14.124  -3.303  -2.026 +0.00 +0.00    +0.017 C  
DOCKED: BRANCH  23  25
DOCKED: ATOM     25  C22 UNL     1      14.361  -5.329  -3.465 +0.00 +0.00    +0.217 C  
DOCKED: ATOM     26  O5  UNL     1      13.140  -5.346  -3.608 +0.00 -0.00    -0.276 OA 
DOCKED: ATOM     27  N3  UNL     1      15.185  -6.171  -4.175 +0.00 -0.00    -0.304 N  
DOCKED: ATOM     28  H34 UNL     1      16.153  -6.242  -3.855 +0.00 +0.00    +0.149 HD 
DOCKED: BRANCH  27  29
DOCKED: ATOM     29  C23 UNL     1      14.623  -7.311  -4.892 +0.00 +0.00    +0.161 C  
DOCKED: BRANCH  29  30
DOCKED: ATOM     30  C24 UNL     1      14.315  -8.401  -3.840 +0.00 +0.00    +0.234 C  
DOCKED: ATOM     31  O6  UNL     1      14.987  -9.427  -3.735 +0.00 -0.00    -0.274 OA 
DOCKED: ATOM     32  N4  UNL     1      13.221  -8.134  -3.042 +0.00 -0.00    -0.310 N  
DOCKED: ATOM     33  H36 UNL     1      12.833  -7.199  -3.058 +0.00 +0.00    +0.149 HD 
DOCKED: BRANCH  32  34
DOCKED: ATOM     34  C25 UNL     1      12.915  -8.947  -1.886 +0.00 +0.00    +0.139 C  
DOCKED: BRANCH  34  35
DOCKED: ATOM     35  C26 UNL     1      13.769  -8.594  -0.693 +0.00 -0.00    -0.027 A  
DOCKED: ATOM     36  C27 UNL     1      14.467  -9.599  -0.013 +0.00 +0.00    +0.025 A  
DOCKED: ATOM     37  C28 UNL     1      15.272  -9.247   1.059 +0.00 +0.00    +0.111 A  
DOCKED: ATOM     38  N5  UNL     1      15.434  -7.979   1.494 +0.00 -0.00    -0.263 NA 
DOCKED: ATOM     39  C29 UNL     1      14.768  -7.020   0.818 +0.00 +0.00    +0.111 A  
DOCKED: ATOM     40  C30 UNL     1      13.945  -7.272  -0.268 +0.00 +0.00    +0.025 A  
DOCKED: ENDBRANCH  34  35
DOCKED: ENDBRANCH  32  34
DOCKED: ENDBRANCH  29  30
DOCKED: BRANCH  29  41
DOCKED: ATOM     41  C31 UNL     1      15.548  -7.799  -6.027 +0.00 +0.00    +0.012 C  
DOCKED: ATOM     42  C32 UNL     1      17.002  -8.020  -5.598 +0.00 +0.00    +0.009 C  
DOCKED: ATOM     43  C33 UNL     1      15.006  -9.073  -6.682 +0.00 +0.00    +0.009 C  
DOCKED: ENDBRANCH  29  41
DOCKED: ENDBRANCH  27  29
DOCKED: ENDBRANCH  23  25
DOCKED: ENDBRANCH  22  23
DOCKED: ENDBRANCH  19  22
DOCKED: ENDBRANCH   1  19
DOCKED: BRANCH   1  44
DOCKED: ATOM     44  C11 UNL     1      18.165  -4.576   0.229 +0.00 +0.00    +0.060 C  
DOCKED: BRANCH  44  45
DOCKED: ATOM     45  C12 UNL     1      17.373  -4.732   1.510 +0.00 -0.00    -0.046 A  
DOCKED: ATOM     46  C13 UNL     1      17.765  -5.658   2.487 +0.00 +0.00    +0.004 A  
DOCKED: ATOM     47  C14 UNL     1      17.020  -5.815   3.656 +0.00 +0.00    +0.000 A  
DOCKED: ATOM     48  C15 UNL     1      15.882  -5.041   3.865 +0.00 +0.00    +0.000 A  
DOCKED: ATOM     49  C16 UNL     1      15.492  -4.104   2.911 +0.00 +0.00    +0.000 A  
DOCKED: ATOM     50  C17 UNL     1      16.238  -3.945   1.742 +0.00 +0.00    +0.004 A  
DOCKED: ENDBRANCH  44  45
DOCKED: ENDBRANCH   1  44
DOCKED: TORSDOF 19
DOCKED: TER
DOCKED: ENDMDL
________________________________________________________________________________


    FINAL DOCKED STATE:
    ________________________


Run:   15 / 20
Time taken for this run:   0.674s

DOCKED: MODEL        15
DOCKED: USER    Run = 15
DOCKED: USER
DOCKED: USER    Estimated Free Energy of Binding    =  +5.67 kcal/mol  [=(1)+(2)+(3)-(4)]
DOCKED: USER
DOCKED: USER    (1) Final Intermolecular Energy     =  +0.00 kcal/mol
DOCKED: USER        vdW + Hbond + desolv Energy     =  +0.00 kcal/mol
DOCKED: USER        Electrostatic Energy            =  +0.00 kcal/mol
DOCKED: USER        Moving Ligand-Fixed Receptor    =  +0.00 kcal/mol
DOCKED: USER        Moving Ligand-Moving Receptor   =  +0.00 kcal/mol
DOCKED: USER    (2) Final Total Internal Energy     = -12.50 kcal/mol
DOCKED: USER    (3) Torsional Free Energy           =  +5.67 kcal/mol
DOCKED: USER    (4) Unbound System's Energy         = -12.50 kcal/mol
DOCKED: USER
DOCKED: USER
DOCKED: REMARK  Name = ligands/ligand_8.pdb
DOCKED: REMARK  25 active torsions:
DOCKED: REMARK  status: ('A' for Active; 'I' for Inactive)
DOCKED: REMARK    1  A    between atoms: C1_1  and  C2_2
DOCKED: REMARK    2  A    between atoms: C2_2  and  C3_3
DOCKED: REMARK    3  A    between atoms: C3_3  and  C4_4
DOCKED: REMARK    4  A    between atoms: C3_3  and  C5_5
DOCKED: REMARK    5  A    between atoms: C5_5  and  O1_6
DOCKED: REMARK    6  A    between atoms: C5_5  and  C6_7
DOCKED: REMARK    7  A    between atoms: N1_9  and  C7_10
DOCKED: REMARK    8  A    between atoms: C7_10  and  C8_11
DOCKED: REMARK    9  A    between atoms: C7_10  and  C9_12
DOCKED: REMARK   10  A    between atoms: N2_14  and  C10_15
DOCKED: REMARK   11  A    between atoms: C10_15  and  C11_16
DOCKED: REMARK   12  A    between atoms: C10_15  and  C18_23
DOCKED: REMARK   13  A    between atoms: C11_16  and  C12_17
DOCKED: REMARK   14  A    between atoms: C18_23  and  O4_24
DOCKED: REMARK   15  A    between atoms: C18_23  and  C19_25
DOCKED: REMARK   16  A    between atoms: C19_25  and  C20_26
DOCKED: REMARK   17  A    between atoms: C20_26  and  C21_27
DOCKED: REMARK   18  A    between atoms: C20_26  and  C22_28
DOCKED: REMARK   19  A    between atoms: N3_30  and  C23_31
DOCKED: REMARK   20  A    between atoms: C23_31  and  C24_32
DOCKED: REMARK   21  A    between atoms: C23_31  and  C31_42
DOCKED: REMARK   22  A    between atoms: N4_34  and  C25_35
DOCKED: REMARK   23  A    between atoms: C25_35  and  C26_36
DOCKED: REMARK   24  A    between atoms: C31_42  and  C32_43
DOCKED: REMARK   25  A    between atoms: C31_42  and  C33_44
DOCKED: REMARK                            x       y       z     vdW  Elec       q    Type
DOCKED: REMARK                         _______ _______ _______ _____ _____    ______ ____
DOCKED: USER                              x       y       z     vdW  Elec       q    Type
DOCKED: USER                           _______ _______ _______ _____ _____    ______ ____
DOCKED: ROOT
DOCKED: ATOM      1  C10 UNL     1       7.192   1.185   2.372 +0.00 +0.00    +0.106 C  
DOCKED: ENDROOT
DOCKED: BRANCH   1   4
DOCKED: ATOM      2  C9  UNL     1       8.893   2.799   1.555 +0.00 +0.00    +0.233 C  
DOCKED: ATOM      3  O3  UNL     1       8.055   3.455   0.937 +0.00 -0.00    -0.274 OA 
DOCKED: ATOM      4  N2  UNL     1       8.566   1.695   2.315 +0.00 -0.00    -0.308 N  
DOCKED: ATOM      5  H17 UNL     1       9.278   1.247   2.879 +0.00 +0.00    +0.149 HD 
DOCKED: BRANCH   2   6
DOCKED: ATOM      6  C7  UNL     1      10.390   3.155   1.530 +0.00 +0.00    +0.156 C  
DOCKED: ATOM      7  C8  UNL     1      11.227   1.976   1.056 +0.00 +0.00    +0.038 C  
DOCKED: BRANCH   6  10
DOCKED: ATOM      8  C6  UNL     1      10.922   2.656   3.893 +0.00 +0.00    +0.242 C  
DOCKED: ATOM      9  O2  UNL     1      10.627   1.466   3.776 +0.00 -0.00    -0.273 OA 
DOCKED: ATOM     10  N1  UNL     1      10.766   3.562   2.876 +0.00 -0.00    -0.302 N  
DOCKED: ATOM     11  H12 UNL     1      11.060   4.529   2.989 +0.00 +0.00    +0.150 HD 
DOCKED: BRANCH   8  12
DOCKED: ATOM     12  C5  UNL     1      11.445   3.218   5.232 +0.00 +0.00    +0.203 C  
DOCKED: BRANCH  12  13
DOCKED: ATOM     13  C3  UNL     1      12.983   3.329   5.324 +0.00 +0.00    +0.023 C  
DOCKED: ATOM     14  C4  UNL     1      13.545   2.043   5.953 +0.00 +0.00    +0.010 C  
DOCKED: BRANCH  13  16
DOCKED: ATOM     15  C1  UNL     1      14.395   2.331   3.409 +0.00 +0.00    +0.004 C  
DOCKED: ATOM     16  C2  UNL     1      13.702   3.560   3.977 +0.00 +0.00    +0.003 C  
DOCKED: ENDBRANCH  13  16
DOCKED: ENDBRANCH  12  13
DOCKED: BRANCH  12  17
DOCKED: ATOM     17  O1  UNL     1      10.951   2.446   6.328 +0.00 -0.00    -0.382 OA 
DOCKED: ATOM     18  H11 UNL     1      10.328   1.798   5.941 +0.00 +0.00    +0.210 HD 
DOCKED: ENDBRANCH  12  17
DOCKED: ENDBRANCH   8  12
DOCKED: ENDBRANCH   6  10
DOCKED: ENDBRANCH   2   6
DOCKED: ENDBRANCH   1   4
DOCKED: BRANCH   1  19
DOCKED: ATOM     19  C18 UNL     1       6.972   0.148   3.525 +0.00 +0.00    +0.136 C  
DOCKED: BRANCH  19  20
DOCKED: ATOM     20  O4  UNL     1       8.182  -0.152   4.219 +0.00 -0.00    -0.390 OA 
DOCKED: ATOM     21  H27 UNL     1       8.689   0.681   4.288 +0.00 +0.00    +0.210 HD 
DOCKED: ENDBRANCH  19  20
DOCKED: BRANCH  19  22
DOCKED: ATOM     22  C19 UNL     1       5.875   0.467   4.566 +0.00 +0.00    +0.045 C  
DOCKED: BRANCH  22  23
DOCKED: ATOM     23  C20 UNL     1       6.047   1.773   5.364 +0.00 +0.00    +0.074 C  
DOCKED: ATOM     24  C21 UNL     1       5.003   1.836   6.486 +0.00 +0.00    +0.017 C  
DOCKED: BRANCH  23  25
DOCKED: ATOM     25  C22 UNL     1       7.443   1.953   5.974 +0.00 +0.00    +0.217 C  
DOCKED: ATOM     26  O5  UNL     1       8.418   2.299   5.309 +0.00 -0.00    -0.276 OA 
DOCKED: ATOM     27  N3  UNL     1       7.557   1.609   7.300 +0.00 -0.00    -0.304 N  
DOCKED: ATOM     28  H34 UNL     1       6.752   1.139   7.722 +0.00 +0.00    +0.149 HD 
DOCKED: BRANCH  27  29
DOCKED: ATOM     29  C23 UNL     1       8.871   1.353   7.880 +0.00 +0.00    +0.161 C  
DOCKED: BRANCH  29  30
DOCKED: ATOM     30  C24 UNL     1       9.277  -0.081   7.466 +0.00 +0.00    +0.234 C  
DOCKED: ATOM     31  O6  UNL     1       9.109  -1.053   8.201 +0.00 -0.00    -0.274 OA 
DOCKED: ATOM     32  N4  UNL     1       9.852  -0.174   6.215 +0.00 -0.00    -0.310 N  
DOCKED: ATOM     33  H36 UNL     1       9.790   0.626   5.598 +0.00 +0.00    +0.149 HD 
DOCKED: BRANCH  32  34
DOCKED: ATOM     34  C25 UNL     1      10.108  -1.456   5.597 +0.00 +0.00    +0.139 C  
DOCKED: BRANCH  34  35
DOCKED: ATOM     35  C26 UNL     1      10.980  -1.338   4.371 +0.00 -0.00    -0.027 A  
DOCKED: ATOM     36  C27 UNL     1      10.442  -1.597   3.105 +0.00 +0.00    +0.025 A  
DOCKED: ATOM     37  C28 UNL     1      11.252  -1.450   1.989 +0.00 +0.00    +0.111 A  
DOCKED: ATOM     38  N5  UNL     1      12.544  -1.062   2.045 +0.00 -0.00    -0.263 NA 
DOCKED: ATOM     39  C29 UNL     1      13.044  -0.798   3.270 +0.00 +0.00    +0.111 A  
DOCKED: ATOM     40  C30 UNL     1      12.311  -0.912   4.442 +0.00 +0.00    +0.025 A  
DOCKED: ENDBRANCH  34  35
DOCKED: ENDBRANCH  32  34
DOCKED: ENDBRANCH  29  30
DOCKED: BRANCH  29  41
DOCKED: ATOM     41  C31 UNL     1       8.888   1.577   9.407 +0.00 +0.00    +0.012 C  
DOCKED: ATOM     42  C32 UNL     1      10.117   2.339   9.914 +0.00 +0.00    +0.009 C  
DOCKED: ATOM     43  C33 UNL     1       7.614   2.281   9.884 +0.00 +0.00    +0.009 C  
DOCKED: ENDBRANCH  29  41
DOCKED: ENDBRANCH  27  29
DOCKED: ENDBRANCH  23  25
DOCKED: ENDBRANCH  22  23
DOCKED: ENDBRANCH  19  22
DOCKED: ENDBRANCH   1  19
DOCKED: BRANCH   1  44
DOCKED: ATOM     44  C11 UNL     1       6.710   0.762   0.960 +0.00 +0.00    +0.060 C  
DOCKED: BRANCH  44  45
DOCKED: ATOM     45  C12 UNL     1       7.681  -0.119   0.203 +0.00 -0.00    -0.046 A  
DOCKED: ATOM     46  C13 UNL     1       7.814  -1.478   0.522 +0.00 +0.00    +0.004 A  
DOCKED: ATOM     47  C14 UNL     1       8.726  -2.282  -0.164 +0.00 +0.00    +0.000 A  
DOCKED: ATOM     48  C15 UNL     1       9.505  -1.739  -1.182 +0.00 +0.00    +0.000 A  
DOCKED: ATOM     49  C16 UNL     1       9.368  -0.394  -1.521 +0.00 +0.00    +0.000 A  
DOCKED: ATOM     50  C17 UNL     1       8.456   0.410  -0.837 +0.00 +0.00    +0.004 A  
DOCKED: ENDBRANCH  44  45
DOCKED: ENDBRANCH   1  44
DOCKED: TORSDOF 19
DOCKED: TER
DOCKED: ENDMDL
________________________________________________________________________________


    FINAL DOCKED STATE:
    ________________________


Run:   16 / 20
Time taken for this run:   0.674s

DOCKED: MODEL        16
DOCKED: USER    Run = 16
DOCKED: USER
DOCKED: USER    Estimated Free Energy of Binding    =  +5.67 kcal/mol  [=(1)+(2)+(3)-(4)]
DOCKED: USER
DOCKED: USER    (1) Final Intermolecular Energy     =  +0.00 kcal/mol
DOCKED: USER        vdW + Hbond + desolv Energy     =  +0.00 kcal/mol
DOCKED: USER        Electrostatic Energy            =  +0.00 kcal/mol
DOCKED: USER        Moving Ligand-Fixed Receptor    =  +0.00 kcal/mol
DOCKED: USER        Moving Ligand-Moving Receptor   =  +0.00 kcal/mol
DOCKED: USER    (2) Final Total Internal Energy     = -12.48 kcal/mol
DOCKED: USER    (3) Torsional Free Energy           =  +5.67 kcal/mol
DOCKED: USER    (4) Unbound System's Energy         = -12.48 kcal/mol
DOCKED: USER
DOCKED: USER
DOCKED: REMARK  Name = ligands/ligand_8.pdb
DOCKED: REMARK  25 active torsions:
DOCKED: REMARK  status: ('A' for Active; 'I' for Inactive)
DOCKED: REMARK    1  A    between atoms: C1_1  and  C2_2
DOCKED: REMARK    2  A    between atoms: C2_2  and  C3_3
DOCKED: REMARK    3  A    between atoms: C3_3  and  C4_4
DOCKED: REMARK    4  A    between atoms: C3_3  and  C5_5
DOCKED: REMARK    5  A    between atoms: C5_5  and  O1_6
DOCKED: REMARK    6  A    between atoms: C5_5  and  C6_7
DOCKED: REMARK    7  A    between atoms: N1_9  and  C7_10
DOCKED: REMARK    8  A    between atoms: C7_10  and  C8_11
DOCKED: REMARK    9  A    between atoms: C7_10  and  C9_12
DOCKED: REMARK   10  A    between atoms: N2_14  and  C10_15
DOCKED: REMARK   11  A    between atoms: C10_15  and  C11_16
DOCKED: REMARK   12  A    between atoms: C10_15  and  C18_23
DOCKED: REMARK   13  A    between atoms: C11_16  and  C12_17
DOCKED: REMARK   14  A    between atoms: C18_23  and  O4_24
DOCKED: REMARK   15  A    between atoms: C18_23  and  C19_25
DOCKED: REMARK   16  A    between atoms: C19_25  and  C20_26
DOCKED: REMARK   17  A    between atoms: C20_26  and  C21_27
DOCKED: REMARK   18  A    between atoms: C20_26  and  C22_28
DOCKED: REMARK   19  A    between atoms: N3_30  and  C23_31
DOCKED: REMARK   20  A    between atoms: C23_31  and  C24_32
DOCKED: REMARK   21  A    between atoms: C23_31  and  C31_42
DOCKED: REMARK   22  A    between atoms: N4_34  and  C25_35
DOCKED: REMARK   23  A    between atoms: C25_35  and  C26_36
DOCKED: REMARK   24  A    between atoms: C31_42  and  C32_43
DOCKED: REMARK   25  A    between atoms: C31_42  and  C33_44
DOCKED: REMARK                            x       y       z     vdW  Elec       q    Type
DOCKED: REMARK                         _______ _______ _______ _____ _____    ______ ____
DOCKED: USER                              x       y       z     vdW  Elec       q    Type
DOCKED: USER                           _______ _______ _______ _____ _____    ______ ____
DOCKED: ROOT
DOCKED: ATOM      1  C10 UNL     1       7.154  -7.170  -1.050 +0.00 +0.00    +0.106 C  
DOCKED: ENDROOT
DOCKED: BRANCH   1   4
DOCKED: ATOM      2  C9  UNL     1       8.079  -4.979  -0.337 +0.00 +0.00    +0.233 C  
DOCKED: ATOM      3  O3  UNL     1       9.006  -5.507   0.276 +0.00 -0.00    -0.274 OA 
DOCKED: ATOM      4  N2  UNL     1       7.143  -5.704  -1.046 +0.00 -0.00    -0.308 N  
DOCKED: ATOM      5  H17 UNL     1       6.456  -5.218  -1.610 +0.00 +0.00    +0.149 HD 
DOCKED: BRANCH   2   6
DOCKED: ATOM      6  C7  UNL     1       7.880  -3.453  -0.362 +0.00 +0.00    +0.156 C  
DOCKED: ATOM      7  C8  UNL     1       7.414  -2.938   0.991 +0.00 +0.00    +0.038 C  
DOCKED: BRANCH   6  10
DOCKED: ATOM      8  C6  UNL     1       7.013  -3.672  -2.668 +0.00 +0.00    +0.242 C  
DOCKED: ATOM      9  O2  UNL     1       7.999  -4.307  -3.048 +0.00 -0.00    -0.273 OA 
DOCKED: ATOM     10  N1  UNL     1       6.906  -3.156  -1.404 +0.00 -0.00    -0.302 N  
DOCKED: ATOM     11  H12 UNL     1       6.062  -2.674  -1.106 +0.00 +0.00    +0.150 HD 
DOCKED: BRANCH   8  12
DOCKED: ATOM     12  C5  UNL     1       5.843  -3.372  -3.628 +0.00 +0.00    +0.203 C  
DOCKED: BRANCH  12  13
DOCKED: ATOM     13  C3  UNL     1       4.508  -3.035  -2.926 +0.00 +0.00    +0.023 C  
DOCKED: ATOM     14  C4  UNL     1       3.401  -2.902  -3.985 +0.00 +0.00    +0.010 C  
DOCKED: BRANCH  13  16
DOCKED: ATOM     15  C1  UNL     1       3.345  -5.288  -2.449 +0.00 +0.00    +0.004 C  
DOCKED: ATOM     16  C2  UNL     1       4.047  -4.067  -1.874 +0.00 +0.00    +0.003 C  
DOCKED: ENDBRANCH  13  16
DOCKED: ENDBRANCH  12  13
DOCKED: BRANCH  12  17
DOCKED: ATOM     17  O1  UNL     1       5.648  -4.456  -4.538 +0.00 -0.00    -0.382 OA 
DOCKED: ATOM     18  H11 UNL     1       6.426  -5.040  -4.430 +0.00 +0.00    +0.210 HD 
DOCKED: ENDBRANCH  12  17
DOCKED: ENDBRANCH   8  12
DOCKED: ENDBRANCH   6  10
DOCKED: ENDBRANCH   2   6
DOCKED: ENDBRANCH   1   4
DOCKED: BRANCH   1  19
DOCKED: ATOM     19  C18 UNL     1       6.618  -7.782  -2.388 +0.00 +0.00    +0.136 C  
DOCKED: BRANCH  19  20
DOCKED: ATOM     20  O4  UNL     1       6.032  -6.796  -3.237 +0.00 -0.00    -0.390 OA 
DOCKED: ATOM     21  H27 UNL     1       6.660  -6.048  -3.285 +0.00 +0.00    +0.210 HD 
DOCKED: ENDBRANCH  19  20
DOCKED: BRANCH  19  22
DOCKED: ATOM     22  C19 UNL     1       7.603  -8.628  -3.226 +0.00 +0.00    +0.045 C  
DOCKED: BRANCH  22  23
DOCKED: ATOM     23  C20 UNL     1       8.658  -7.850  -4.035 +0.00 +0.00    +0.074 C  
DOCKED: ATOM     24  C21 UNL     1       9.728  -8.817  -4.557 +0.00 +0.00    +0.017 C  
DOCKED: BRANCH  23  25
DOCKED: ATOM     25  C22 UNL     1       8.081  -7.062  -5.218 +0.00 +0.00    +0.217 C  
DOCKED: ATOM     26  O5  UNL     1       7.763  -5.877  -5.134 +0.00 -0.00    -0.276 OA 
DOCKED: ATOM     27  N3  UNL     1       7.851  -7.794  -6.359 +0.00 -0.00    -0.304 N  
DOCKED: ATOM     28  H34 UNL     1       7.951  -8.808  -6.281 +0.00 +0.00    +0.149 HD 
DOCKED: BRANCH  27  29
DOCKED: ATOM     29  C23 UNL     1       6.957  -7.279  -7.391 +0.00 +0.00    +0.161 C  
DOCKED: BRANCH  29  30
DOCKED: ATOM     30  C24 UNL     1       5.519  -7.671  -6.981 +0.00 +0.00    +0.234 C  
DOCKED: ATOM     31  O6  UNL     1       4.866  -8.519  -7.589 +0.00 -0.00    -0.274 OA 
DOCKED: ATOM     32  N4  UNL     1       5.028  -6.984  -5.890 +0.00 -0.00    -0.310 N  
DOCKED: ATOM     33  H36 UNL     1       5.676  -6.443  -5.332 +0.00 +0.00    +0.149 HD 
DOCKED: BRANCH  32  34
DOCKED: ATOM     34  C25 UNL     1       3.783  -7.364  -5.258 +0.00 +0.00    +0.139 C  
DOCKED: BRANCH  34  35
DOCKED: ATOM     35  C26 UNL     1       3.949  -8.540  -4.327 +0.00 -0.00    -0.027 A  
DOCKED: ATOM     36  C27 UNL     1       3.261  -8.567  -3.108 +0.00 +0.00    +0.025 A  
DOCKED: ATOM     37  C28 UNL     1       3.402  -9.673  -2.284 +0.00 +0.00    +0.111 A  
DOCKED: ATOM     38  N5  UNL     1       4.166 -10.744  -2.587 +0.00 -0.00    -0.263 NA 
DOCKED: ATOM     39  C29 UNL     1       4.808 -10.711  -3.773 +0.00 +0.00    +0.111 A  
DOCKED: ATOM     40  C30 UNL     1       4.726  -9.654  -4.666 +0.00 +0.00    +0.025 A  
DOCKED: ENDBRANCH  34  35
DOCKED: ENDBRANCH  32  34
DOCKED: ENDBRANCH  29  30
DOCKED: BRANCH  29  41
DOCKED: ATOM     41  C31 UNL     1       7.348  -7.773  -8.801 +0.00 +0.00    +0.012 C  
DOCKED: ATOM     42  C32 UNL     1       8.344  -6.866  -9.528 +0.00 +0.00    +0.009 C  
DOCKED: ATOM     43  C33 UNL     1       7.891  -9.205  -8.761 +0.00 +0.00    +0.009 C  
DOCKED: ENDBRANCH  29  41
DOCKED: ENDBRANCH  27  29
DOCKED: ENDBRANCH  23  25
DOCKED: ENDBRANCH  22  23
DOCKED: ENDBRANCH  19  22
DOCKED: ENDBRANCH   1  19
DOCKED: BRANCH   1  44
DOCKED: ATOM     44  C11 UNL     1       6.533  -7.722   0.260 +0.00 +0.00    +0.060 C  
DOCKED: BRANCH  44  45
DOCKED: ATOM     45  C12 UNL     1       5.223  -7.075   0.655 +0.00 -0.00    -0.046 A  
DOCKED: ATOM     46  C13 UNL     1       3.999  -7.635   0.263 +0.00 +0.00    +0.004 A  
DOCKED: ATOM     47  C14 UNL     1       2.794  -7.024   0.611 +0.00 +0.00    +0.000 A  
DOCKED: ATOM     48  C15 UNL     1       2.800  -5.853   1.365 +0.00 +0.00    +0.000 A  
DOCKED: ATOM     49  C16 UNL     1       4.009  -5.296   1.776 +0.00 +0.00    +0.000 A  
DOCKED: ATOM     50  C17 UNL     1       5.215  -5.908   1.430 +0.00 +0.00    +0.004 A  
DOCKED: ENDBRANCH  44  45
DOCKED: ENDBRANCH   1  44
DOCKED: TORSDOF 19
DOCKED: TER
DOCKED: ENDMDL
________________________________________________________________________________


    FINAL DOCKED STATE:
    ________________________


Run:   17 / 20
Time taken for this run:   0.674s

DOCKED: MODEL        17
DOCKED: USER    Run = 17
DOCKED: USER
DOCKED: USER    Estimated Free Energy of Binding    =  +5.67 kcal/mol  [=(1)+(2)+(3)-(4)]
DOCKED: USER
DOCKED: USER    (1) Final Intermolecular Energy     =  +0.00 kcal/mol
DOCKED: USER        vdW + Hbond + desolv Energy     =  +0.00 kcal/mol
DOCKED: USER        Electrostatic Energy            =  +0.00 kcal/mol
DOCKED: USER        Moving Ligand-Fixed Receptor    =  +0.00 kcal/mol
DOCKED: USER        Moving Ligand-Moving Receptor   =  +0.00 kcal/mol
DOCKED: USER    (2) Final Total Internal Energy     = -12.51 kcal/mol
DOCKED: USER    (3) Torsional Free Energy           =  +5.67 kcal/mol
DOCKED: USER    (4) Unbound System's Energy         = -12.51 kcal/mol
DOCKED: USER
DOCKED: USER
DOCKED: REMARK  Name = ligands/ligand_8.pdb
DOCKED: REMARK  25 active torsions:
DOCKED: REMARK  status: ('A' for Active; 'I' for Inactive)
DOCKED: REMARK    1  A    between atoms: C1_1  and  C2_2
DOCKED: REMARK    2  A    between atoms: C2_2  and  C3_3
DOCKED: REMARK    3  A    between atoms: C3_3  and  C4_4
DOCKED: REMARK    4  A    between atoms: C3_3  and  C5_5
DOCKED: REMARK    5  A    between atoms: C5_5  and  O1_6
DOCKED: REMARK    6  A    between atoms: C5_5  and  C6_7
DOCKED: REMARK    7  A    between atoms: N1_9  and  C7_10
DOCKED: REMARK    8  A    between atoms: C7_10  and  C8_11
DOCKED: REMARK    9  A    between atoms: C7_10  and  C9_12
DOCKED: REMARK   10  A    between atoms: N2_14  and  C10_15
DOCKED: REMARK   11  A    between atoms: C10_15  and  C11_16
DOCKED: REMARK   12  A    between atoms: C10_15  and  C18_23
DOCKED: REMARK   13  A    between atoms: C11_16  and  C12_17
DOCKED: REMARK   14  A    between atoms: C18_23  and  O4_24
DOCKED: REMARK   15  A    between atoms: C18_23  and  C19_25
DOCKED: REMARK   16  A    between atoms: C19_25  and  C20_26
DOCKED: REMARK   17  A    between atoms: C20_26  and  C21_27
DOCKED: REMARK   18  A    between atoms: C20_26  and  C22_28
DOCKED: REMARK   19  A    between atoms: N3_30  and  C23_31
DOCKED: REMARK   20  A    between atoms: C23_31  and  C24_32
DOCKED: REMARK   21  A    between atoms: C23_31  and  C31_42
DOCKED: REMARK   22  A    between atoms: N4_34  and  C25_35
DOCKED: REMARK   23  A    between atoms: C25_35  and  C26_36
DOCKED: REMARK   24  A    between atoms: C31_42  and  C32_43
DOCKED: REMARK   25  A    between atoms: C31_42  and  C33_44
DOCKED: REMARK                            x       y       z     vdW  Elec       q    Type
DOCKED: REMARK                         _______ _______ _______ _____ _____    ______ ____
DOCKED: USER                              x       y       z     vdW  Elec       q    Type
DOCKED: USER                           _______ _______ _______ _____ _____    ______ ____
DOCKED: ROOT
DOCKED: ATOM      1  C10 UNL     1      10.006  -4.406   3.662 +0.00 +0.00    +0.106 C  
DOCKED: ENDROOT
DOCKED: BRANCH   1   4
DOCKED: ATOM      2  C9  UNL     1      11.802  -2.720   3.975 +0.00 +0.00    +0.233 C  
DOCKED: ATOM      3  O3  UNL     1      12.494  -3.497   4.632 +0.00 -0.00    -0.274 OA 
DOCKED: ATOM      4  N2  UNL     1      10.588  -3.081   3.428 +0.00 -0.00    -0.308 N  
DOCKED: ATOM      5  H17 UNL     1      10.102  -2.434   2.817 +0.00 +0.00    +0.149 HD 
DOCKED: BRANCH   2   6
DOCKED: ATOM      6  C7  UNL     1      12.233  -1.267   3.709 +0.00 +0.00    +0.156 C  
DOCKED: ATOM      7  C8  UNL     1      11.157  -0.286   4.147 +0.00 +0.00    +0.038 C  
DOCKED: BRANCH   6  10
DOCKED: ATOM      8  C6  UNL     1      11.506  -1.111   1.350 +0.00 +0.00    +0.242 C  
DOCKED: ATOM      9  O2  UNL     1      10.324  -1.313   1.633 +0.00 -0.00    -0.273 OA 
DOCKED: ATOM     10  N1  UNL     1      12.508  -1.146   2.284 +0.00 -0.00    -0.302 N  
DOCKED: ATOM     11  H12 UNL     1      13.468  -0.931   2.028 +0.00 +0.00    +0.150 HD 
DOCKED: BRANCH   8  12
DOCKED: ATOM     12  C5  UNL     1      11.942  -0.853  -0.108 +0.00 +0.00    +0.203 C  
DOCKED: BRANCH  12  13
DOCKED: ATOM     13  C3  UNL     1      12.109   0.639  -0.473 +0.00 +0.00    +0.023 C  
DOCKED: ATOM     14  C4  UNL     1      10.785   1.168  -1.048 +0.00 +0.00    +0.010 C  
DOCKED: BRANCH  13  16
DOCKED: ATOM     15  C1  UNL     1      11.410   2.428   1.249 +0.00 +0.00    +0.004 C  
DOCKED: ATOM     16  C2  UNL     1      12.526   1.554   0.698 +0.00 +0.00    +0.003 C  
DOCKED: ENDBRANCH  13  16
DOCKED: ENDBRANCH  12  13
DOCKED: BRANCH  12  17
DOCKED: ATOM     17  O1  UNL     1      11.035  -1.474  -1.021 +0.00 -0.00    -0.382 OA 
DOCKED: ATOM     18  H11 UNL     1      10.405  -1.981  -0.470 +0.00 +0.00    +0.210 HD 
DOCKED: ENDBRANCH  12  17
DOCKED: ENDBRANCH   8  12
DOCKED: ENDBRANCH   6  10
DOCKED: ENDBRANCH   2   6
DOCKED: ENDBRANCH   1   4
DOCKED: BRANCH   1  19
DOCKED: ATOM     19  C18 UNL     1       8.839  -4.745   2.675 +0.00 +0.00    +0.136 C  
DOCKED: BRANCH  19  20
DOCKED: ATOM     20  O4  UNL     1       8.541  -3.661   1.798 +0.00 -0.00    -0.390 OA 
DOCKED: ATOM     21  H27 UNL     1       9.393  -3.251   1.547 +0.00 +0.00    +0.210 HD 
DOCKED: ENDBRANCH  19  20
DOCKED: BRANCH  19  22
DOCKED: ATOM     22  C19 UNL     1       8.974  -6.034   1.833 +0.00 +0.00    +0.045 C  
DOCKED: BRANCH  22  23
DOCKED: ATOM     23  C20 UNL     1      10.190  -6.113   0.891 +0.00 +0.00    +0.074 C  
DOCKED: ATOM     24  C21 UNL     1      10.057  -7.335  -0.027 +0.00 +0.00    +0.017 C  
DOCKED: BRANCH  23  25
DOCKED: ATOM     25  C22 UNL     1      10.392  -4.862   0.027 +0.00 +0.00    +0.217 C  
DOCKED: ATOM     26  O5  UNL     1      10.857  -3.814   0.473 +0.00 -0.00    -0.276 OA 
DOCKED: ATOM     27  N3  UNL     1       9.929  -4.955  -1.265 +0.00 -0.00    -0.304 N  
DOCKED: ATOM     28  H34 UNL     1       9.375  -5.783  -1.493 +0.00 +0.00    +0.149 HD 
DOCKED: BRANCH  27  29
DOCKED: ATOM     29  C23 UNL     1       9.695  -3.747  -2.048 +0.00 +0.00    +0.161 C  
DOCKED: BRANCH  29  30
DOCKED: ATOM     30  C24 UNL     1       8.335  -3.168  -1.594 +0.00 +0.00    +0.234 C  
DOCKED: ATOM     31  O6  UNL     1       7.288  -3.387  -2.201 +0.00 -0.00    -0.274 OA 
DOCKED: ATOM     32  N4  UNL     1       8.398  -2.379  -0.464 +0.00 -0.00    -0.310 N  
DOCKED: ATOM     33  H36 UNL     1       9.249  -2.393   0.085 +0.00 +0.00    +0.149 HD 
DOCKED: BRANCH  32  34
DOCKED: ATOM     34  C25 UNL     1       7.199  -1.924   0.206 +0.00 +0.00    +0.139 C  
DOCKED: BRANCH  34  35
DOCKED: ATOM     35  C26 UNL     1       7.489  -0.873   1.249 +0.00 -0.00    -0.027 A  
DOCKED: ATOM     36  C27 UNL     1       7.333  -1.176   2.607 +0.00 +0.00    +0.025 A  
DOCKED: ATOM     37  C28 UNL     1       7.636  -0.206   3.550 +0.00 +0.00    +0.111 A  
DOCKED: ATOM     38  N5  UNL     1       8.084   1.029   3.240 +0.00 -0.00    -0.263 NA 
DOCKED: ATOM     39  C29 UNL     1       8.246   1.301   1.928 +0.00 +0.00    +0.111 A  
DOCKED: ATOM     40  C30 UNL     1       7.974   0.396   0.914 +0.00 +0.00    +0.025 A  
DOCKED: ENDBRANCH  34  35
DOCKED: ENDBRANCH  32  34
DOCKED: ENDBRANCH  29  30
DOCKED: BRANCH  29  41
DOCKED: ATOM     41  C31 UNL     1       9.771  -4.013  -3.567 +0.00 +0.00    +0.012 C  
DOCKED: ATOM     42  C32 UNL     1      10.583  -2.973  -4.344 +0.00 +0.00    +0.009 C  
DOCKED: ATOM     43  C33 UNL     1      10.311  -5.415  -3.863 +0.00 +0.00    +0.009 C  
DOCKED: ENDBRANCH  29  41
DOCKED: ENDBRANCH  27  29
DOCKED: ENDBRANCH  23  25
DOCKED: ENDBRANCH  22  23
DOCKED: ENDBRANCH  19  22
DOCKED: ENDBRANCH   1  19
DOCKED: BRANCH   1  44
DOCKED: ATOM     44  C11 UNL     1       9.716  -4.614   5.172 +0.00 +0.00    +0.060 C  
DOCKED: BRANCH  44  45
DOCKED: ATOM     45  C12 UNL     1       8.998  -3.460   5.838 +0.00 -0.00    -0.046 A  
DOCKED: ATOM     46  C13 UNL     1       7.620  -3.270   5.653 +0.00 +0.00    +0.004 A  
DOCKED: ATOM     47  C14 UNL     1       6.966  -2.193   6.252 +0.00 +0.00    +0.000 A  
DOCKED: ATOM     48  C15 UNL     1       7.678  -1.301   7.049 +0.00 +0.00    +0.000 A  
DOCKED: ATOM     49  C16 UNL     1       9.043  -1.488   7.255 +0.00 +0.00    +0.000 A  
DOCKED: ATOM     50  C17 UNL     1       9.698  -2.567   6.659 +0.00 +0.00    +0.004 A  
DOCKED: ENDBRANCH  44  45
DOCKED: ENDBRANCH   1  44
DOCKED: TORSDOF 19
DOCKED: TER
DOCKED: ENDMDL
________________________________________________________________________________


    FINAL DOCKED STATE:
    ________________________


Run:   18 / 20
Time taken for this run:   0.674s

DOCKED: MODEL        18
DOCKED: USER    Run = 18
DOCKED: USER
DOCKED: USER    Estimated Free Energy of Binding    =  +5.67 kcal/mol  [=(1)+(2)+(3)-(4)]
DOCKED: USER
DOCKED: USER    (1) Final Intermolecular Energy     =  +0.00 kcal/mol
DOCKED: USER        vdW + Hbond + desolv Energy     =  +0.00 kcal/mol
DOCKED: USER        Electrostatic Energy            =  +0.00 kcal/mol
DOCKED: USER        Moving Ligand-Fixed Receptor    =  +0.00 kcal/mol
DOCKED: USER        Moving Ligand-Moving Receptor   =  +0.00 kcal/mol
DOCKED: USER    (2) Final Total Internal Energy     = -12.51 kcal/mol
DOCKED: USER    (3) Torsional Free Energy           =  +5.67 kcal/mol
DOCKED: USER    (4) Unbound System's Energy         = -12.51 kcal/mol
DOCKED: USER
DOCKED: USER
DOCKED: REMARK  Name = ligands/ligand_8.pdb
DOCKED: REMARK  25 active torsions:
DOCKED: REMARK  status: ('A' for Active; 'I' for Inactive)
DOCKED: REMARK    1  A    between atoms: C1_1  and  C2_2
DOCKED: REMARK    2  A    between atoms: C2_2  and  C3_3
DOCKED: REMARK    3  A    between atoms: C3_3  and  C4_4
DOCKED: REMARK    4  A    between atoms: C3_3  and  C5_5
DOCKED: REMARK    5  A    between atoms: C5_5  and  O1_6
DOCKED: REMARK    6  A    between atoms: C5_5  and  C6_7
DOCKED: REMARK    7  A    between atoms: N1_9  and  C7_10
DOCKED: REMARK    8  A    between atoms: C7_10  and  C8_11
DOCKED: REMARK    9  A    between atoms: C7_10  and  C9_12
DOCKED: REMARK   10  A    between atoms: N2_14  and  C10_15
DOCKED: REMARK   11  A    between atoms: C10_15  and  C11_16
DOCKED: REMARK   12  A    between atoms: C10_15  and  C18_23
DOCKED: REMARK   13  A    between atoms: C11_16  and  C12_17
DOCKED: REMARK   14  A    between atoms: C18_23  and  O4_24
DOCKED: REMARK   15  A    between atoms: C18_23  and  C19_25
DOCKED: REMARK   16  A    between atoms: C19_25  and  C20_26
DOCKED: REMARK   17  A    between atoms: C20_26  and  C21_27
DOCKED: REMARK   18  A    between atoms: C20_26  and  C22_28
DOCKED: REMARK   19  A    between atoms: N3_30  and  C23_31
DOCKED: REMARK   20  A    between atoms: C23_31  and  C24_32
DOCKED: REMARK   21  A    between atoms: C23_31  and  C31_42
DOCKED: REMARK   22  A    between atoms: N4_34  and  C25_35
DOCKED: REMARK   23  A    between atoms: C25_35  and  C26_36
DOCKED: REMARK   24  A    between atoms: C31_42  and  C32_43
DOCKED: REMARK   25  A    between atoms: C31_42  and  C33_44
DOCKED: REMARK                            x       y       z     vdW  Elec       q    Type
DOCKED: REMARK                         _______ _______ _______ _____ _____    ______ ____
DOCKED: USER                              x       y       z     vdW  Elec       q    Type
DOCKED: USER                           _______ _______ _______ _____ _____    ______ ____
DOCKED: ROOT
DOCKED: ATOM      1  C10 UNL     1      16.839  -1.383  -0.184 +0.00 +0.00    +0.106 C  
DOCKED: ENDROOT
DOCKED: BRANCH   1   4
DOCKED: ATOM      2  C9  UNL     1      16.235   1.015  -0.413 +0.00 +0.00    +0.233 C  
DOCKED: ATOM      3  O3  UNL     1      17.413   1.369  -0.416 +0.00 -0.00    -0.274 OA 
DOCKED: ATOM      4  N2  UNL     1      15.853  -0.309  -0.340 +0.00 -0.00    -0.308 N  
DOCKED: ATOM      5  H17 UNL     1      14.874  -0.553  -0.436 +0.00 +0.00    +0.149 HD 
DOCKED: BRANCH   2   6
DOCKED: ATOM      6  C7  UNL     1      15.078   2.026  -0.488 +0.00 +0.00    +0.156 C  
DOCKED: ATOM      7  C8  UNL     1      14.949   2.810   0.809 +0.00 +0.00    +0.038 C  
DOCKED: BRANCH   6  10
DOCKED: ATOM      8  C6  UNL     1      13.792   0.368  -1.796 +0.00 +0.00    +0.242 C  
DOCKED: ATOM      9  O2  UNL     1      14.699   0.214  -2.616 +0.00 -0.00    -0.273 OA 
DOCKED: ATOM     10  N1  UNL     1      13.861   1.280  -0.776 +0.00 -0.00    -0.302 N  
DOCKED: ATOM     11  H12 UNL     1      13.115   1.352  -0.089 +0.00 +0.00    +0.150 HD 
DOCKED: BRANCH   8  12
DOCKED: ATOM     12  C5  UNL     1      12.480  -0.437  -1.903 +0.00 +0.00    +0.203 C  
DOCKED: BRANCH  12  13
DOCKED: ATOM     13  C3  UNL     1      11.680  -0.539  -0.585 +0.00 +0.00    +0.023 C  
DOCKED: ATOM     14  C4  UNL     1      10.498  -1.501  -0.785 +0.00 +0.00    +0.010 C  
DOCKED: BRANCH  13  16
DOCKED: ATOM     15  C1  UNL     1      12.653  -2.532   0.733 +0.00 +0.00    +0.004 C  
DOCKED: ATOM     16  C2  UNL     1      12.495  -1.023   0.635 +0.00 +0.00    +0.003 C  
DOCKED: ENDBRANCH  13  16
DOCKED: ENDBRANCH  12  13
DOCKED: BRANCH  12  17
DOCKED: ATOM     17  O1  UNL     1      12.733  -1.747  -2.415 +0.00 -0.00    -0.382 OA 
DOCKED: ATOM     18  H11 UNL     1      13.666  -1.744  -2.710 +0.00 +0.00    +0.210 HD 
DOCKED: ENDBRANCH  12  17
DOCKED: ENDBRANCH   8  12
DOCKED: ENDBRANCH   6  10
DOCKED: ENDBRANCH   2   6
DOCKED: ENDBRANCH   1   4
DOCKED: BRANCH   1  19
DOCKED: ATOM     19  C18 UNL     1      16.399  -2.722  -0.866 +0.00 +0.00    +0.136 C  
DOCKED: BRANCH  19  20
DOCKED: ATOM     20  O4  UNL     1      15.045  -2.680  -1.314 +0.00 -0.00    -0.390 OA 
DOCKED: ATOM     21  H27 UNL     1      14.923  -1.831  -1.782 +0.00 +0.00    +0.210 HD 
DOCKED: ENDBRANCH  19  20
DOCKED: BRANCH  19  22
DOCKED: ATOM     22  C19 UNL     1      17.281  -3.254  -2.018 +0.00 +0.00    +0.045 C  
DOCKED: BRANCH  22  23
DOCKED: ATOM     23  C20 UNL     1      17.145  -2.535  -3.373 +0.00 +0.00    +0.074 C  
DOCKED: ATOM     24  C21 UNL     1      18.272  -2.981  -4.313 +0.00 +0.00    +0.017 C  
DOCKED: BRANCH  23  25
DOCKED: ATOM     25  C22 UNL     1      15.797  -2.766  -4.070 +0.00 +0.00    +0.217 C  
DOCKED: ATOM     26  O5  UNL     1      14.839  -2.009  -3.929 +0.00 -0.00    -0.276 OA 
DOCKED: ATOM     27  N3  UNL     1      15.698  -3.933  -4.791 +0.00 -0.00    -0.304 N  
DOCKED: ATOM     28  H34 UNL     1      16.465  -4.601  -4.690 +0.00 +0.00    +0.149 HD 
DOCKED: BRANCH  27  29
DOCKED: ATOM     29  C23 UNL     1      14.387  -4.458  -5.156 +0.00 +0.00    +0.161 C  
DOCKED: BRANCH  29  30
DOCKED: ATOM     30  C24 UNL     1      13.877  -5.282  -3.951 +0.00 +0.00    +0.234 C  
DOCKED: ATOM     31  O6  UNL     1      13.787  -6.509  -3.980 +0.00 -0.00    -0.274 OA 
DOCKED: ATOM     32  N4  UNL     1      13.522  -4.527  -2.852 +0.00 -0.00    -0.310 N  
DOCKED: ATOM     33  H36 UNL     1      13.794  -3.552  -2.831 +0.00 +0.00    +0.149 HD 
DOCKED: BRANCH  32  34
DOCKED: ATOM     34  C25 UNL     1      13.214  -5.145  -1.580 +0.00 +0.00    +0.139 C  
DOCKED: BRANCH  34  35
DOCKED: ATOM     35  C26 UNL     1      14.456  -5.498  -0.799 +0.00 -0.00    -0.027 A  
DOCKED: ATOM     36  C27 UNL     1      14.498  -5.274   0.583 +0.00 +0.00    +0.025 A  
DOCKED: ATOM     37  C28 UNL     1      15.636  -5.636   1.286 +0.00 +0.00    +0.111 A  
DOCKED: ATOM     38  N5  UNL     1      16.722  -6.203   0.719 +0.00 -0.00    -0.263 NA 
DOCKED: ATOM     39  C29 UNL     1      16.660  -6.429  -0.610 +0.00 +0.00    +0.111 A  
DOCKED: ATOM     40  C30 UNL     1      15.565  -6.106  -1.397 +0.00 +0.00    +0.025 A  
DOCKED: ENDBRANCH  34  35
DOCKED: ENDBRANCH  32  34
DOCKED: ENDBRANCH  29  30
DOCKED: BRANCH  29  41
DOCKED: ATOM     41  C31 UNL     1      14.427  -5.262  -6.474 +0.00 +0.00    +0.012 C  
DOCKED: ATOM     42  C32 UNL     1      14.355  -4.398  -7.736 +0.00 +0.00    +0.009 C  
DOCKED: ATOM     43  C33 UNL     1      15.661  -6.167  -6.539 +0.00 +0.00    +0.009 C  
DOCKED: ENDBRANCH  29  41
DOCKED: ENDBRANCH  27  29
DOCKED: ENDBRANCH  23  25
DOCKED: ENDBRANCH  22  23
DOCKED: ENDBRANCH  19  22
DOCKED: ENDBRANCH   1  19
DOCKED: BRANCH   1  44
DOCKED: ATOM     44  C11 UNL     1      17.307  -1.480   1.292 +0.00 +0.00    +0.060 C  
DOCKED: BRANCH  44  45
DOCKED: ATOM     45  C12 UNL     1      16.185  -1.491   2.307 +0.00 -0.00    -0.046 A  
DOCKED: ATOM     46  C13 UNL     1      15.684  -2.702   2.809 +0.00 +0.00    +0.004 A  
DOCKED: ATOM     47  C14 UNL     1      14.635  -2.709   3.729 +0.00 +0.00    +0.000 A  
DOCKED: ATOM     48  C15 UNL     1      14.083  -1.507   4.165 +0.00 +0.00    +0.000 A  
DOCKED: ATOM     49  C16 UNL     1      14.584  -0.298   3.688 +0.00 +0.00    +0.000 A  
DOCKED: ATOM     50  C17 UNL     1      15.634  -0.289   2.770 +0.00 +0.00    +0.004 A  
DOCKED: ENDBRANCH  44  45
DOCKED: ENDBRANCH   1  44
DOCKED: TORSDOF 19
DOCKED: TER
DOCKED: ENDMDL
________________________________________________________________________________


    FINAL DOCKED STATE:
    ________________________


Run:   19 / 20
Time taken for this run:   0.674s

DOCKED: MODEL        19
DOCKED: USER    Run = 19
DOCKED: USER
DOCKED: USER    Estimated Free Energy of Binding    =  +5.67 kcal/mol  [=(1)+(2)+(3)-(4)]
DOCKED: USER
DOCKED: USER    (1) Final Intermolecular Energy     =  +0.00 kcal/mol
DOCKED: USER        vdW + Hbond + desolv Energy     =  +0.00 kcal/mol
DOCKED: USER        Electrostatic Energy            =  +0.00 kcal/mol
DOCKED: USER        Moving Ligand-Fixed Receptor    =  +0.00 kcal/mol
DOCKED: USER        Moving Ligand-Moving Receptor   =  +0.00 kcal/mol
DOCKED: USER    (2) Final Total Internal Energy     = -12.68 kcal/mol
DOCKED: USER    (3) Torsional Free Energy           =  +5.67 kcal/mol
DOCKED: USER    (4) Unbound System's Energy         = -12.68 kcal/mol
DOCKED: USER
DOCKED: USER
DOCKED: REMARK  Name = ligands/ligand_8.pdb
DOCKED: REMARK  25 active torsions:
DOCKED: REMARK  status: ('A' for Active; 'I' for Inactive)
DOCKED: REMARK    1  A    between atoms: C1_1  and  C2_2
DOCKED: REMARK    2  A    between atoms: C2_2  and  C3_3
DOCKED: REMARK    3  A    between atoms: C3_3  and  C4_4
DOCKED: REMARK    4  A    between atoms: C3_3  and  C5_5
DOCKED: REMARK    5  A    between atoms: C5_5  and  O1_6
DOCKED: REMARK    6  A    between atoms: C5_5  and  C6_7
DOCKED: REMARK    7  A    between atoms: N1_9  and  C7_10
DOCKED: REMARK    8  A    between atoms: C7_10  and  C8_11
DOCKED: REMARK    9  A    between atoms: C7_10  and  C9_12
DOCKED: REMARK   10  A    between atoms: N2_14  and  C10_15
DOCKED: REMARK   11  A    between atoms: C10_15  and  C11_16
DOCKED: REMARK   12  A    between atoms: C10_15  and  C18_23
DOCKED: REMARK   13  A    between atoms: C11_16  and  C12_17
DOCKED: REMARK   14  A    between atoms: C18_23  and  O4_24
DOCKED: REMARK   15  A    between atoms: C18_23  and  C19_25
DOCKED: REMARK   16  A    between atoms: C19_25  and  C20_26
DOCKED: REMARK   17  A    between atoms: C20_26  and  C21_27
DOCKED: REMARK   18  A    between atoms: C20_26  and  C22_28
DOCKED: REMARK   19  A    between atoms: N3_30  and  C23_31
DOCKED: REMARK   20  A    between atoms: C23_31  and  C24_32
DOCKED: REMARK   21  A    between atoms: C23_31  and  C31_42
DOCKED: REMARK   22  A    between atoms: N4_34  and  C25_35
DOCKED: REMARK   23  A    between atoms: C25_35  and  C26_36
DOCKED: REMARK   24  A    between atoms: C31_42  and  C32_43
DOCKED: REMARK   25  A    between atoms: C31_42  and  C33_44
DOCKED: REMARK                            x       y       z     vdW  Elec       q    Type
DOCKED: REMARK                         _______ _______ _______ _____ _____    ______ ____
DOCKED: USER                              x       y       z     vdW  Elec       q    Type
DOCKED: USER                           _______ _______ _______ _____ _____    ______ ____
DOCKED: ROOT
DOCKED: ATOM      1  C10 UNL     1       8.135  -9.483   1.744 +0.00 +0.00    +0.106 C  
DOCKED: ENDROOT
DOCKED: BRANCH   1   4
DOCKED: ATOM      2  C9  UNL     1       9.103 -10.361  -0.367 +0.00 +0.00    +0.233 C  
DOCKED: ATOM      3  O3  UNL     1       8.627 -11.481  -0.186 +0.00 -0.00    -0.274 OA 
DOCKED: ATOM      4  N2  UNL     1       8.890  -9.309   0.500 +0.00 -0.00    -0.308 N  
DOCKED: ATOM      5  H17 UNL     1       9.226  -8.384   0.256 +0.00 +0.00    +0.149 HD 
DOCKED: BRANCH   2   6
DOCKED: ATOM      6  C7  UNL     1       9.987 -10.037  -1.584 +0.00 +0.00    +0.156 C  
DOCKED: ATOM      7  C8  UNL     1      11.457  -9.987  -1.198 +0.00 +0.00    +0.038 C  
DOCKED: BRANCH   6  10
DOCKED: ATOM      8  C6  UNL     1       9.773  -8.398  -3.424 +0.00 +0.00    +0.242 C  
DOCKED: ATOM      9  O2  UNL     1      10.485  -9.058  -4.183 +0.00 -0.00    -0.273 OA 
DOCKED: ATOM     10  N1  UNL     1       9.540  -8.760  -2.123 +0.00 -0.00    -0.302 N  
DOCKED: ATOM     11  H12 UNL     1       8.912  -8.219  -1.535 +0.00 +0.00    +0.150 HD 
DOCKED: BRANCH   8  12
DOCKED: ATOM     12  C5  UNL     1       9.132  -7.073  -3.888 +0.00 +0.00    +0.203 C  
DOCKED: BRANCH  12  13
DOCKED: ATOM     13  C3  UNL     1      10.144  -5.959  -4.240 +0.00 +0.00    +0.023 C  
DOCKED: ATOM     14  C4  UNL     1       9.417  -4.605  -4.262 +0.00 +0.00    +0.010 C  
DOCKED: BRANCH  13  16
DOCKED: ATOM     15  C1  UNL     1      12.608  -6.550  -3.757 +0.00 +0.00    +0.004 C  
DOCKED: ATOM     16  C2  UNL     1      11.347  -5.845  -3.279 +0.00 +0.00    +0.003 C  
DOCKED: ENDBRANCH  13  16
DOCKED: ENDBRANCH  12  13
DOCKED: BRANCH  12  17
DOCKED: ATOM     17  O1  UNL     1       8.208  -6.592  -2.910 +0.00 -0.00    -0.382 OA 
DOCKED: ATOM     18  H11 UNL     1       8.634  -6.740  -2.042 +0.00 +0.00    +0.210 HD 
DOCKED: ENDBRANCH  12  17
DOCKED: ENDBRANCH   8  12
DOCKED: ENDBRANCH   6  10
DOCKED: ENDBRANCH   2   6
DOCKED: ENDBRANCH   1   4
DOCKED: BRANCH   1  19
DOCKED: ATOM     19  C18 UNL     1       7.624  -8.130   2.345 +0.00 +0.00    +0.136 C  
DOCKED: BRANCH  19  20
DOCKED: ATOM     20  O4  UNL     1       8.526  -7.054   2.096 +0.00 -0.00    -0.390 OA 
DOCKED: ATOM     21  H27 UNL     1       8.894  -7.187   1.200 +0.00 +0.00    +0.210 HD 
DOCKED: ENDBRANCH  19  20
DOCKED: BRANCH  19  22
DOCKED: ATOM     22  C19 UNL     1       6.199  -7.676   1.955 +0.00 +0.00    +0.045 C  
DOCKED: BRANCH  22  23
DOCKED: ATOM     23  C20 UNL     1       6.093  -6.366   1.152 +0.00 +0.00    +0.074 C  
DOCKED: ATOM     24  C21 UNL     1       6.172  -5.166   2.105 +0.00 +0.00    +0.017 C  
DOCKED: BRANCH  23  25
DOCKED: ATOM     25  C22 UNL     1       7.165  -6.210   0.066 +0.00 +0.00    +0.217 C  
DOCKED: ATOM     26  O5  UNL     1       7.620  -7.166  -0.559 +0.00 -0.00    -0.276 OA 
DOCKED: ATOM     27  N3  UNL     1       7.658  -4.937  -0.098 +0.00 -0.00    -0.304 N  
DOCKED: ATOM     28  H34 UNL     1       7.375  -4.243   0.597 +0.00 +0.00    +0.149 HD 
DOCKED: BRANCH  27  29
DOCKED: ATOM     29  C23 UNL     1       8.926  -4.727  -0.788 +0.00 +0.00    +0.161 C  
DOCKED: BRANCH  29  30
DOCKED: ATOM     30  C24 UNL     1       9.965  -5.657  -0.120 +0.00 +0.00    +0.234 C  
DOCKED: ATOM     31  O6  UNL     1      10.175  -6.804  -0.515 +0.00 -0.00    -0.274 OA 
DOCKED: ATOM     32  N4  UNL     1      10.623  -5.099   0.957 +0.00 -0.00    -0.310 N  
DOCKED: ATOM     33  H36 UNL     1      10.537  -4.102   1.108 +0.00 +0.00    +0.149 HD 
DOCKED: BRANCH  32  34
DOCKED: ATOM     34  C25 UNL     1      11.758  -5.756   1.569 +0.00 +0.00    +0.139 C  
DOCKED: BRANCH  34  35
DOCKED: ATOM     35  C26 UNL     1      12.796  -6.170   0.555 +0.00 -0.00    -0.027 A  
DOCKED: ATOM     36  C27 UNL     1      13.550  -5.196  -0.110 +0.00 +0.00    +0.025 A  
DOCKED: ATOM     37  C28 UNL     1      14.522  -5.600  -1.013 +0.00 +0.00    +0.111 A  
DOCKED: ATOM     38  N5  UNL     1      14.796  -6.892  -1.293 +0.00 -0.00    -0.263 NA 
DOCKED: ATOM     39  C29 UNL     1      14.073  -7.820  -0.632 +0.00 +0.00    +0.111 A  
DOCKED: ATOM     40  C30 UNL     1      13.085  -7.514   0.291 +0.00 +0.00    +0.025 A  
DOCKED: ENDBRANCH  34  35
DOCKED: ENDBRANCH  32  34
DOCKED: ENDBRANCH  29  30
DOCKED: BRANCH  29  41
DOCKED: ATOM     41  C31 UNL     1       9.348  -3.242  -0.793 +0.00 +0.00    +0.012 C  
DOCKED: ATOM     42  C32 UNL     1      10.729  -2.985  -1.403 +0.00 +0.00    +0.009 C  
DOCKED: ATOM     43  C33 UNL     1       8.305  -2.366  -1.493 +0.00 +0.00    +0.009 C  
DOCKED: ENDBRANCH  29  41
DOCKED: ENDBRANCH  27  29
DOCKED: ENDBRANCH  23  25
DOCKED: ENDBRANCH  22  23
DOCKED: ENDBRANCH  19  22
DOCKED: ENDBRANCH   1  19
DOCKED: BRANCH   1  44
DOCKED: ATOM     44  C11 UNL     1       8.896 -10.425   2.714 +0.00 +0.00    +0.060 C  
DOCKED: BRANCH  44  45
DOCKED: ATOM     45  C12 UNL     1      10.386 -10.171   2.796 +0.00 -0.00    -0.046 A  
DOCKED: ATOM     46  C13 UNL     1      10.882  -8.999   3.385 +0.00 +0.00    +0.004 A  
DOCKED: ATOM     47  C14 UNL     1      12.256  -8.758   3.440 +0.00 +0.00    +0.000 A  
DOCKED: ATOM     48  C15 UNL     1      13.148  -9.691   2.917 +0.00 +0.00    +0.000 A  
DOCKED: ATOM     49  C16 UNL     1      12.668 -10.868   2.346 +0.00 +0.00    +0.000 A  
DOCKED: ATOM     50  C17 UNL     1      11.295 -11.111   2.293 +0.00 +0.00    +0.004 A  
DOCKED: ENDBRANCH  44  45
DOCKED: ENDBRANCH   1  44
DOCKED: TORSDOF 19
DOCKED: TER
DOCKED: ENDMDL
________________________________________________________________________________


    FINAL DOCKED STATE:
    ________________________


Run:   20 / 20
Time taken for this run:   0.674s

DOCKED: MODEL        20
DOCKED: USER    Run = 20
DOCKED: USER
DOCKED: USER    Estimated Free Energy of Binding    =  +5.67 kcal/mol  [=(1)+(2)+(3)-(4)]
DOCKED: USER
DOCKED: USER    (1) Final Intermolecular Energy     =  +0.00 kcal/mol
DOCKED: USER        vdW + Hbond + desolv Energy     =  +0.00 kcal/mol
DOCKED: USER        Electrostatic Energy            =  +0.00 kcal/mol
DOCKED: USER        Moving Ligand-Fixed Receptor    =  +0.00 kcal/mol
DOCKED: USER        Moving Ligand-Moving Receptor   =  +0.00 kcal/mol
DOCKED: USER    (2) Final Total Internal Energy     = -12.50 kcal/mol
DOCKED: USER    (3) Torsional Free Energy           =  +5.67 kcal/mol
DOCKED: USER    (4) Unbound System's Energy         = -12.50 kcal/mol
DOCKED: USER
DOCKED: USER
DOCKED: REMARK  Name = ligands/ligand_8.pdb
DOCKED: REMARK  25 active torsions:
DOCKED: REMARK  status: ('A' for Active; 'I' for Inactive)
DOCKED: REMARK    1  A    between atoms: C1_1  and  C2_2
DOCKED: REMARK    2  A    between atoms: C2_2  and  C3_3
DOCKED: REMARK    3  A    between atoms: C3_3  and  C4_4
DOCKED: REMARK    4  A    between atoms: C3_3  and  C5_5
DOCKED: REMARK    5  A    between atoms: C5_5  and  O1_6
DOCKED: REMARK    6  A    between atoms: C5_5  and  C6_7
DOCKED: REMARK    7  A    between atoms: N1_9  and  C7_10
DOCKED: REMARK    8  A    between atoms: C7_10  and  C8_11
DOCKED: REMARK    9  A    between atoms: C7_10  and  C9_12
DOCKED: REMARK   10  A    between atoms: N2_14  and  C10_15
DOCKED: REMARK   11  A    between atoms: C10_15  and  C11_16
DOCKED: REMARK   12  A    between atoms: C10_15  and  C18_23
DOCKED: REMARK   13  A    between atoms: C11_16  and  C12_17
DOCKED: REMARK   14  A    between atoms: C18_23  and  O4_24
DOCKED: REMARK   15  A    between atoms: C18_23  and  C19_25
DOCKED: REMARK   16  A    between atoms: C19_25  and  C20_26
DOCKED: REMARK   17  A    between atoms: C20_26  and  C21_27
DOCKED: REMARK   18  A    between atoms: C20_26  and  C22_28
DOCKED: REMARK   19  A    between atoms: N3_30  and  C23_31
DOCKED: REMARK   20  A    between atoms: C23_31  and  C24_32
DOCKED: REMARK   21  A    between atoms: C23_31  and  C31_42
DOCKED: REMARK   22  A    between atoms: N4_34  and  C25_35
DOCKED: REMARK   23  A    between atoms: C25_35  and  C26_36
DOCKED: REMARK   24  A    between atoms: C31_42  and  C32_43
DOCKED: REMARK   25  A    between atoms: C31_42  and  C33_44
DOCKED: REMARK                            x       y       z     vdW  Elec       q    Type
DOCKED: REMARK                         _______ _______ _______ _____ _____    ______ ____
DOCKED: USER                              x       y       z     vdW  Elec       q    Type
DOCKED: USER                           _______ _______ _______ _____ _____    ______ ____
DOCKED: ROOT
DOCKED: ATOM      1  C10 UNL     1       8.215  -2.680   2.233 +0.00 +0.00    +0.106 C  
DOCKED: ENDROOT
DOCKED: BRANCH   1   4
DOCKED: ATOM      2  C9  UNL     1       7.652  -1.174   4.125 +0.00 +0.00    +0.233 C  
DOCKED: ATOM      3  O3  UNL     1       8.792  -0.713   4.171 +0.00 -0.00    -0.274 OA 
DOCKED: ATOM      4  N2  UNL     1       7.262  -2.112   3.192 +0.00 -0.00    -0.308 N  
DOCKED: ATOM      5  H17 UNL     1       6.289  -2.389   3.138 +0.00 +0.00    +0.149 HD 
DOCKED: BRANCH   2   6
DOCKED: ATOM      6  C7  UNL     1       6.557  -0.742   5.116 +0.00 +0.00    +0.156 C  
DOCKED: ATOM      7  C8  UNL     1       6.824  -1.298   6.507 +0.00 +0.00    +0.038 C  
DOCKED: BRANCH   6  10
DOCKED: ATOM      8  C6  UNL     1       4.904  -1.003   3.295 +0.00 +0.00    +0.242 C  
DOCKED: ATOM      9  O2  UNL     1       5.545  -0.288   2.523 +0.00 -0.00    -0.273 OA 
DOCKED: ATOM     10  N1  UNL     1       5.283  -1.216   4.595 +0.00 -0.00    -0.302 N  
DOCKED: ATOM     11  H12 UNL     1       4.758  -1.847   5.195 +0.00 +0.00    +0.150 HD 
DOCKED: BRANCH   8  12
DOCKED: ATOM     12  C5  UNL     1       3.585  -1.671   2.851 +0.00 +0.00    +0.203 C  
DOCKED: BRANCH  12  13
DOCKED: ATOM     13  C3  UNL     1       3.183  -2.911   3.681 +0.00 +0.00    +0.023 C  
DOCKED: ATOM     14  C4  UNL     1       1.920  -3.538   3.070 +0.00 +0.00    +0.010 C  
DOCKED: BRANCH  13  16
DOCKED: ATOM     15  C1  UNL     1       4.280  -4.991   2.622 +0.00 +0.00    +0.004 C  
DOCKED: ATOM     16  C2  UNL     1       4.266  -4.007   3.781 +0.00 +0.00    +0.003 C  
DOCKED: ENDBRANCH  13  16
DOCKED: ENDBRANCH  12  13
DOCKED: BRANCH  12  17
DOCKED: ATOM     17  O1  UNL     1       3.638  -2.015   1.466 +0.00 -0.00    -0.382 OA 
DOCKED: ATOM     18  H11 UNL     1       4.455  -1.603   1.118 +0.00 +0.00    +0.210 HD 
DOCKED: ENDBRANCH  12  17
DOCKED: ENDBRANCH   8  12
DOCKED: ENDBRANCH   6  10
DOCKED: ENDBRANCH   2   6
DOCKED: ENDBRANCH   1   4
DOCKED: BRANCH   1  19
DOCKED: ATOM     19  C18 UNL     1       7.549  -3.077   0.872 +0.00 +0.00    +0.136 C  
DOCKED: BRANCH  19  20
DOCKED: ATOM     20  O4  UNL     1       6.127  -2.981   0.918 +0.00 -0.00    -0.390 OA 
DOCKED: ATOM     21  H27 UNL     1       5.909  -2.134   1.354 +0.00 +0.00    +0.210 HD 
DOCKED: ENDBRANCH  19  20
DOCKED: BRANCH  19  22
DOCKED: ATOM     22  C19 UNL     1       8.049  -2.352  -0.399 +0.00 +0.00    +0.045 C  
DOCKED: BRANCH  22  23
DOCKED: ATOM     23  C20 UNL     1       7.551  -0.909  -0.605 +0.00 +0.00    +0.074 C  
DOCKED: ATOM     24  C21 UNL     1       8.339  -0.247  -1.743 +0.00 +0.00    +0.017 C  
DOCKED: BRANCH  23  25
DOCKED: ATOM     25  C22 UNL     1       6.052  -0.803  -0.912 +0.00 +0.00    +0.217 C  
DOCKED: ATOM     26  O5  UNL     1       5.204  -0.649  -0.035 +0.00 -0.00    -0.276 OA 
DOCKED: ATOM     27  N3  UNL     1       5.704  -0.989  -2.230 +0.00 -0.00    -0.304 N  
DOCKED: ATOM     28  H34 UNL     1       6.444  -1.313  -2.857 +0.00 +0.00    +0.149 HD 
DOCKED: BRANCH  27  29
DOCKED: ATOM     29  C23 UNL     1       4.326  -1.308  -2.585 +0.00 +0.00    +0.161 C  
DOCKED: BRANCH  29  30
DOCKED: ATOM     30  C24 UNL     1       4.162  -2.838  -2.435 +0.00 +0.00    +0.234 C  
DOCKED: ATOM     31  O6  UNL     1       4.029  -3.587  -3.402 +0.00 -0.00    -0.274 OA 
DOCKED: ATOM     32  N4  UNL     1       4.165  -3.288  -1.130 +0.00 -0.00    -0.310 N  
DOCKED: ATOM     33  H36 UNL     1       4.462  -2.650  -0.403 +0.00 +0.00    +0.149 HD 
DOCKED: BRANCH  32  34
DOCKED: ATOM     34  C25 UNL     1       4.220  -4.700  -0.820 +0.00 +0.00    +0.139 C  
DOCKED: BRANCH  34  35
DOCKED: ATOM     35  C26 UNL     1       5.628  -5.242  -0.861 +0.00 -0.00    -0.027 A  
DOCKED: ATOM     36  C27 UNL     1       6.079  -6.090   0.157 +0.00 +0.00    +0.025 A  
DOCKED: ATOM     37  C28 UNL     1       7.365  -6.603   0.083 +0.00 +0.00    +0.111 A  
DOCKED: ATOM     38  N5  UNL     1       8.222  -6.337  -0.925 +0.00 -0.00    -0.263 NA 
DOCKED: ATOM     39  C29 UNL     1       7.768  -5.532  -1.908 +0.00 +0.00    +0.111 A  
DOCKED: ATOM     40  C30 UNL     1       6.498  -4.976  -1.924 +0.00 +0.00    +0.025 A  
DOCKED: ENDBRANCH  34  35
DOCKED: ENDBRANCH  32  34
DOCKED: ENDBRANCH  29  30
DOCKED: BRANCH  29  41
DOCKED: ATOM     41  C31 UNL     1       3.950  -0.787  -3.989 +0.00 +0.00    +0.012 C  
DOCKED: ATOM     42  C32 UNL     1       3.202   0.549  -3.981 +0.00 +0.00    +0.009 C  
DOCKED: ATOM     43  C33 UNL     1       5.181  -0.683  -4.895 +0.00 +0.00    +0.009 C  
DOCKED: ENDBRANCH  29  41
DOCKED: ENDBRANCH  27  29
DOCKED: ENDBRANCH  23  25
DOCKED: ENDBRANCH  22  23
DOCKED: ENDBRANCH  19  22
DOCKED: ENDBRANCH   1  19
DOCKED: BRANCH   1  44
DOCKED: ATOM     44  C11 UNL     1       9.093  -3.762   2.914 +0.00 +0.00    +0.060 C  
DOCKED: BRANCH  44  45
DOCKED: ATOM     45  C12 UNL     1       8.348  -4.659   3.880 +0.00 -0.00    -0.046 A  
DOCKED: ATOM     46  C13 UNL     1       7.601  -5.751   3.414 +0.00 +0.00    +0.004 A  
DOCKED: ATOM     47  C14 UNL     1       6.899  -6.563   4.305 +0.00 +0.00    +0.000 A  
DOCKED: ATOM     48  C15 UNL     1       6.943  -6.298   5.671 +0.00 +0.00    +0.000 A  
DOCKED: ATOM     49  C16 UNL     1       7.696  -5.227   6.148 +0.00 +0.00    +0.000 A  
DOCKED: ATOM     50  C17 UNL     1       8.401  -4.416   5.258 +0.00 +0.00    +0.004 A  
DOCKED: ENDBRANCH  44  45
DOCKED: ENDBRANCH   1  44
DOCKED: TORSDOF 19
DOCKED: TER
DOCKED: ENDMDL
________________________________________________________________________________


    CLUSTERING HISTOGRAM
    ____________________


________________________________________________________________________________
     |           |     |           |     |
Clus | Lowest    | Run | Mean      | Num | Histogram
-ter | Binding   |     | Binding   | in  |
Rank | Energy    |     | Energy    | Clus|    5    10   15   20   25   30   35
_____|___________|_____|___________|_____|____:____|____:____|____:____|____:___
   1 |     +5.67 |   1 |     +5.67 |   1 |#
   2 |     +5.67 |   2 |     +5.67 |   1 |#
   3 |     +5.67 |   3 |     +5.67 |   1 |#
   4 |     +5.67 |   4 |     +5.67 |   1 |#
   5 |     +5.67 |   5 |     +5.67 |   1 |#
   6 |     +5.67 |   6 |     +5.67 |   1 |#
   7 |     +5.67 |   7 |     +5.67 |   1 |#
   8 |     +5.67 |   8 |     +5.67 |   1 |#
   9 |     +5.67 |   9 |     +5.67 |   1 |#
  10 |     +5.67 |  10 |     +5.67 |   1 |#
  11 |     +5.67 |  11 |     +5.67 |   1 |#
  12 |     +5.67 |  12 |     +5.67 |   1 |#
  13 |     +5.67 |  13 |     +5.67 |   1 |#
  14 |     +5.67 |  14 |     +5.67 |   1 |#
  15 |     +5.67 |  15 |     +5.67 |   1 |#
  16 |     +5.67 |  16 |     +5.67 |   1 |#
  17 |     +5.67 |  17 |     +5.67 |   1 |#
  18 |     +5.67 |  18 |     +5.67 |   1 |#
  19 |     +5.67 |  19 |     +5.67 |   1 |#
  20 |     +5.67 |  20 |     +5.67 |   1 |#
_____|___________|_____|___________|_____|______________________________________


    RMSD TABLE
    __________


_______________________________________________________________________
     |      |      |           |         |                 |
Rank | Sub- | Run  | Binding   | Cluster | Reference       | Grep
     | Rank |      | Energy    | RMSD    | RMSD            | Pattern
_____|______|______|___________|_________|_________________|___________
   1      1      1       +5.67      0.00     14.02           RANKING
   2      1      2       +5.67      0.00     11.41           RANKING
   3      1      3       +5.67      0.00      8.34           RANKING
   4      1      4       +5.67      0.00      8.03           RANKING
   5      1      5       +5.67      0.00      9.32           RANKING
   6      1      6       +5.67      0.00      6.59           RANKING
   7      1      7       +5.67      0.00     10.39           RANKING
   8      1      8       +5.67      0.00     14.23           RANKING
   9      1      9       +5.67      0.00      8.90           RANKING
  10      1     10       +5.67      0.00      7.50           RANKING
  11      1     11       +5.67      0.00      8.23           RANKING
  12      1     12       +5.67      0.00     13.76           RANKING
  13      1     13       +5.67      0.00      8.53           RANKING
  14      1     14       +5.67      0.00     15.70           RANKING
  15      1     15       +5.67      0.00     10.14           RANKING
  16      1     16       +5.67      0.00      8.56           RANKING
  17      1     17       +5.67      0.00      9.00           RANKING
  18      1     18       +5.67      0.00     14.02           RANKING
  19      1     19       +5.67      0.00     10.82           RANKING
  20      1     20       +5.67      0.00      7.44           RANKING

Run time 13.568 sec
Idle time 0.290 sec
