REMARK  Name = ligands/ligand_13.pdb
REMARK  28 active torsions:
REMARK  status: ('A' for Active; 'I' for Inactive)
REMARK    1  A    between atoms: C1_1  and  C2_2
REMARK    2  A    between atoms: C2_2  and  C3_3
REMARK    3  A    between atoms: C2_2  and  C4_4
REMARK    4  A    between atoms: C4_4  and  N1_5
REMARK    5  A    between atoms: C4_4  and  C30_42
REMARK    6  A    between atoms: C5_6  and  C6_8
REMARK    7  A    between atoms: C6_8  and  C7_9
REMARK    8  A    between atoms: C6_8  and  C8_10
REMARK    9  A    between atoms: C8_10  and  C9_11
REMARK   10  A    between atoms: C9_11  and  O2_12
REMARK   11  A    between atoms: C9_11  and  C10_13
REMARK   12  A    between atoms: C10_13  and  C11_14
REMARK   13  A    between atoms: C10_13  and  N2_21
REMARK   14  A    between atoms: C11_14  and  C12_15
REMARK   15  A    between atoms: C18_22  and  C19_24
REMARK   16  A    between atoms: C19_24  and  C20_25
REMARK   17  A    between atoms: C19_24  and  N3_26
REMARK   18  A    between atoms: C21_27  and  C22_29
REMARK   19  A    between atoms: C22_29  and  C23_30
REMARK   20  A    between atoms: C22_29  and  N4_34
REMARK   21  A    between atoms: C23_30  and  C24_31
REMARK   22  A    between atoms: C25_35  and  O6_37
REMARK   23  A    between atoms: O6_37  and  C26_38
REMARK   24  A    between atoms: C26_38  and  C27_39
REMARK   25  A    between atoms: C26_38  and  C28_40
REMARK   26  A    between atoms: C26_38  and  C29_41
REMARK   27  A    between atoms: N5_44  and  C31_45
REMARK   28  A    between atoms: C31_45  and  C32_46
REMARK                            x       y       z     vdW  Elec       q    Type
REMARK                         _______ _______ _______ _____ _____    ______ ____
ROOT
ATOM      1  C10 UNL     1      -0.763  -1.053  -1.059  0.00  0.00    +0.106 C 
ENDROOT
BRANCH   1   2
ATOM      2  N2  UNL     1       0.464  -1.547  -0.423  0.00  0.00    -0.308 N 
ATOM      3  C18 UNL     1       0.853  -1.323   0.875  0.00  0.00    +0.233 C 
ATOM      4  O3  UNL     1       0.295  -0.497   1.599  0.00  0.00    -0.274 OA
ATOM      5  H26 UNL     1       0.982  -2.266  -0.918  0.00  0.00    +0.149 HD
BRANCH   3   6
ATOM      6  C19 UNL     1       2.033  -2.184   1.380  0.00  0.00    +0.156 C 
ATOM      7  C20 UNL     1       3.152  -1.299   1.929  0.00  0.00    +0.038 C 
BRANCH   6   8
ATOM      8  N3  UNL     1       2.519  -3.227   0.467  0.00  0.00    -0.303 N 
ATOM      9  C21 UNL     1       3.314  -3.004  -0.639  0.00  0.00    +0.234 C 
ATOM     10  O4  UNL     1       3.488  -1.885  -1.110  0.00  0.00    -0.274 OA
ATOM     11  H31 UNL     1       2.425  -4.193   0.785  0.00  0.00    +0.149 HD
BRANCH   9  12
ATOM     12  C22 UNL     1       3.847  -4.292  -1.302  0.00  0.00    +0.167 C 
BRANCH  12  13
ATOM     13  N4  UNL     1       2.712  -4.948  -1.945  0.00  0.00    -0.270 N 
ATOM     14  C25 UNL     1       1.856  -5.740  -1.238  0.00  0.00    +0.401 C 
ATOM     15  O5  UNL     1       2.046  -6.082  -0.082  0.00  0.00    -0.226 OA
ATOM     16  H36 UNL     1       2.294  -4.540  -2.776  0.00  0.00    +0.153 HD
BRANCH  14  17
ATOM     17  O6  UNL     1       0.771  -6.001  -1.995  0.00  0.00    -0.445 OA
BRANCH  17  18
ATOM     18  C26 UNL     1      -0.314  -6.816  -1.481  0.00  0.00    +0.107 C 
ATOM     19  C27 UNL     1       0.158  -8.252  -1.224  0.00  0.00    +0.055 C 
ATOM     20  C28 UNL     1      -0.948  -6.189  -0.235  0.00  0.00    +0.055 C 
ATOM     21  C29 UNL     1      -1.357  -6.823  -2.612  0.00  0.00    +0.055 C 
ENDBRANCH  17  18
ENDBRANCH  14  17
ENDBRANCH  12  13
BRANCH  12  22
ATOM     22  C23 UNL     1       4.950  -3.983  -2.312  0.00  0.00    +0.103 C 
BRANCH  22  23
ATOM     23  C24 UNL     1       5.698  -5.236  -2.706  0.00  0.00    +0.343 C 
ATOM     24  F1  UNL     1       6.362  -5.717  -1.626  0.00  0.00    -0.209 F 
ATOM     25  F2  UNL     1       6.636  -4.924  -3.633  0.00  0.00    -0.209 F 
ENDBRANCH  22  23
ENDBRANCH  12  22
ENDBRANCH   9  12
ENDBRANCH   6   8
ENDBRANCH   3   6
ENDBRANCH   1   2
BRANCH   1  26
ATOM     26  C11 UNL     1      -1.989  -1.797  -0.481  0.00  0.00    +0.060 C 
BRANCH  26  27
ATOM     27  C12 UNL     1      -3.194  -1.762  -1.393  0.00  0.00    -0.046 A 
ATOM     28  C13 UNL     1      -4.210  -0.816  -1.194  0.00  0.00    +0.004 A 
ATOM     29  C14 UNL     1      -5.303  -0.761  -2.059  0.00  0.00    +0.000 A 
ATOM     30  C15 UNL     1      -5.390  -1.652  -3.127  0.00  0.00    +0.000 A 
ATOM     31  C16 UNL     1      -4.395  -2.602  -3.325  0.00  0.00    +0.000 A 
ATOM     32  C17 UNL     1      -3.298  -2.658  -2.465  0.00  0.00    +0.004 A 
ENDBRANCH  26  27
ENDBRANCH   1  26
BRANCH   1  33
ATOM     33  C9  UNL     1      -0.949   0.492  -1.049  0.00  0.00    +0.136 C 
BRANCH  33  34
ATOM     34  O2  UNL     1      -1.335   0.963   0.240  0.00  0.00    -0.390 OA
ATOM     35  H17 UNL     1      -0.717   0.570   0.896  0.00  0.00    +0.210 HD
ENDBRANCH  33  34
BRANCH  33  36
ATOM     36  C8  UNL     1       0.282   1.277  -1.546  0.00  0.00    +0.045 C 
BRANCH  36  37
ATOM     37  C6  UNL     1       0.006   2.774  -1.865  0.00  0.00    +0.074 C 
ATOM     38  C7  UNL     1      -0.911   2.963  -3.076  0.00  0.00    +0.017 C 
BRANCH  37  40
ATOM     39  N1  UNL     1       0.414   3.777   0.313  0.00  0.00    -0.304 N 
ATOM     40  C5  UNL     1      -0.542   3.514  -0.645  0.00  0.00    +0.217 C 
ATOM     41  O1  UNL     1      -1.725   3.829  -0.540  0.00  0.00    -0.276 OA
ATOM     42  H9  UNL     1       1.312   3.363   0.121  0.00  0.00    +0.149 HD
BRANCH  39  43
ATOM     43  C4  UNL     1       0.107   3.941   1.746  0.00  0.00    +0.161 C 
BRANCH  43  44
ATOM     44  C30 UNL     1      -0.769   5.170   2.152  0.00  0.00    +0.234 C 
ATOM     45  O7  UNL     1      -0.395   6.053   2.926  0.00  0.00    -0.274 OA
ATOM     46  N5  UNL     1      -2.048   5.129   1.650  0.00  0.00    -0.310 N 
ATOM     47  H46 UNL     1      -2.218   4.499   0.864  0.00  0.00    +0.149 HD
BRANCH  46  48
ATOM     48  C31 UNL     1      -3.103   6.015   2.057  0.00  0.00    +0.139 C 
BRANCH  48  49
ATOM     49  C32 UNL     1      -4.053   5.293   2.978  0.00  0.00    -0.027 A 
ATOM     50  C33 UNL     1      -4.898   4.289   2.492  0.00  0.00    +0.025 A 
ATOM     51  C34 UNL     1      -5.716   3.619   3.393  0.00  0.00    +0.111 A 
ATOM     52  N6  UNL     1      -5.755   3.878   4.718  0.00  0.00    -0.263 NA
ATOM     53  C35 UNL     1      -4.925   4.845   5.163  0.00  0.00    +0.111 A 
ATOM     54  C36 UNL     1      -4.067   5.569   4.346  0.00  0.00    +0.025 A 
ENDBRANCH  48  49
ENDBRANCH  46  48
ENDBRANCH  43  44
BRANCH  43  56
ATOM     55  C1  UNL     1       2.034   2.506   2.637  0.00  0.00    +0.009 C 
ATOM     56  C2  UNL     1       1.413   3.911   2.599  0.00  0.00    +0.012 C 
ATOM     57  C3  UNL     1       2.466   4.927   2.133  0.00  0.00    +0.009 C 
ENDBRANCH  43  56
ENDBRANCH  39  43
ENDBRANCH  37  40
ENDBRANCH  36  37
ENDBRANCH  33  36
ENDBRANCH   1  33
TORSDOF 21
