AutoDock-GPU version: v1.6

**********************************************************
**    AutoDock-GPU AUTODOCKTOOLS-COMPATIBLE DLG FILE    **
**********************************************************


    DOCKING PARAMETERS
    ________________________


Ligand file:                               ligands/ligand_25.pdbqt
Grid fld file:                             protein.maps.fld

Random seed:                               1770972891, 28995
Number of runs:                            20
Number of energy evaluations:              10161399
Number of generations:                     42000
Size of population:                        150
Rate of crossover:                         80.000000%
Tournament selection probability limit:    60.000000%
Rate of mutation:                          2.000000%
Maximal allowed delta movement:            +/- 6.000000A
Maximal allowed delta angle:               +/- 90.000000

Rate of local search:                      100.000000%
Maximal number of local search iterations: 300
Rho lower bound:                           0.010000
Spread of local search delta movement:     2.000000A
Spread of local search delta angle:        74.999999
Limit of consecutive successes/failures:   4

Handle symmetry during clustering:         YES
RMSD tolerance:                            2.000000A

Program call in command line was:          ./autodock-gpu --ffile protein.maps.fld --lfile ligands/ligand_25.pdbqt --nrun 20 


    GRID PARAMETERS
    ________________________


Receptor name:                             #MACROMOLECULE
Number of grid points (x, y, z):           61, 61, 61
Grid center (x, y, z):                     10.261000, -3.492000, -0.127000A
Grid size (x, y, z):                       22.500000, 22.500000, 22.500000A
Grid spacing:                              0.375000A


    LIGAND PARAMETERS
    ________________________


Ligand name:                               ligands/ligand_25
Number of atoms:                           57
Number of rotatable bonds:                 22
Number of atom types:                      6


    DUMMY DATA (only for ADT-compatibility)
    ________________________


DPF> outlev 1
DPF> ga_run 20
DPF> fld protein.maps.fld
DPF> move ligands/ligand_25.pdbqt


    COUNTER STATES
    ________________________


Number of energy evaluations performed:    6189192
Number of generations used:                255


    INPUT LIGAND PDBQT FILE:
    ________________________


INPUT-LIGAND-PDBQT: REMARK  Name = ligands/ligand_25.pdb
INPUT-LIGAND-PDBQT: REMARK  32 active torsions:
INPUT-LIGAND-PDBQT: REMARK  status: ('A' for Active; 'I' for Inactive)
INPUT-LIGAND-PDBQT: REMARK    1  A    between atoms: C1_1  and  S1_2
INPUT-LIGAND-PDBQT: REMARK    2  A    between atoms: S1_2  and  C2_3
INPUT-LIGAND-PDBQT: REMARK    3  A    between atoms: C2_3  and  C3_4
INPUT-LIGAND-PDBQT: REMARK    4  A    between atoms: C3_4  and  C4_5
INPUT-LIGAND-PDBQT: REMARK    5  A    between atoms: C4_5  and  N1_6
INPUT-LIGAND-PDBQT: REMARK    6  A    between atoms: C4_5  and  C15_21
INPUT-LIGAND-PDBQT: REMARK    7  A    between atoms: C5_7  and  C6_9
INPUT-LIGAND-PDBQT: REMARK    8  A    between atoms: C6_9  and  N2_10
INPUT-LIGAND-PDBQT: REMARK    9  A    between atoms: C6_9  and  C12_18
INPUT-LIGAND-PDBQT: REMARK   10  A    between atoms: C7_11  and  O3_13
INPUT-LIGAND-PDBQT: REMARK   11  A    between atoms: O3_13  and  C8_14
INPUT-LIGAND-PDBQT: REMARK   12  A    between atoms: C8_14  and  C9_15
INPUT-LIGAND-PDBQT: REMARK   13  A    between atoms: C8_14  and  C10_16
INPUT-LIGAND-PDBQT: REMARK   14  A    between atoms: C8_14  and  C11_17
INPUT-LIGAND-PDBQT: REMARK   15  A    between atoms: C12_18  and  C13_19
INPUT-LIGAND-PDBQT: REMARK   16  A    between atoms: C12_18  and  C14_20
INPUT-LIGAND-PDBQT: REMARK   17  A    between atoms: N3_23  and  C16_24
INPUT-LIGAND-PDBQT: REMARK   18  A    between atoms: C16_24  and  C17_25
INPUT-LIGAND-PDBQT: REMARK   19  A    between atoms: C16_24  and  C21_29
INPUT-LIGAND-PDBQT: REMARK   20  A    between atoms: C17_25  and  C18_26
INPUT-LIGAND-PDBQT: REMARK   21  A    between atoms: C18_26  and  C19_27
INPUT-LIGAND-PDBQT: REMARK   22  A    between atoms: C18_26  and  C20_28
INPUT-LIGAND-PDBQT: REMARK   23  A    between atoms: C21_29  and  O5_30
INPUT-LIGAND-PDBQT: REMARK   24  A    between atoms: C21_29  and  C22_31
INPUT-LIGAND-PDBQT: REMARK   25  A    between atoms: C22_31  and  C23_32
INPUT-LIGAND-PDBQT: REMARK   26  A    between atoms: N4_34  and  C24_35
INPUT-LIGAND-PDBQT: REMARK   27  A    between atoms: C24_35  and  C25_36
INPUT-LIGAND-PDBQT: REMARK   28  A    between atoms: C24_35  and  C34_49
INPUT-LIGAND-PDBQT: REMARK   29  A    between atoms: N5_38  and  C26_39
INPUT-LIGAND-PDBQT: REMARK   30  A    between atoms: C26_39  and  C27_40
INPUT-LIGAND-PDBQT: REMARK   31  A    between atoms: C34_49  and  C35_50
INPUT-LIGAND-PDBQT: REMARK   32  A    between atoms: C34_49  and  C36_51
INPUT-LIGAND-PDBQT: REMARK                            x       y       z     vdW  Elec       q    Type
INPUT-LIGAND-PDBQT: REMARK                         _______ _______ _______ _____ _____    ______ ____
INPUT-LIGAND-PDBQT: ROOT
INPUT-LIGAND-PDBQT: ATOM      1  C16 UNL     1      -2.665  -0.573  -1.362  0.00  0.00    +0.102 C 
INPUT-LIGAND-PDBQT: ENDROOT
INPUT-LIGAND-PDBQT: BRANCH   1   4
INPUT-LIGAND-PDBQT: ATOM      2  C15 UNL     1      -0.360  -0.067  -2.142  0.00  0.00    +0.234 C 
INPUT-LIGAND-PDBQT: ATOM      3  O4  UNL     1      -0.759   0.527  -3.145  0.00  0.00    -0.274 OA
INPUT-LIGAND-PDBQT: ATOM      4  N3  UNL     1      -1.213  -0.661  -1.239  0.00  0.00    -0.308 N 
INPUT-LIGAND-PDBQT: ATOM      5  H28 UNL     1      -0.825  -1.049  -0.380  0.00  0.00    +0.149 HD
INPUT-LIGAND-PDBQT: BRANCH   2   6
INPUT-LIGAND-PDBQT: ATOM      6  C4  UNL     1       1.145  -0.187  -1.810  0.00  0.00    +0.160 C 
INPUT-LIGAND-PDBQT: BRANCH   6   7
INPUT-LIGAND-PDBQT: ATOM      7  N1  UNL     1       1.868   0.359  -2.956  0.00  0.00    -0.302 N 
INPUT-LIGAND-PDBQT: ATOM      8  C5  UNL     1       3.234   0.287  -3.086  0.00  0.00    +0.234 C 
INPUT-LIGAND-PDBQT: ATOM      9  O1  UNL     1       3.956  -0.213  -2.223  0.00  0.00    -0.274 OA
INPUT-LIGAND-PDBQT: ATOM     10  H9  UNL     1       1.310   0.879  -3.632  0.00  0.00    +0.150 HD
INPUT-LIGAND-PDBQT: BRANCH   8  11
INPUT-LIGAND-PDBQT: ATOM     11  C6  UNL     1       3.788   0.895  -4.392  0.00  0.00    +0.165 C 
INPUT-LIGAND-PDBQT: BRANCH  11  12
INPUT-LIGAND-PDBQT: ATOM     12  N2  UNL     1       4.862   1.809  -4.027  0.00  0.00    -0.270 N 
INPUT-LIGAND-PDBQT: ATOM     13  C7  UNL     1       4.592   3.109  -3.720  0.00  0.00    +0.401 C 
INPUT-LIGAND-PDBQT: ATOM     14  O2  UNL     1       3.532   3.671  -3.928  0.00  0.00    -0.226 OA
INPUT-LIGAND-PDBQT: ATOM     15  H11 UNL     1       5.664   1.433  -3.537  0.00  0.00    +0.153 HD
INPUT-LIGAND-PDBQT: BRANCH  13  16
INPUT-LIGAND-PDBQT: ATOM     16  O3  UNL     1       5.679   3.655  -3.130  0.00  0.00    -0.445 OA
INPUT-LIGAND-PDBQT: BRANCH  16  17
INPUT-LIGAND-PDBQT: ATOM     17  C8  UNL     1       5.668   5.044  -2.707  0.00  0.00    +0.107 C 
INPUT-LIGAND-PDBQT: ATOM     18  C9  UNL     1       4.594   5.306  -1.643  0.00  0.00    +0.055 C 
INPUT-LIGAND-PDBQT: ATOM     19  C10 UNL     1       5.522   5.985  -3.909  0.00  0.00    +0.055 C 
INPUT-LIGAND-PDBQT: ATOM     20  C11 UNL     1       7.047   5.265  -2.071  0.00  0.00    +0.055 C 
INPUT-LIGAND-PDBQT: ENDBRANCH  16  17
INPUT-LIGAND-PDBQT: ENDBRANCH  13  16
INPUT-LIGAND-PDBQT: ENDBRANCH  11  12
INPUT-LIGAND-PDBQT: BRANCH  11  21
INPUT-LIGAND-PDBQT: ATOM     21  C12 UNL     1       4.271  -0.170  -5.402  0.00  0.00    +0.012 C 
INPUT-LIGAND-PDBQT: ATOM     22  C13 UNL     1       5.351  -1.115  -4.863  0.00  0.00    +0.009 C 
INPUT-LIGAND-PDBQT: ATOM     23  C14 UNL     1       3.097  -0.985  -5.950  0.00  0.00    +0.009 C 
INPUT-LIGAND-PDBQT: ENDBRANCH  11  21
INPUT-LIGAND-PDBQT: ENDBRANCH   8  11
INPUT-LIGAND-PDBQT: ENDBRANCH   6   7
INPUT-LIGAND-PDBQT: BRANCH   6  24
INPUT-LIGAND-PDBQT: ATOM     24  C3  UNL     1       1.494   0.552  -0.505  0.00  0.00    +0.042 C 
INPUT-LIGAND-PDBQT: BRANCH  24  25
INPUT-LIGAND-PDBQT: ATOM     25  C2  UNL     1       2.035  -0.384   0.577  0.00  0.00    +0.071 C 
INPUT-LIGAND-PDBQT: BRANCH  25  27
INPUT-LIGAND-PDBQT: ATOM     26  C1  UNL     1       1.727  -2.477   2.352  0.00  0.00    +0.084 C 
INPUT-LIGAND-PDBQT: ATOM     27  S1  UNL     1       0.727  -1.485   1.209  0.00  0.00    -0.164 S 
INPUT-LIGAND-PDBQT: ENDBRANCH  25  27
INPUT-LIGAND-PDBQT: ENDBRANCH  24  25
INPUT-LIGAND-PDBQT: ENDBRANCH   6  24
INPUT-LIGAND-PDBQT: ENDBRANCH   2   6
INPUT-LIGAND-PDBQT: ENDBRANCH   1   4
INPUT-LIGAND-PDBQT: BRANCH   1  28
INPUT-LIGAND-PDBQT: ATOM     28  C21 UNL     1      -3.175   0.835  -0.926  0.00  0.00    +0.143 C 
INPUT-LIGAND-PDBQT: BRANCH  28  29
INPUT-LIGAND-PDBQT: ATOM     29  O5  UNL     1      -4.543   1.046  -1.277  0.00  0.00    -0.389 OA
INPUT-LIGAND-PDBQT: ATOM     30  H40 UNL     1      -4.654   0.790  -2.210  0.00  0.00    +0.210 HD
INPUT-LIGAND-PDBQT: ENDBRANCH  28  29
INPUT-LIGAND-PDBQT: BRANCH  28  31
INPUT-LIGAND-PDBQT: ATOM     31  C22 UNL     1      -2.917   1.251   0.526  0.00  0.00    +0.129 C 
INPUT-LIGAND-PDBQT: BRANCH  31  32
INPUT-LIGAND-PDBQT: ATOM     32  C23 UNL     1      -3.781   0.626   1.608  0.00  0.00    +0.216 C 
INPUT-LIGAND-PDBQT: ATOM     33  O6  UNL     1      -4.700  -0.159   1.418  0.00  0.00    -0.276 OA
INPUT-LIGAND-PDBQT: ATOM     34  N4  UNL     1      -3.430   1.057   2.880  0.00  0.00    -0.304 N 
INPUT-LIGAND-PDBQT: ATOM     35  H43 UNL     1      -2.466   1.350   2.985  0.00  0.00    +0.149 HD
INPUT-LIGAND-PDBQT: BRANCH  34  36
INPUT-LIGAND-PDBQT: ATOM     36  C24 UNL     1      -4.009   0.393   4.044  0.00  0.00    +0.161 C 
INPUT-LIGAND-PDBQT: BRANCH  36  37
INPUT-LIGAND-PDBQT: ATOM     37  C25 UNL     1      -3.101  -0.802   4.400  0.00  0.00    +0.234 C 
INPUT-LIGAND-PDBQT: ATOM     38  O7  UNL     1      -1.897  -0.817   4.131  0.00  0.00    -0.274 OA
INPUT-LIGAND-PDBQT: ATOM     39  N5  UNL     1      -3.737  -1.818   5.083  0.00  0.00    -0.310 N 
INPUT-LIGAND-PDBQT: ATOM     40  H45 UNL     1      -4.748  -1.827   5.112  0.00  0.00    +0.149 HD
INPUT-LIGAND-PDBQT: BRANCH  39  41
INPUT-LIGAND-PDBQT: ATOM     41  C26 UNL     1      -3.057  -3.057   5.386  0.00  0.00    +0.139 C 
INPUT-LIGAND-PDBQT: BRANCH  41  42
INPUT-LIGAND-PDBQT: ATOM     42  C27 UNL     1      -3.298  -4.170   4.392  0.00  0.00    -0.027 A 
INPUT-LIGAND-PDBQT: ATOM     43  C28 UNL     1      -2.744  -5.445   4.681  0.00  0.00    +0.009 A 
INPUT-LIGAND-PDBQT: ATOM     44  C29 UNL     1      -2.916  -6.527   3.810  0.00  0.00    +0.050 A 
INPUT-LIGAND-PDBQT: ATOM     45  C30 UNL     1      -3.644  -6.316   2.661  0.00  0.00    +0.166 A 
INPUT-LIGAND-PDBQT: ATOM     46  C31 UNL     1      -4.187  -5.087   2.371  0.00  0.00    +0.167 A 
INPUT-LIGAND-PDBQT: ATOM     47  C32 UNL     1      -4.028  -3.997   3.203  0.00  0.00    +0.054 A 
INPUT-LIGAND-PDBQT: ATOM     48  O8  UNL     1      -4.889  -5.096   1.207  0.00  0.00    -0.453 OA
INPUT-LIGAND-PDBQT: ATOM     49  C33 UNL     1      -4.694  -6.458   0.780  0.00  0.00    +0.466 C 
INPUT-LIGAND-PDBQT: ATOM     50  O9  UNL     1      -3.923  -7.246   1.711  0.00  0.00    -0.453 OA
INPUT-LIGAND-PDBQT: ENDBRANCH  41  42
INPUT-LIGAND-PDBQT: ENDBRANCH  39  41
INPUT-LIGAND-PDBQT: ENDBRANCH  36  37
INPUT-LIGAND-PDBQT: BRANCH  36  51
INPUT-LIGAND-PDBQT: ATOM     51  C34 UNL     1      -4.191   1.334   5.255  0.00  0.00    +0.012 C 
INPUT-LIGAND-PDBQT: ATOM     52  C35 UNL     1      -2.894   2.012   5.704  0.00  0.00    +0.009 C 
INPUT-LIGAND-PDBQT: ATOM     53  C36 UNL     1      -5.258   2.394   4.967  0.00  0.00    +0.009 C 
INPUT-LIGAND-PDBQT: ENDBRANCH  36  51
INPUT-LIGAND-PDBQT: ENDBRANCH  34  36
INPUT-LIGAND-PDBQT: ENDBRANCH  31  32
INPUT-LIGAND-PDBQT: ENDBRANCH  28  31
INPUT-LIGAND-PDBQT: ENDBRANCH   1  28
INPUT-LIGAND-PDBQT: BRANCH   1  54
INPUT-LIGAND-PDBQT: ATOM     54  C17 UNL     1      -3.364  -1.758  -0.672  0.00  0.00    +0.028 C 
INPUT-LIGAND-PDBQT: BRANCH  54  55
INPUT-LIGAND-PDBQT: ATOM     55  C18 UNL     1      -3.195  -3.149  -1.324  0.00  0.00    -0.015 C 
INPUT-LIGAND-PDBQT: ATOM     56  C19 UNL     1      -3.665  -3.192  -2.777  0.00  0.00    +0.007 C 
INPUT-LIGAND-PDBQT: ATOM     57  C20 UNL     1      -1.784  -3.719  -1.195  0.00  0.00    +0.007 C 
INPUT-LIGAND-PDBQT: ENDBRANCH  54  55
INPUT-LIGAND-PDBQT: ENDBRANCH   1  54
INPUT-LIGAND-PDBQT: TORSDOF 22


    FINAL DOCKED STATE:
    ________________________


Run:   1 / 20
Time taken for this run:   1.805s

DOCKED: MODEL        1
DOCKED: USER    Run = 1
DOCKED: USER
DOCKED: USER    Estimated Free Energy of Binding    =  +6.56 kcal/mol  [=(1)+(2)+(3)-(4)]
DOCKED: USER
DOCKED: USER    (1) Final Intermolecular Energy     =  +0.00 kcal/mol
DOCKED: USER        vdW + Hbond + desolv Energy     =  +0.00 kcal/mol
DOCKED: USER        Electrostatic Energy            =  +0.00 kcal/mol
DOCKED: USER        Moving Ligand-Fixed Receptor    =  +0.00 kcal/mol
DOCKED: USER        Moving Ligand-Moving Receptor   =  +0.00 kcal/mol
DOCKED: USER    (2) Final Total Internal Energy     = -14.49 kcal/mol
DOCKED: USER    (3) Torsional Free Energy           =  +6.56 kcal/mol
DOCKED: USER    (4) Unbound System's Energy         = -14.49 kcal/mol
DOCKED: USER
DOCKED: USER
DOCKED: REMARK  Name = ligands/ligand_25.pdb
DOCKED: REMARK  32 active torsions:
DOCKED: REMARK  status: ('A' for Active; 'I' for Inactive)
DOCKED: REMARK    1  A    between atoms: C1_1  and  S1_2
DOCKED: REMARK    2  A    between atoms: S1_2  and  C2_3
DOCKED: REMARK    3  A    between atoms: C2_3  and  C3_4
DOCKED: REMARK    4  A    between atoms: C3_4  and  C4_5
DOCKED: REMARK    5  A    between atoms: C4_5  and  N1_6
DOCKED: REMARK    6  A    between atoms: C4_5  and  C15_21
DOCKED: REMARK    7  A    between atoms: C5_7  and  C6_9
DOCKED: REMARK    8  A    between atoms: C6_9  and  N2_10
DOCKED: REMARK    9  A    between atoms: C6_9  and  C12_18
DOCKED: REMARK   10  A    between atoms: C7_11  and  O3_13
DOCKED: REMARK   11  A    between atoms: O3_13  and  C8_14
DOCKED: REMARK   12  A    between atoms: C8_14  and  C9_15
DOCKED: REMARK   13  A    between atoms: C8_14  and  C10_16
DOCKED: REMARK   14  A    between atoms: C8_14  and  C11_17
DOCKED: REMARK   15  A    between atoms: C12_18  and  C13_19
DOCKED: REMARK   16  A    between atoms: C12_18  and  C14_20
DOCKED: REMARK   17  A    between atoms: N3_23  and  C16_24
DOCKED: REMARK   18  A    between atoms: C16_24  and  C17_25
DOCKED: REMARK   19  A    between atoms: C16_24  and  C21_29
DOCKED: REMARK   20  A    between atoms: C17_25  and  C18_26
DOCKED: REMARK   21  A    between atoms: C18_26  and  C19_27
DOCKED: REMARK   22  A    between atoms: C18_26  and  C20_28
DOCKED: REMARK   23  A    between atoms: C21_29  and  O5_30
DOCKED: REMARK   24  A    between atoms: C21_29  and  C22_31
DOCKED: REMARK   25  A    between atoms: C22_31  and  C23_32
DOCKED: REMARK   26  A    between atoms: N4_34  and  C24_35
DOCKED: REMARK   27  A    between atoms: C24_35  and  C25_36
DOCKED: REMARK   28  A    between atoms: C24_35  and  C34_49
DOCKED: REMARK   29  A    between atoms: N5_38  and  C26_39
DOCKED: REMARK   30  A    between atoms: C26_39  and  C27_40
DOCKED: REMARK   31  A    between atoms: C34_49  and  C35_50
DOCKED: REMARK   32  A    between atoms: C34_49  and  C36_51
DOCKED: REMARK                            x       y       z     vdW  Elec       q    Type
DOCKED: REMARK                         _______ _______ _______ _____ _____    ______ ____
DOCKED: USER                              x       y       z     vdW  Elec       q    Type
DOCKED: USER                           _______ _______ _______ _____ _____    ______ ____
DOCKED: ROOT
DOCKED: ATOM      1  C16 UNL     1      13.807   0.126   0.936 +0.00 +0.00    +0.102 C  
DOCKED: ENDROOT
DOCKED: BRANCH   1   4
DOCKED: ATOM      2  C15 UNL     1      15.383  -0.399   2.784 +0.00 +0.00    +0.234 C  
DOCKED: ATOM      3  O4  UNL     1      16.284  -0.729   2.011 +0.00 -0.00    -0.274 OA 
DOCKED: ATOM      4  N3  UNL     1      14.138  -0.003   2.352 +0.00 -0.00    -0.308 N  
DOCKED: ATOM      5  H28 UNL     1      13.471   0.351   3.037 +0.00 +0.00    +0.149 HD 
DOCKED: BRANCH   2   6
DOCKED: ATOM      6  C4  UNL     1      15.585  -0.397   4.317 +0.00 +0.00    +0.160 C  
DOCKED: BRANCH   6   7
DOCKED: ATOM      7  N1  UNL     1      14.870   0.769   4.828 +0.00 -0.00    -0.302 N  
DOCKED: ATOM      8  C5  UNL     1      15.066   2.041   4.346 +0.00 +0.00    +0.234 C  
DOCKED: ATOM      9  O1  UNL     1      15.890   2.297   3.468 +0.00 -0.00    -0.274 OA 
DOCKED: ATOM     10  H9  UNL     1      14.264   0.607   5.632 +0.00 +0.00    +0.150 HD 
DOCKED: BRANCH   8  11
DOCKED: ATOM     11  C6  UNL     1      14.180   3.121   5.004 +0.00 +0.00    +0.165 C  
DOCKED: BRANCH  11  12
DOCKED: ATOM     12  N2  UNL     1      12.902   3.122   4.304 +0.00 -0.00    -0.270 N  
DOCKED: ATOM     13  C7  UNL     1      12.067   2.048   4.384 +0.00 +0.00    +0.401 C  
DOCKED: ATOM     14  O2  UNL     1      12.373   0.955   4.823 +0.00 -0.00    -0.226 OA 
DOCKED: ATOM     15  H11 UNL     1      12.420   4.005   4.190 +0.00 +0.00    +0.153 HD 
DOCKED: BRANCH  13  16
DOCKED: ATOM     16  O3  UNL     1      10.848   2.406   3.921 +0.00 -0.00    -0.445 OA 
DOCKED: BRANCH  16  17
DOCKED: ATOM     17  C8  UNL     1       9.699   2.426   4.810 +0.00 +0.00    +0.107 C  
DOCKED: ATOM     18  C9  UNL     1       8.512   3.173   4.188 +0.00 +0.00    +0.055 C  
DOCKED: ATOM     19  C10 UNL     1      10.075   2.995   6.183 +0.00 +0.00    +0.055 C  
DOCKED: ATOM     20  C11 UNL     1       9.313   0.950   4.975 +0.00 +0.00    +0.055 C  
DOCKED: ENDBRANCH  16  17
DOCKED: ENDBRANCH  13  16
DOCKED: ENDBRANCH  11  12
DOCKED: BRANCH  11  21
DOCKED: ATOM     21  C12 UNL     1      13.993   2.912   6.523 +0.00 +0.00    +0.012 C  
DOCKED: ATOM     22  C13 UNL     1      15.298   2.741   7.308 +0.00 +0.00    +0.009 C  
DOCKED: ATOM     23  C14 UNL     1      13.163   4.041   7.138 +0.00 +0.00    +0.009 C  
DOCKED: ENDBRANCH  11  21
DOCKED: ENDBRANCH   8  11
DOCKED: ENDBRANCH   6   7
DOCKED: BRANCH   6  24
DOCKED: ATOM     24  C3  UNL     1      15.079  -1.706   4.953 +0.00 +0.00    +0.042 C  
DOCKED: BRANCH  24  25
DOCKED: ATOM     25  C2  UNL     1      13.557  -1.745   5.090 +0.00 +0.00    +0.071 C  
DOCKED: BRANCH  25  27
DOCKED: ATOM     26  C1  UNL     1      11.293  -1.625   3.513 +0.00 +0.00    +0.084 C  
DOCKED: ATOM     27  S1  UNL     1      12.792  -2.630   3.692 +0.00 -0.00    -0.164 S  
DOCKED: ENDBRANCH  25  27
DOCKED: ENDBRANCH  24  25
DOCKED: ENDBRANCH   6  24
DOCKED: ENDBRANCH   2   6
DOCKED: ENDBRANCH   1   4
DOCKED: BRANCH   1  28
DOCKED: ATOM     28  C21 UNL     1      14.684   1.223   0.258 +0.00 +0.00    +0.143 C  
DOCKED: BRANCH  28  29
DOCKED: ATOM     29  O5  UNL     1      15.016   2.281   1.159 +0.00 -0.00    -0.389 OA 
DOCKED: ATOM     30  H40 UNL     1      15.384   1.881   1.966 +0.00 +0.00    +0.210 HD 
DOCKED: ENDBRANCH  28  29
DOCKED: BRANCH  28  31
DOCKED: ATOM     31  C22 UNL     1      15.927   0.750  -0.504 +0.00 +0.00    +0.129 C  
DOCKED: BRANCH  31  32
DOCKED: ATOM     32  C23 UNL     1      17.235   1.480  -0.252 +0.00 +0.00    +0.216 C  
DOCKED: ATOM     33  O6  UNL     1      17.914   2.035  -1.104 +0.00 -0.00    -0.276 OA 
DOCKED: ATOM     34  N4  UNL     1      17.613   1.442   1.084 +0.00 -0.00    -0.304 N  
DOCKED: ATOM     35  H43 UNL     1      16.852   1.342   1.744 +0.00 +0.00    +0.149 HD 
DOCKED: BRANCH  34  36
DOCKED: ATOM     36  C24 UNL     1      18.724   2.275   1.535 +0.00 +0.00    +0.161 C  
DOCKED: BRANCH  36  37
DOCKED: ATOM     37  C25 UNL     1      18.320   3.748   1.322 +0.00 +0.00    +0.234 C  
DOCKED: ATOM     38  O7  UNL     1      19.154   4.642   1.157 +0.00 -0.00    -0.274 OA 
DOCKED: ATOM     39  N5  UNL     1      16.958   3.966   1.284 +0.00 -0.00    -0.310 N  
DOCKED: ATOM     40  H45 UNL     1      16.338   3.234   1.603 +0.00 +0.00    +0.149 HD 
DOCKED: BRANCH  39  41
DOCKED: ATOM     41  C26 UNL     1      16.415   5.304   1.210 +0.00 +0.00    +0.139 C  
DOCKED: BRANCH  41  42
DOCKED: ATOM     42  C27 UNL     1      15.199   5.542   2.075 +0.00 -0.00    -0.027 A  
DOCKED: ATOM     43  C28 UNL     1      15.384   6.244   3.296 +0.00 +0.00    +0.009 A  
DOCKED: ATOM     44  C29 UNL     1      14.311   6.501   4.157 +0.00 +0.00    +0.050 A  
DOCKED: ATOM     45  C30 UNL     1      13.066   6.051   3.781 +0.00 +0.00    +0.166 A  
DOCKED: ATOM     46  C31 UNL     1      12.873   5.372   2.602 +0.00 +0.00    +0.167 A  
DOCKED: ATOM     47  C32 UNL     1      13.911   5.094   1.735 +0.00 +0.00    +0.054 A  
DOCKED: ATOM     48  O8  UNL     1      11.570   5.040   2.405 +0.00 -0.00    -0.453 OA 
DOCKED: ATOM     49  C33 UNL     1      10.972   5.554   3.611 +0.00 +0.00    +0.466 C  
DOCKED: ATOM     50  O9  UNL     1      11.913   6.218   4.480 +0.00 -0.00    -0.453 OA 
DOCKED: ENDBRANCH  41  42
DOCKED: ENDBRANCH  39  41
DOCKED: ENDBRANCH  36  37
DOCKED: BRANCH  36  51
DOCKED: ATOM     51  C34 UNL     1      19.124   2.014   3.004 +0.00 +0.00    +0.012 C  
DOCKED: ATOM     52  C35 UNL     1      18.633   3.092   3.973 +0.00 +0.00    +0.009 C  
DOCKED: ATOM     53  C36 UNL     1      18.635   0.638   3.466 +0.00 +0.00    +0.009 C  
DOCKED: ENDBRANCH  36  51
DOCKED: ENDBRANCH  34  36
DOCKED: ENDBRANCH  31  32
DOCKED: ENDBRANCH  28  31
DOCKED: ENDBRANCH   1  28
DOCKED: BRANCH   1  54
DOCKED: ATOM     54  C17 UNL     1      12.291   0.284   0.721 +0.00 +0.00    +0.028 C  
DOCKED: BRANCH  54  55
DOCKED: ATOM     55  C18 UNL     1      11.668   1.649   1.092 +0.00 -0.00    -0.015 C  
DOCKED: ATOM     56  C19 UNL     1      12.041   2.764   0.116 +0.00 +0.00    +0.007 C  
DOCKED: ATOM     57  C20 UNL     1      10.156   1.596   1.301 +0.00 +0.00    +0.007 C  
DOCKED: ENDBRANCH  54  55
DOCKED: ENDBRANCH   1  54
DOCKED: TORSDOF 22
DOCKED: TER
DOCKED: ENDMDL
________________________________________________________________________________


    FINAL DOCKED STATE:
    ________________________


Run:   2 / 20
Time taken for this run:   1.805s

DOCKED: MODEL        2
DOCKED: USER    Run = 2
DOCKED: USER
DOCKED: USER    Estimated Free Energy of Binding    =  +6.56 kcal/mol  [=(1)+(2)+(3)-(4)]
DOCKED: USER
DOCKED: USER    (1) Final Intermolecular Energy     =  +0.00 kcal/mol
DOCKED: USER        vdW + Hbond + desolv Energy     =  +0.00 kcal/mol
DOCKED: USER        Electrostatic Energy            =  +0.00 kcal/mol
DOCKED: USER        Moving Ligand-Fixed Receptor    =  +0.00 kcal/mol
DOCKED: USER        Moving Ligand-Moving Receptor   =  +0.00 kcal/mol
DOCKED: USER    (2) Final Total Internal Energy     = -14.41 kcal/mol
DOCKED: USER    (3) Torsional Free Energy           =  +6.56 kcal/mol
DOCKED: USER    (4) Unbound System's Energy         = -14.41 kcal/mol
DOCKED: USER
DOCKED: USER
DOCKED: REMARK  Name = ligands/ligand_25.pdb
DOCKED: REMARK  32 active torsions:
DOCKED: REMARK  status: ('A' for Active; 'I' for Inactive)
DOCKED: REMARK    1  A    between atoms: C1_1  and  S1_2
DOCKED: REMARK    2  A    between atoms: S1_2  and  C2_3
DOCKED: REMARK    3  A    between atoms: C2_3  and  C3_4
DOCKED: REMARK    4  A    between atoms: C3_4  and  C4_5
DOCKED: REMARK    5  A    between atoms: C4_5  and  N1_6
DOCKED: REMARK    6  A    between atoms: C4_5  and  C15_21
DOCKED: REMARK    7  A    between atoms: C5_7  and  C6_9
DOCKED: REMARK    8  A    between atoms: C6_9  and  N2_10
DOCKED: REMARK    9  A    between atoms: C6_9  and  C12_18
DOCKED: REMARK   10  A    between atoms: C7_11  and  O3_13
DOCKED: REMARK   11  A    between atoms: O3_13  and  C8_14
DOCKED: REMARK   12  A    between atoms: C8_14  and  C9_15
DOCKED: REMARK   13  A    between atoms: C8_14  and  C10_16
DOCKED: REMARK   14  A    between atoms: C8_14  and  C11_17
DOCKED: REMARK   15  A    between atoms: C12_18  and  C13_19
DOCKED: REMARK   16  A    between atoms: C12_18  and  C14_20
DOCKED: REMARK   17  A    between atoms: N3_23  and  C16_24
DOCKED: REMARK   18  A    between atoms: C16_24  and  C17_25
DOCKED: REMARK   19  A    between atoms: C16_24  and  C21_29
DOCKED: REMARK   20  A    between atoms: C17_25  and  C18_26
DOCKED: REMARK   21  A    between atoms: C18_26  and  C19_27
DOCKED: REMARK   22  A    between atoms: C18_26  and  C20_28
DOCKED: REMARK   23  A    between atoms: C21_29  and  O5_30
DOCKED: REMARK   24  A    between atoms: C21_29  and  C22_31
DOCKED: REMARK   25  A    between atoms: C22_31  and  C23_32
DOCKED: REMARK   26  A    between atoms: N4_34  and  C24_35
DOCKED: REMARK   27  A    between atoms: C24_35  and  C25_36
DOCKED: REMARK   28  A    between atoms: C24_35  and  C34_49
DOCKED: REMARK   29  A    between atoms: N5_38  and  C26_39
DOCKED: REMARK   30  A    between atoms: C26_39  and  C27_40
DOCKED: REMARK   31  A    between atoms: C34_49  and  C35_50
DOCKED: REMARK   32  A    between atoms: C34_49  and  C36_51
DOCKED: REMARK                            x       y       z     vdW  Elec       q    Type
DOCKED: REMARK                         _______ _______ _______ _____ _____    ______ ____
DOCKED: USER                              x       y       z     vdW  Elec       q    Type
DOCKED: USER                           _______ _______ _______ _____ _____    ______ ____
DOCKED: ROOT
DOCKED: ATOM      1  C16 UNL     1      13.983  -5.248   3.909 +0.00 +0.00    +0.102 C  
DOCKED: ENDROOT
DOCKED: BRANCH   1   4
DOCKED: ATOM      2  C15 UNL     1      13.180  -7.434   3.042 +0.00 +0.00    +0.234 C  
DOCKED: ATOM      3  O4  UNL     1      14.244  -7.672   2.468 +0.00 -0.00    -0.274 OA 
DOCKED: ATOM      4  N3  UNL     1      12.953  -6.267   3.737 +0.00 -0.00    -0.308 N  
DOCKED: ATOM      5  H28 UNL     1      12.090  -6.175   4.272 +0.00 +0.00    +0.149 HD 
DOCKED: BRANCH   2   6
DOCKED: ATOM      6  C4  UNL     1      12.006  -8.440   3.033 +0.00 +0.00    +0.160 C  
DOCKED: BRANCH   6   7
DOCKED: ATOM      7  N1  UNL     1      11.498  -8.497   4.402 +0.00 -0.00    -0.302 N  
DOCKED: ATOM      8  C5  UNL     1      10.573  -7.610   4.898 +0.00 +0.00    +0.234 C  
DOCKED: ATOM      9  O1  UNL     1      10.130  -6.674   4.232 +0.00 -0.00    -0.274 OA 
DOCKED: ATOM     10  H9  UNL     1      11.930  -9.191   5.011 +0.00 +0.00    +0.150 HD 
DOCKED: BRANCH   8  11
DOCKED: ATOM     11  C6  UNL     1      10.148  -7.875   6.357 +0.00 +0.00    +0.165 C  
DOCKED: BRANCH  11  12
DOCKED: ATOM     12  N2  UNL     1      11.362  -8.082   7.136 +0.00 -0.00    -0.270 N  
DOCKED: ATOM     13  C7  UNL     1      12.341  -7.135   7.156 +0.00 +0.00    +0.401 C  
DOCKED: ATOM     14  O2  UNL     1      12.412  -6.185   6.398 +0.00 -0.00    -0.226 OA 
DOCKED: ATOM     15  H11 UNL     1      11.295  -8.618   7.992 +0.00 +0.00    +0.153 HD 
DOCKED: BRANCH  13  16
DOCKED: ATOM     16  O3  UNL     1      13.198  -7.412   8.165 +0.00 -0.00    -0.445 OA 
DOCKED: BRANCH  16  17
DOCKED: ATOM     17  C8  UNL     1      13.709  -6.348   9.011 +0.00 +0.00    +0.107 C  
DOCKED: ATOM     18  C9  UNL     1      12.672  -5.236   9.216 +0.00 +0.00    +0.055 C  
DOCKED: ATOM     19  C10 UNL     1      15.033  -5.800   8.466 +0.00 +0.00    +0.055 C  
DOCKED: ATOM     20  C11 UNL     1      13.972  -7.022  10.364 +0.00 +0.00    +0.055 C  
DOCKED: ENDBRANCH  16  17
DOCKED: ENDBRANCH  13  16
DOCKED: ENDBRANCH  11  12
DOCKED: BRANCH  11  21
DOCKED: ATOM     21  C12 UNL     1       9.280  -6.744   6.953 +0.00 +0.00    +0.012 C  
DOCKED: ATOM     22  C13 UNL     1       7.860  -6.662   6.380 +0.00 +0.00    +0.009 C  
DOCKED: ATOM     23  C14 UNL     1       9.217  -6.841   8.479 +0.00 +0.00    +0.009 C  
DOCKED: ENDBRANCH  11  21
DOCKED: ENDBRANCH   8  11
DOCKED: ENDBRANCH   6   7
DOCKED: BRANCH   6  24
DOCKED: ATOM     24  C3  UNL     1      10.914  -8.021   2.032 +0.00 +0.00    +0.042 C  
DOCKED: BRANCH  24  25
DOCKED: ATOM     25  C2  UNL     1      11.466  -7.204   0.863 +0.00 +0.00    +0.071 C  
DOCKED: BRANCH  25  27
DOCKED: ATOM     26  C1  UNL     1      12.720  -4.759   0.589 +0.00 +0.00    +0.084 C  
DOCKED: ATOM     27  S1  UNL     1      11.105  -5.430   1.071 +0.00 -0.00    -0.164 S  
DOCKED: ENDBRANCH  25  27
DOCKED: ENDBRANCH  24  25
DOCKED: ENDBRANCH   6  24
DOCKED: ENDBRANCH   2   6
DOCKED: ENDBRANCH   1   4
DOCKED: BRANCH   1  28
DOCKED: ATOM     28  C21 UNL     1      14.901  -5.585   5.125 +0.00 +0.00    +0.143 C  
DOCKED: BRANCH  28  29
DOCKED: ATOM     29  O5  UNL     1      14.894  -6.979   5.435 +0.00 -0.00    -0.389 OA 
DOCKED: ATOM     30  H40 UNL     1      14.360  -7.102   6.240 +0.00 +0.00    +0.210 HD 
DOCKED: ENDBRANCH  28  29
DOCKED: BRANCH  28  31
DOCKED: ATOM     31  C22 UNL     1      16.334  -5.044   5.087 +0.00 +0.00    +0.129 C  
DOCKED: BRANCH  31  32
DOCKED: ATOM     32  C23 UNL     1      17.299  -5.659   4.088 +0.00 +0.00    +0.216 C  
DOCKED: ATOM     33  O6  UNL     1      18.511  -5.493   4.077 +0.00 -0.00    -0.276 OA 
DOCKED: ATOM     34  N4  UNL     1      16.653  -6.442   3.141 +0.00 -0.00    -0.304 N  
DOCKED: ATOM     35  H43 UNL     1      15.773  -6.845   3.443 +0.00 +0.00    +0.149 HD 
DOCKED: BRANCH  34  36
DOCKED: ATOM     36  C24 UNL     1      17.445  -7.278   2.245 +0.00 +0.00    +0.161 C  
DOCKED: BRANCH  36  37
DOCKED: ATOM     37  C25 UNL     1      17.447  -8.709   2.820 +0.00 +0.00    +0.234 C  
DOCKED: ATOM     38  O7  UNL     1      18.264  -9.562   2.462 +0.00 -0.00    -0.274 OA 
DOCKED: ATOM     39  N5  UNL     1      16.498  -8.933   3.796 +0.00 -0.00    -0.310 N  
DOCKED: ATOM     40  H45 UNL     1      15.752  -8.260   3.913 +0.00 +0.00    +0.149 HD 
DOCKED: BRANCH  39  41
DOCKED: ATOM     41  C26 UNL     1      16.291 -10.251   4.352 +0.00 +0.00    +0.139 C  
DOCKED: BRANCH  41  42
DOCKED: ATOM     42  C27 UNL     1      15.195 -10.335   5.390 +0.00 -0.00    -0.027 A  
DOCKED: ATOM     43  C28 UNL     1      15.524  -9.992   6.728 +0.00 +0.00    +0.009 A  
DOCKED: ATOM     44  C29 UNL     1      14.569 -10.048   7.749 +0.00 +0.00    +0.050 A  
DOCKED: ATOM     45  C30 UNL     1      13.295 -10.446   7.414 +0.00 +0.00    +0.166 A  
DOCKED: ATOM     46  C31 UNL     1      12.963 -10.779   6.122 +0.00 +0.00    +0.167 A  
DOCKED: ATOM     47  C32 UNL     1      13.883 -10.743   5.094 +0.00 +0.00    +0.054 A  
DOCKED: ATOM     48  O8  UNL     1      11.652 -11.117   5.998 +0.00 -0.00    -0.453 OA 
DOCKED: ATOM     49  C33 UNL     1      11.208 -10.996   7.363 +0.00 +0.00    +0.466 C  
DOCKED: ATOM     50  O9  UNL     1      12.241 -10.547   8.265 +0.00 -0.00    -0.453 OA 
DOCKED: ENDBRANCH  41  42
DOCKED: ENDBRANCH  39  41
DOCKED: ENDBRANCH  36  37
DOCKED: BRANCH  36  51
DOCKED: ATOM     51  C34 UNL     1      16.934  -7.265   0.787 +0.00 +0.00    +0.012 C  
DOCKED: ATOM     52  C35 UNL     1      16.205  -8.549   0.383 +0.00 +0.00    +0.009 C  
DOCKED: ATOM     53  C36 UNL     1      16.031  -6.054   0.537 +0.00 +0.00    +0.009 C  
DOCKED: ENDBRANCH  36  51
DOCKED: ENDBRANCH  34  36
DOCKED: ENDBRANCH  31  32
DOCKED: ENDBRANCH  28  31
DOCKED: ENDBRANCH   1  28
DOCKED: BRANCH   1  54
DOCKED: ATOM     54  C17 UNL     1      13.380  -3.832   3.925 +0.00 +0.00    +0.028 C  
DOCKED: BRANCH  54  55
DOCKED: ATOM     55  C18 UNL     1      11.976  -3.674   4.550 +0.00 -0.00    -0.015 C  
DOCKED: ATOM     56  C19 UNL     1      12.013  -3.165   5.990 +0.00 +0.00    +0.007 C  
DOCKED: ATOM     57  C20 UNL     1      11.020  -2.835   3.705 +0.00 +0.00    +0.007 C  
DOCKED: ENDBRANCH  54  55
DOCKED: ENDBRANCH   1  54
DOCKED: TORSDOF 22
DOCKED: TER
DOCKED: ENDMDL
________________________________________________________________________________


    FINAL DOCKED STATE:
    ________________________


Run:   3 / 20
Time taken for this run:   1.805s

DOCKED: MODEL        3
DOCKED: USER    Run = 3
DOCKED: USER
DOCKED: USER    Estimated Free Energy of Binding    =  +6.56 kcal/mol  [=(1)+(2)+(3)-(4)]
DOCKED: USER
DOCKED: USER    (1) Final Intermolecular Energy     =  +0.00 kcal/mol
DOCKED: USER        vdW + Hbond + desolv Energy     =  +0.00 kcal/mol
DOCKED: USER        Electrostatic Energy            =  +0.00 kcal/mol
DOCKED: USER        Moving Ligand-Fixed Receptor    =  +0.00 kcal/mol
DOCKED: USER        Moving Ligand-Moving Receptor   =  +0.00 kcal/mol
DOCKED: USER    (2) Final Total Internal Energy     = -14.35 kcal/mol
DOCKED: USER    (3) Torsional Free Energy           =  +6.56 kcal/mol
DOCKED: USER    (4) Unbound System's Energy         = -14.35 kcal/mol
DOCKED: USER
DOCKED: USER
DOCKED: REMARK  Name = ligands/ligand_25.pdb
DOCKED: REMARK  32 active torsions:
DOCKED: REMARK  status: ('A' for Active; 'I' for Inactive)
DOCKED: REMARK    1  A    between atoms: C1_1  and  S1_2
DOCKED: REMARK    2  A    between atoms: S1_2  and  C2_3
DOCKED: REMARK    3  A    between atoms: C2_3  and  C3_4
DOCKED: REMARK    4  A    between atoms: C3_4  and  C4_5
DOCKED: REMARK    5  A    between atoms: C4_5  and  N1_6
DOCKED: REMARK    6  A    between atoms: C4_5  and  C15_21
DOCKED: REMARK    7  A    between atoms: C5_7  and  C6_9
DOCKED: REMARK    8  A    between atoms: C6_9  and  N2_10
DOCKED: REMARK    9  A    between atoms: C6_9  and  C12_18
DOCKED: REMARK   10  A    between atoms: C7_11  and  O3_13
DOCKED: REMARK   11  A    between atoms: O3_13  and  C8_14
DOCKED: REMARK   12  A    between atoms: C8_14  and  C9_15
DOCKED: REMARK   13  A    between atoms: C8_14  and  C10_16
DOCKED: REMARK   14  A    between atoms: C8_14  and  C11_17
DOCKED: REMARK   15  A    between atoms: C12_18  and  C13_19
DOCKED: REMARK   16  A    between atoms: C12_18  and  C14_20
DOCKED: REMARK   17  A    between atoms: N3_23  and  C16_24
DOCKED: REMARK   18  A    between atoms: C16_24  and  C17_25
DOCKED: REMARK   19  A    between atoms: C16_24  and  C21_29
DOCKED: REMARK   20  A    between atoms: C17_25  and  C18_26
DOCKED: REMARK   21  A    between atoms: C18_26  and  C19_27
DOCKED: REMARK   22  A    between atoms: C18_26  and  C20_28
DOCKED: REMARK   23  A    between atoms: C21_29  and  O5_30
DOCKED: REMARK   24  A    between atoms: C21_29  and  C22_31
DOCKED: REMARK   25  A    between atoms: C22_31  and  C23_32
DOCKED: REMARK   26  A    between atoms: N4_34  and  C24_35
DOCKED: REMARK   27  A    between atoms: C24_35  and  C25_36
DOCKED: REMARK   28  A    between atoms: C24_35  and  C34_49
DOCKED: REMARK   29  A    between atoms: N5_38  and  C26_39
DOCKED: REMARK   30  A    between atoms: C26_39  and  C27_40
DOCKED: REMARK   31  A    between atoms: C34_49  and  C35_50
DOCKED: REMARK   32  A    between atoms: C34_49  and  C36_51
DOCKED: REMARK                            x       y       z     vdW  Elec       q    Type
DOCKED: REMARK                         _______ _______ _______ _____ _____    ______ ____
DOCKED: USER                              x       y       z     vdW  Elec       q    Type
DOCKED: USER                           _______ _______ _______ _____ _____    ______ ____
DOCKED: ROOT
DOCKED: ATOM      1  C16 UNL     1      13.598  -1.469   5.538 +0.00 +0.00    +0.102 C  
DOCKED: ENDROOT
DOCKED: BRANCH   1   4
DOCKED: ATOM      2  C15 UNL     1      11.311  -0.815   6.259 +0.00 +0.00    +0.234 C  
DOCKED: ATOM      3  O4  UNL     1      11.448  -1.319   7.375 +0.00 -0.00    -0.274 OA 
DOCKED: ATOM      4  N3  UNL     1      12.290  -0.870   5.292 +0.00 -0.00    -0.308 N  
DOCKED: ATOM      5  H28 UNL     1      12.154  -0.349   4.427 +0.00 +0.00    +0.149 HD 
DOCKED: BRANCH   2   6
DOCKED: ATOM      6  C4  UNL     1      10.020  -0.068   5.854 +0.00 +0.00    +0.160 C  
DOCKED: BRANCH   6   7
DOCKED: ATOM      7  N1  UNL     1       9.775  -0.393   4.451 +0.00 -0.00    -0.302 N  
DOCKED: ATOM      8  C5  UNL     1       9.324  -1.622   4.032 +0.00 +0.00    +0.234 C  
DOCKED: ATOM      9  O1  UNL     1       9.128  -2.556   4.810 +0.00 -0.00    -0.274 OA 
DOCKED: ATOM     10  H9  UNL     1      10.036   0.322   3.773 +0.00 +0.00    +0.150 HD 
DOCKED: BRANCH   8  11
DOCKED: ATOM     11  C6  UNL     1       9.098  -1.738   2.510 +0.00 +0.00    +0.165 C  
DOCKED: BRANCH  11  12
DOCKED: ATOM     12  N2  UNL     1      10.340  -2.218   1.919 +0.00 -0.00    -0.270 N  
DOCKED: ATOM     13  C7  UNL     1      11.482  -1.479   2.009 +0.00 +0.00    +0.401 C  
DOCKED: ATOM     14  O2  UNL     1      11.535  -0.315   2.362 +0.00 -0.00    -0.226 OA 
DOCKED: ATOM     15  H11 UNL     1      10.503  -3.217   1.893 +0.00 +0.00    +0.153 HD 
DOCKED: BRANCH  13  16
DOCKED: ATOM     16  O3  UNL     1      12.535  -2.255   1.668 +0.00 -0.00    -0.445 OA 
DOCKED: BRANCH  16  17
DOCKED: ATOM     17  C8  UNL     1      13.232  -2.041   0.413 +0.00 +0.00    +0.107 C  
DOCKED: ATOM     18  C9  UNL     1      13.739  -0.599   0.283 +0.00 +0.00    +0.055 C  
DOCKED: ATOM     19  C10 UNL     1      12.358  -2.448  -0.780 +0.00 +0.00    +0.055 C  
DOCKED: ATOM     20  C11 UNL     1      14.444  -2.979   0.479 +0.00 +0.00    +0.055 C  
DOCKED: ENDBRANCH  16  17
DOCKED: ENDBRANCH  13  16
DOCKED: ENDBRANCH  11  12
DOCKED: BRANCH  11  21
DOCKED: ATOM     21  C12 UNL     1       7.907  -2.651   2.140 +0.00 +0.00    +0.012 C  
DOCKED: ATOM     22  C13 UNL     1       6.567  -1.920   1.994 +0.00 +0.00    +0.009 C  
DOCKED: ATOM     23  C14 UNL     1       8.199  -3.454   0.870 +0.00 +0.00    +0.009 C  
DOCKED: ENDBRANCH  11  21
DOCKED: ENDBRANCH   8  11
DOCKED: ENDBRANCH   6   7
DOCKED: BRANCH   6  24
DOCKED: ATOM     24  C3  UNL     1       8.834  -0.466   6.752 +0.00 +0.00    +0.042 C  
DOCKED: BRANCH  24  25
DOCKED: ATOM     25  C2  UNL     1       7.740   0.601   6.792 +0.00 +0.00    +0.071 C  
DOCKED: BRANCH  25  27
DOCKED: ATOM     26  C1  UNL     1       7.258   1.626   4.274 +0.00 +0.00    +0.084 C  
DOCKED: ATOM     27  S1  UNL     1       8.190   2.044   5.773 +0.00 -0.00    -0.164 S  
DOCKED: ENDBRANCH  25  27
DOCKED: ENDBRANCH  24  25
DOCKED: ENDBRANCH   6  24
DOCKED: ENDBRANCH   2   6
DOCKED: ENDBRANCH   1   4
DOCKED: BRANCH   1  28
DOCKED: ATOM     28  C21 UNL     1      14.673  -0.871   4.578 +0.00 +0.00    +0.143 C  
DOCKED: BRANCH  28  29
DOCKED: ATOM     29  O5  UNL     1      14.108  -0.437   3.341 +0.00 -0.00    -0.389 OA 
DOCKED: ATOM     30  H40 UNL     1      13.426  -1.082   3.081 +0.00 +0.00    +0.210 HD 
DOCKED: ENDBRANCH  28  29
DOCKED: BRANCH  28  31
DOCKED: ATOM     31  C22 UNL     1      15.605   0.199   5.155 +0.00 +0.00    +0.129 C  
DOCKED: BRANCH  31  32
DOCKED: ATOM     32  C23 UNL     1      15.079   1.621   5.251 +0.00 +0.00    +0.216 C  
DOCKED: ATOM     33  O6  UNL     1      15.768   2.629   5.333 +0.00 -0.00    -0.276 OA 
DOCKED: ATOM     34  N4  UNL     1      13.692   1.673   5.256 +0.00 -0.00    -0.304 N  
DOCKED: ATOM     35  H43 UNL     1      13.230   0.900   4.793 +0.00 +0.00    +0.149 HD 
DOCKED: BRANCH  34  36
DOCKED: ATOM     36  C24 UNL     1      13.026   2.966   5.122 +0.00 +0.00    +0.161 C  
DOCKED: BRANCH  36  37
DOCKED: ATOM     37  C25 UNL     1      11.778   2.759   4.240 +0.00 +0.00    +0.234 C  
DOCKED: ATOM     38  O7  UNL     1      11.336   1.637   3.977 +0.00 -0.00    -0.274 OA 
DOCKED: ATOM     39  N5  UNL     1      11.178   3.927   3.818 +0.00 -0.00    -0.310 N  
DOCKED: ATOM     40  H45 UNL     1      11.685   4.797   3.914 +0.00 +0.00    +0.149 HD 
DOCKED: BRANCH  39  41
DOCKED: ATOM     41  C26 UNL     1      10.070   3.907   2.890 +0.00 +0.00    +0.139 C  
DOCKED: BRANCH  41  42
DOCKED: ATOM     42  C27 UNL     1      10.182   2.873   1.793 +0.00 -0.00    -0.027 A  
DOCKED: ATOM     43  C28 UNL     1      11.356   2.882   0.995 +0.00 +0.00    +0.009 A  
DOCKED: ATOM     44  C29 UNL     1      11.536   1.962  -0.044 +0.00 +0.00    +0.050 A  
DOCKED: ATOM     45  C30 UNL     1      10.536   1.043  -0.268 +0.00 +0.00    +0.166 A  
DOCKED: ATOM     46  C31 UNL     1       9.395   1.023   0.499 +0.00 +0.00    +0.167 A  
DOCKED: ATOM     47  C32 UNL     1       9.182   1.922   1.525 +0.00 +0.00    +0.054 A  
DOCKED: ATOM     48  O8  UNL     1       8.547   0.025   0.135 +0.00 -0.00    -0.453 OA 
DOCKED: ATOM     49  C33 UNL     1       9.266  -0.555  -0.971 +0.00 +0.00    +0.466 C  
DOCKED: ATOM     50  O9  UNL     1      10.542   0.072  -1.218 +0.00 -0.00    -0.453 OA 
DOCKED: ENDBRANCH  41  42
DOCKED: ENDBRANCH  39  41
DOCKED: ENDBRANCH  36  37
DOCKED: BRANCH  36  51
DOCKED: ATOM     51  C34 UNL     1      12.649   3.600   6.479 +0.00 +0.00    +0.012 C  
DOCKED: ATOM     52  C35 UNL     1      12.479   5.120   6.417 +0.00 +0.00    +0.009 C  
DOCKED: ATOM     53  C36 UNL     1      11.381   2.958   7.049 +0.00 +0.00    +0.009 C  
DOCKED: ENDBRANCH  36  51
DOCKED: ENDBRANCH  34  36
DOCKED: ENDBRANCH  31  32
DOCKED: ENDBRANCH  28  31
DOCKED: ENDBRANCH   1  28
DOCKED: BRANCH   1  54
DOCKED: ATOM     54  C17 UNL     1      13.523  -3.006   5.551 +0.00 +0.00    +0.028 C  
DOCKED: BRANCH  54  55
DOCKED: ATOM     55  C18 UNL     1      12.590  -3.672   4.514 +0.00 -0.00    -0.015 C  
DOCKED: ATOM     56  C19 UNL     1      13.337  -4.543   3.506 +0.00 +0.00    +0.007 C  
DOCKED: ATOM     57  C20 UNL     1      11.430  -4.443   5.140 +0.00 +0.00    +0.007 C  
DOCKED: ENDBRANCH  54  55
DOCKED: ENDBRANCH   1  54
DOCKED: TORSDOF 22
DOCKED: TER
DOCKED: ENDMDL
________________________________________________________________________________


    FINAL DOCKED STATE:
    ________________________


Run:   4 / 20
Time taken for this run:   1.805s

DOCKED: MODEL        4
DOCKED: USER    Run = 4
DOCKED: USER
DOCKED: USER    Estimated Free Energy of Binding    =  +6.56 kcal/mol  [=(1)+(2)+(3)-(4)]
DOCKED: USER
DOCKED: USER    (1) Final Intermolecular Energy     =  +0.00 kcal/mol
DOCKED: USER        vdW + Hbond + desolv Energy     =  +0.00 kcal/mol
DOCKED: USER        Electrostatic Energy            =  +0.00 kcal/mol
DOCKED: USER        Moving Ligand-Fixed Receptor    =  +0.00 kcal/mol
DOCKED: USER        Moving Ligand-Moving Receptor   =  +0.00 kcal/mol
DOCKED: USER    (2) Final Total Internal Energy     = -14.24 kcal/mol
DOCKED: USER    (3) Torsional Free Energy           =  +6.56 kcal/mol
DOCKED: USER    (4) Unbound System's Energy         = -14.24 kcal/mol
DOCKED: USER
DOCKED: USER
DOCKED: REMARK  Name = ligands/ligand_25.pdb
DOCKED: REMARK  32 active torsions:
DOCKED: REMARK  status: ('A' for Active; 'I' for Inactive)
DOCKED: REMARK    1  A    between atoms: C1_1  and  S1_2
DOCKED: REMARK    2  A    between atoms: S1_2  and  C2_3
DOCKED: REMARK    3  A    between atoms: C2_3  and  C3_4
DOCKED: REMARK    4  A    between atoms: C3_4  and  C4_5
DOCKED: REMARK    5  A    between atoms: C4_5  and  N1_6
DOCKED: REMARK    6  A    between atoms: C4_5  and  C15_21
DOCKED: REMARK    7  A    between atoms: C5_7  and  C6_9
DOCKED: REMARK    8  A    between atoms: C6_9  and  N2_10
DOCKED: REMARK    9  A    between atoms: C6_9  and  C12_18
DOCKED: REMARK   10  A    between atoms: C7_11  and  O3_13
DOCKED: REMARK   11  A    between atoms: O3_13  and  C8_14
DOCKED: REMARK   12  A    between atoms: C8_14  and  C9_15
DOCKED: REMARK   13  A    between atoms: C8_14  and  C10_16
DOCKED: REMARK   14  A    between atoms: C8_14  and  C11_17
DOCKED: REMARK   15  A    between atoms: C12_18  and  C13_19
DOCKED: REMARK   16  A    between atoms: C12_18  and  C14_20
DOCKED: REMARK   17  A    between atoms: N3_23  and  C16_24
DOCKED: REMARK   18  A    between atoms: C16_24  and  C17_25
DOCKED: REMARK   19  A    between atoms: C16_24  and  C21_29
DOCKED: REMARK   20  A    between atoms: C17_25  and  C18_26
DOCKED: REMARK   21  A    between atoms: C18_26  and  C19_27
DOCKED: REMARK   22  A    between atoms: C18_26  and  C20_28
DOCKED: REMARK   23  A    between atoms: C21_29  and  O5_30
DOCKED: REMARK   24  A    between atoms: C21_29  and  C22_31
DOCKED: REMARK   25  A    between atoms: C22_31  and  C23_32
DOCKED: REMARK   26  A    between atoms: N4_34  and  C24_35
DOCKED: REMARK   27  A    between atoms: C24_35  and  C25_36
DOCKED: REMARK   28  A    between atoms: C24_35  and  C34_49
DOCKED: REMARK   29  A    between atoms: N5_38  and  C26_39
DOCKED: REMARK   30  A    between atoms: C26_39  and  C27_40
DOCKED: REMARK   31  A    between atoms: C34_49  and  C35_50
DOCKED: REMARK   32  A    between atoms: C34_49  and  C36_51
DOCKED: REMARK                            x       y       z     vdW  Elec       q    Type
DOCKED: REMARK                         _______ _______ _______ _____ _____    ______ ____
DOCKED: USER                              x       y       z     vdW  Elec       q    Type
DOCKED: USER                           _______ _______ _______ _____ _____    ______ ____
DOCKED: ROOT
DOCKED: ATOM      1  C16 UNL     1      14.283 -10.590  -1.891 +0.00 +0.00    +0.102 C  
DOCKED: ENDROOT
DOCKED: BRANCH   1   4
DOCKED: ATOM      2  C15 UNL     1      15.252  -8.508  -2.840 +0.00 +0.00    +0.234 C  
DOCKED: ATOM      3  O4  UNL     1      16.044  -9.124  -3.555 +0.00 -0.00    -0.274 OA 
DOCKED: ATOM      4  N3  UNL     1      14.384  -9.137  -1.976 +0.00 -0.00    -0.308 N  
DOCKED: ATOM      5  H28 UNL     1      13.687  -8.576  -1.486 +0.00 +0.00    +0.149 HD 
DOCKED: BRANCH   2   6
DOCKED: ATOM      6  C4  UNL     1      15.165  -6.964  -2.860 +0.00 +0.00    +0.160 C  
DOCKED: BRANCH   6   7
DOCKED: ATOM      7  N1  UNL     1      13.748  -6.627  -2.749 +0.00 -0.00    -0.302 N  
DOCKED: ATOM      8  C5  UNL     1      12.791  -7.111  -3.608 +0.00 +0.00    +0.234 C  
DOCKED: ATOM      9  O1  UNL     1      13.065  -7.839  -4.563 +0.00 -0.00    -0.274 OA 
DOCKED: ATOM     10  H9  UNL     1      13.506  -5.937  -2.039 +0.00 +0.00    +0.150 HD 
DOCKED: BRANCH   8  11
DOCKED: ATOM     11  C6  UNL     1      11.351  -6.657  -3.288 +0.00 +0.00    +0.165 C  
DOCKED: BRANCH  11  12
DOCKED: ATOM     12  N2  UNL     1      11.157  -6.801  -1.851 +0.00 -0.00    -0.270 N  
DOCKED: ATOM     13  C7  UNL     1      11.421  -7.986  -1.231 +0.00 +0.00    +0.401 C  
DOCKED: ATOM     14  O2  UNL     1      11.610  -9.046  -1.800 +0.00 -0.00    -0.226 OA 
DOCKED: ATOM     15  H11 UNL     1      11.312  -5.991  -1.264 +0.00 +0.00    +0.153 HD 
DOCKED: BRANCH  13  16
DOCKED: ATOM     16  O3  UNL     1      11.462  -7.782   0.104 +0.00 -0.00    -0.445 OA 
DOCKED: BRANCH  16  17
DOCKED: ATOM     17  C8  UNL     1      10.262  -7.927   0.909 +0.00 +0.00    +0.107 C  
DOCKED: ATOM     18  C9  UNL     1       9.215  -6.858   0.567 +0.00 +0.00    +0.055 C  
DOCKED: ATOM     19  C10 UNL     1      10.599  -7.938   2.405 +0.00 +0.00    +0.055 C  
DOCKED: ATOM     20  C11 UNL     1       9.699  -9.301   0.519 +0.00 +0.00    +0.055 C  
DOCKED: ENDBRANCH  16  17
DOCKED: ENDBRANCH  13  16
DOCKED: ENDBRANCH  11  12
DOCKED: BRANCH  11  21
DOCKED: ATOM     21  C12 UNL     1      11.049  -5.216  -3.757 +0.00 +0.00    +0.012 C  
DOCKED: ATOM     22  C13 UNL     1      10.745  -5.084  -5.253 +0.00 +0.00    +0.009 C  
DOCKED: ATOM     23  C14 UNL     1       9.911  -4.596  -2.941 +0.00 +0.00    +0.009 C  
DOCKED: ENDBRANCH  11  21
DOCKED: ENDBRANCH   8  11
DOCKED: ENDBRANCH   6   7
DOCKED: BRANCH   6  24
DOCKED: ATOM     24  C3  UNL     1      15.996  -6.339  -1.725 +0.00 +0.00    +0.042 C  
DOCKED: BRANCH  24  25
DOCKED: ATOM     25  C2  UNL     1      15.552  -6.811  -0.339 +0.00 +0.00    +0.071 C  
DOCKED: BRANCH  25  27
DOCKED: ATOM     26  C1  UNL     1      13.843  -6.710   1.827 +0.00 +0.00    +0.084 C  
DOCKED: ATOM     27  S1  UNL     1      14.150  -5.822   0.276 +0.00 -0.00    -0.164 S  
DOCKED: ENDBRANCH  25  27
DOCKED: ENDBRANCH  24  25
DOCKED: ENDBRANCH   6  24
DOCKED: ENDBRANCH   2   6
DOCKED: ENDBRANCH   1   4
DOCKED: BRANCH   1  28
DOCKED: ATOM     28  C21 UNL     1      13.752 -11.189  -3.230 +0.00 +0.00    +0.143 C  
DOCKED: BRANCH  28  29
DOCKED: ATOM     29  O5  UNL     1      12.864 -10.298  -3.905 +0.00 -0.00    -0.389 OA 
DOCKED: ATOM     30  H40 UNL     1      12.708  -9.534  -3.322 +0.00 +0.00    +0.210 HD 
DOCKED: ENDBRANCH  28  29
DOCKED: BRANCH  28  31
DOCKED: ATOM     31  C22 UNL     1      14.793 -11.756  -4.201 +0.00 +0.00    +0.129 C  
DOCKED: BRANCH  31  32
DOCKED: ATOM     32  C23 UNL     1      14.696 -11.352  -5.662 +0.00 +0.00    +0.216 C  
DOCKED: ATOM     33  O6  UNL     1      14.575 -12.121  -6.605 +0.00 -0.00    -0.276 OA 
DOCKED: ATOM     34  N4  UNL     1      14.777  -9.977  -5.837 +0.00 -0.00    -0.304 N  
DOCKED: ATOM     35  H43 UNL     1      14.472  -9.423  -5.046 +0.00 +0.00    +0.149 HD 
DOCKED: BRANCH  34  36
DOCKED: ATOM     36  C24 UNL     1      14.483  -9.405  -7.147 +0.00 +0.00    +0.161 C  
DOCKED: BRANCH  36  37
DOCKED: ATOM     37  C25 UNL     1      13.003  -9.702  -7.465 +0.00 +0.00    +0.234 C  
DOCKED: ATOM     38  O7  UNL     1      12.602  -9.895  -8.615 +0.00 -0.00    -0.274 OA 
DOCKED: ATOM     39  N5  UNL     1      12.186  -9.780  -6.355 +0.00 -0.00    -0.310 N  
DOCKED: ATOM     40  H45 UNL     1      12.534  -9.437  -5.470 +0.00 +0.00    +0.149 HD 
DOCKED: BRANCH  39  41
DOCKED: ATOM     41  C26 UNL     1      10.755  -9.934  -6.488 +0.00 +0.00    +0.139 C  
DOCKED: BRANCH  41  42
DOCKED: ATOM     42  C27 UNL     1       9.961  -9.546  -5.261 +0.00 -0.00    -0.027 A  
DOCKED: ATOM     43  C28 UNL     1       9.926 -10.466  -4.180 +0.00 +0.00    +0.009 A  
DOCKED: ATOM     44  C29 UNL     1       9.209 -10.187  -3.011 +0.00 +0.00    +0.050 A  
DOCKED: ATOM     45  C30 UNL     1       8.539  -8.986  -2.941 +0.00 +0.00    +0.166 A  
DOCKED: ATOM     46  C31 UNL     1       8.567  -8.087  -3.980 +0.00 +0.00    +0.167 A  
DOCKED: ATOM     47  C32 UNL     1       9.256  -8.335  -5.150 +0.00 +0.00    +0.054 A  
DOCKED: ATOM     48  O8  UNL     1       7.866  -6.956  -3.701 +0.00 -0.00    -0.453 OA 
DOCKED: ATOM     49  C33 UNL     1       7.364  -7.262  -2.386 +0.00 +0.00    +0.466 C  
DOCKED: ATOM     50  O9  UNL     1       7.806  -8.542  -1.887 +0.00 -0.00    -0.453 OA 
DOCKED: ENDBRANCH  41  42
DOCKED: ENDBRANCH  39  41
DOCKED: ENDBRANCH  36  37
DOCKED: BRANCH  36  51
DOCKED: ATOM     51  C34 UNL     1      14.779  -7.892  -7.233 +0.00 +0.00    +0.012 C  
DOCKED: ATOM     52  C35 UNL     1      13.519  -7.023  -7.262 +0.00 +0.00    +0.009 C  
DOCKED: ATOM     53  C36 UNL     1      15.690  -7.448  -6.085 +0.00 +0.00    +0.009 C  
DOCKED: ENDBRANCH  36  51
DOCKED: ENDBRANCH  34  36
DOCKED: ENDBRANCH  31  32
DOCKED: ENDBRANCH  28  31
DOCKED: ENDBRANCH   1  28
DOCKED: BRANCH   1  54
DOCKED: ATOM     54  C17 UNL     1      13.513 -11.032  -0.633 +0.00 +0.00    +0.028 C  
DOCKED: BRANCH  54  55
DOCKED: ATOM     55  C18 UNL     1      13.648 -10.140   0.621 +0.00 -0.00    -0.015 C  
DOCKED: ATOM     56  C19 UNL     1      12.768 -10.599   1.782 +0.00 +0.00    +0.007 C  
DOCKED: ATOM     57  C20 UNL     1      15.091  -9.944   1.082 +0.00 +0.00    +0.007 C  
DOCKED: ENDBRANCH  54  55
DOCKED: ENDBRANCH   1  54
DOCKED: TORSDOF 22
DOCKED: TER
DOCKED: ENDMDL
________________________________________________________________________________


    FINAL DOCKED STATE:
    ________________________


Run:   5 / 20
Time taken for this run:   1.805s

DOCKED: MODEL        5
DOCKED: USER    Run = 5
DOCKED: USER
DOCKED: USER    Estimated Free Energy of Binding    =  +6.56 kcal/mol  [=(1)+(2)+(3)-(4)]
DOCKED: USER
DOCKED: USER    (1) Final Intermolecular Energy     =  +0.00 kcal/mol
DOCKED: USER        vdW + Hbond + desolv Energy     =  +0.00 kcal/mol
DOCKED: USER        Electrostatic Energy            =  +0.00 kcal/mol
DOCKED: USER        Moving Ligand-Fixed Receptor    =  +0.00 kcal/mol
DOCKED: USER        Moving Ligand-Moving Receptor   =  +0.00 kcal/mol
DOCKED: USER    (2) Final Total Internal Energy     = -14.36 kcal/mol
DOCKED: USER    (3) Torsional Free Energy           =  +6.56 kcal/mol
DOCKED: USER    (4) Unbound System's Energy         = -14.36 kcal/mol
DOCKED: USER
DOCKED: USER
DOCKED: REMARK  Name = ligands/ligand_25.pdb
DOCKED: REMARK  32 active torsions:
DOCKED: REMARK  status: ('A' for Active; 'I' for Inactive)
DOCKED: REMARK    1  A    between atoms: C1_1  and  S1_2
DOCKED: REMARK    2  A    between atoms: S1_2  and  C2_3
DOCKED: REMARK    3  A    between atoms: C2_3  and  C3_4
DOCKED: REMARK    4  A    between atoms: C3_4  and  C4_5
DOCKED: REMARK    5  A    between atoms: C4_5  and  N1_6
DOCKED: REMARK    6  A    between atoms: C4_5  and  C15_21
DOCKED: REMARK    7  A    between atoms: C5_7  and  C6_9
DOCKED: REMARK    8  A    between atoms: C6_9  and  N2_10
DOCKED: REMARK    9  A    between atoms: C6_9  and  C12_18
DOCKED: REMARK   10  A    between atoms: C7_11  and  O3_13
DOCKED: REMARK   11  A    between atoms: O3_13  and  C8_14
DOCKED: REMARK   12  A    between atoms: C8_14  and  C9_15
DOCKED: REMARK   13  A    between atoms: C8_14  and  C10_16
DOCKED: REMARK   14  A    between atoms: C8_14  and  C11_17
DOCKED: REMARK   15  A    between atoms: C12_18  and  C13_19
DOCKED: REMARK   16  A    between atoms: C12_18  and  C14_20
DOCKED: REMARK   17  A    between atoms: N3_23  and  C16_24
DOCKED: REMARK   18  A    between atoms: C16_24  and  C17_25
DOCKED: REMARK   19  A    between atoms: C16_24  and  C21_29
DOCKED: REMARK   20  A    between atoms: C17_25  and  C18_26
DOCKED: REMARK   21  A    between atoms: C18_26  and  C19_27
DOCKED: REMARK   22  A    between atoms: C18_26  and  C20_28
DOCKED: REMARK   23  A    between atoms: C21_29  and  O5_30
DOCKED: REMARK   24  A    between atoms: C21_29  and  C22_31
DOCKED: REMARK   25  A    between atoms: C22_31  and  C23_32
DOCKED: REMARK   26  A    between atoms: N4_34  and  C24_35
DOCKED: REMARK   27  A    between atoms: C24_35  and  C25_36
DOCKED: REMARK   28  A    between atoms: C24_35  and  C34_49
DOCKED: REMARK   29  A    between atoms: N5_38  and  C26_39
DOCKED: REMARK   30  A    between atoms: C26_39  and  C27_40
DOCKED: REMARK   31  A    between atoms: C34_49  and  C35_50
DOCKED: REMARK   32  A    between atoms: C34_49  and  C36_51
DOCKED: REMARK                            x       y       z     vdW  Elec       q    Type
DOCKED: REMARK                         _______ _______ _______ _____ _____    ______ ____
DOCKED: USER                              x       y       z     vdW  Elec       q    Type
DOCKED: USER                           _______ _______ _______ _____ _____    ______ ____
DOCKED: ROOT
DOCKED: ATOM      1  C16 UNL     1       9.125  -6.503   2.369 +0.00 +0.00    +0.102 C  
DOCKED: ENDROOT
DOCKED: BRANCH   1   4
DOCKED: ATOM      2  C15 UNL     1       7.572  -4.804   3.309 +0.00 +0.00    +0.234 C  
DOCKED: ATOM      3  O4  UNL     1       6.696  -5.639   3.542 +0.00 -0.00    -0.274 OA 
DOCKED: ATOM      4  N3  UNL     1       8.770  -5.129   2.711 +0.00 -0.00    -0.308 N  
DOCKED: ATOM      5  H28 UNL     1       9.491  -4.412   2.637 +0.00 +0.00    +0.149 HD 
DOCKED: BRANCH   2   6
DOCKED: ATOM      6  C4  UNL     1       7.399  -3.314   3.680 +0.00 +0.00    +0.160 C  
DOCKED: BRANCH   6   7
DOCKED: ATOM      7  N1  UNL     1       8.021  -2.543   2.606 +0.00 -0.00    -0.302 N  
DOCKED: ATOM      8  C5  UNL     1       7.462  -2.408   1.358 +0.00 +0.00    +0.234 C  
DOCKED: ATOM      9  O1  UNL     1       6.409  -2.961   1.040 +0.00 -0.00    -0.274 OA 
DOCKED: ATOM     10  H9  UNL     1       8.948  -2.168   2.802 +0.00 +0.00    +0.150 HD 
DOCKED: BRANCH   8  11
DOCKED: ATOM     11  C6  UNL     1       8.269  -1.521   0.386 +0.00 +0.00    +0.165 C  
DOCKED: BRANCH  11  12
DOCKED: ATOM     12  N2  UNL     1       9.185  -2.390  -0.340 +0.00 -0.00    -0.270 N  
DOCKED: ATOM     13  C7  UNL     1      10.152  -3.086   0.322 +0.00 +0.00    +0.401 C  
DOCKED: ATOM     14  O2  UNL     1      10.484  -2.895   1.477 +0.00 -0.00    -0.226 OA 
DOCKED: ATOM     15  H11 UNL     1       8.845  -2.856  -1.172 +0.00 +0.00    +0.153 HD 
DOCKED: BRANCH  13  16
DOCKED: ATOM     16  O3  UNL     1      10.655  -4.030  -0.504 +0.00 -0.00    -0.445 OA 
DOCKED: BRANCH  16  17
DOCKED: ATOM     17  C8  UNL     1      11.997  -3.899  -1.043 +0.00 +0.00    +0.107 C  
DOCKED: ATOM     18  C9  UNL     1      13.043  -3.742   0.069 +0.00 +0.00    +0.055 C  
DOCKED: ATOM     19  C10 UNL     1      12.072  -2.755  -2.062 +0.00 +0.00    +0.055 C  
DOCKED: ATOM     20  C11 UNL     1      12.254  -5.226  -1.769 +0.00 +0.00    +0.055 C  
DOCKED: ENDBRANCH  16  17
DOCKED: ENDBRANCH  13  16
DOCKED: ENDBRANCH  11  12
DOCKED: BRANCH  11  21
DOCKED: ATOM     21  C12 UNL     1       7.376  -0.708  -0.579 +0.00 +0.00    +0.012 C  
DOCKED: ATOM     22  C13 UNL     1       6.980   0.680  -0.063 +0.00 +0.00    +0.009 C  
DOCKED: ATOM     23  C14 UNL     1       8.027  -0.581  -1.959 +0.00 +0.00    +0.009 C  
DOCKED: ENDBRANCH  11  21
DOCKED: ENDBRANCH   8  11
DOCKED: ENDBRANCH   6   7
DOCKED: BRANCH   6  24
DOCKED: ATOM     24  C3  UNL     1       5.914  -2.949   3.864 +0.00 +0.00    +0.042 C  
DOCKED: BRANCH  24  25
DOCKED: ATOM     25  C2  UNL     1       5.716  -1.698   4.721 +0.00 +0.00    +0.071 C  
DOCKED: BRANCH  25  27
DOCKED: ATOM     26  C1  UNL     1       7.529   0.302   4.137 +0.00 +0.00    +0.084 C  
DOCKED: ATOM     27  S1  UNL     1       7.311  -1.053   5.324 +0.00 -0.00    -0.164 S  
DOCKED: ENDBRANCH  25  27
DOCKED: ENDBRANCH  24  25
DOCKED: ENDBRANCH   6  24
DOCKED: ENDBRANCH   2   6
DOCKED: ENDBRANCH   1   4
DOCKED: BRANCH   1  28
DOCKED: ATOM     28  C21 UNL     1      10.674  -6.679   2.315 +0.00 +0.00    +0.143 C  
DOCKED: BRANCH  28  29
DOCKED: ATOM     29  O5  UNL     1      11.342  -5.469   1.957 +0.00 -0.00    -0.389 OA 
DOCKED: ATOM     30  H40 UNL     1      10.799  -5.015   1.289 +0.00 +0.00    +0.210 HD 
DOCKED: ENDBRANCH  28  29
DOCKED: BRANCH  28  31
DOCKED: ATOM     31  C22 UNL     1      11.344  -7.330   3.529 +0.00 +0.00    +0.129 C  
DOCKED: BRANCH  31  32
DOCKED: ATOM     32  C23 UNL     1      11.604  -6.462   4.748 +0.00 +0.00    +0.216 C  
DOCKED: ATOM     33  O6  UNL     1      12.418  -6.700   5.630 +0.00 -0.00    -0.276 OA 
DOCKED: ATOM     34  N4  UNL     1      10.789  -5.339   4.781 +0.00 -0.00    -0.304 N  
DOCKED: ATOM     35  H43 UNL     1      10.467  -5.013   3.877 +0.00 +0.00    +0.149 HD 
DOCKED: BRANCH  34  36
DOCKED: ATOM     36  C24 UNL     1      11.056  -4.291   5.761 +0.00 +0.00    +0.161 C  
DOCKED: BRANCH  36  37
DOCKED: ATOM     37  C25 UNL     1      10.792  -2.933   5.078 +0.00 +0.00    +0.234 C  
DOCKED: ATOM     38  O7  UNL     1      10.203  -2.844   3.997 +0.00 -0.00    -0.274 OA 
DOCKED: ATOM     39  N5  UNL     1      11.224  -1.839   5.798 +0.00 -0.00    -0.310 N  
DOCKED: ATOM     40  H45 UNL     1      11.852  -1.985   6.577 +0.00 +0.00    +0.149 HD 
DOCKED: BRANCH  39  41
DOCKED: ATOM     41  C26 UNL     1      11.158  -0.505   5.245 +0.00 +0.00    +0.139 C  
DOCKED: BRANCH  41  42
DOCKED: ATOM     42  C27 UNL     1      11.484  -0.414   3.772 +0.00 -0.00    -0.027 A  
DOCKED: ATOM     43  C28 UNL     1      12.727  -0.944   3.336 +0.00 +0.00    +0.009 A  
DOCKED: ATOM     44  C29 UNL     1      13.107  -0.895   1.990 +0.00 +0.00    +0.050 A  
DOCKED: ATOM     45  C30 UNL     1      12.233  -0.317   1.098 +0.00 +0.00    +0.166 A  
DOCKED: ATOM     46  C31 UNL     1      11.025   0.197   1.506 +0.00 +0.00    +0.167 A  
DOCKED: ATOM     47  C32 UNL     1      10.624   0.174   2.827 +0.00 +0.00    +0.054 A  
DOCKED: ATOM     48  O8  UNL     1      10.301   0.696   0.470 +0.00 -0.00    -0.453 OA 
DOCKED: ATOM     49  C33 UNL     1      11.205   0.472  -0.629 +0.00 +0.00    +0.466 C  
DOCKED: ATOM     50  O9  UNL     1      12.426  -0.193  -0.241 +0.00 -0.00    -0.453 OA 
DOCKED: ENDBRANCH  41  42
DOCKED: ENDBRANCH  39  41
DOCKED: ENDBRANCH  36  37
DOCKED: BRANCH  36  51
DOCKED: ATOM     51  C34 UNL     1      10.221  -4.435   7.052 +0.00 +0.00    +0.012 C  
DOCKED: ATOM     52  C35 UNL     1      10.848  -3.747   8.267 +0.00 +0.00    +0.009 C  
DOCKED: ATOM     53  C36 UNL     1       8.795  -3.918   6.841 +0.00 +0.00    +0.009 C  
DOCKED: ENDBRANCH  36  51
DOCKED: ENDBRANCH  34  36
DOCKED: ENDBRANCH  31  32
DOCKED: ENDBRANCH  28  31
DOCKED: ENDBRANCH   1  28
DOCKED: BRANCH   1  54
DOCKED: ATOM     54  C17 UNL     1       8.373  -6.986   1.116 +0.00 +0.00    +0.028 C  
DOCKED: BRANCH  54  55
DOCKED: ATOM     55  C18 UNL     1       8.207  -5.972  -0.038 +0.00 -0.00    -0.015 C  
DOCKED: ATOM     56  C19 UNL     1       8.916  -6.401  -1.321 +0.00 +0.00    +0.007 C  
DOCKED: ATOM     57  C20 UNL     1       6.753  -5.600  -0.322 +0.00 +0.00    +0.007 C  
DOCKED: ENDBRANCH  54  55
DOCKED: ENDBRANCH   1  54
DOCKED: TORSDOF 22
DOCKED: TER
DOCKED: ENDMDL
________________________________________________________________________________


    FINAL DOCKED STATE:
    ________________________


Run:   6 / 20
Time taken for this run:   1.805s

DOCKED: MODEL        6
DOCKED: USER    Run = 6
DOCKED: USER
DOCKED: USER    Estimated Free Energy of Binding    =  +6.56 kcal/mol  [=(1)+(2)+(3)-(4)]
DOCKED: USER
DOCKED: USER    (1) Final Intermolecular Energy     =  +0.00 kcal/mol
DOCKED: USER        vdW + Hbond + desolv Energy     =  +0.00 kcal/mol
DOCKED: USER        Electrostatic Energy            =  +0.00 kcal/mol
DOCKED: USER        Moving Ligand-Fixed Receptor    =  +0.00 kcal/mol
DOCKED: USER        Moving Ligand-Moving Receptor   =  +0.00 kcal/mol
DOCKED: USER    (2) Final Total Internal Energy     = -14.35 kcal/mol
DOCKED: USER    (3) Torsional Free Energy           =  +6.56 kcal/mol
DOCKED: USER    (4) Unbound System's Energy         = -14.35 kcal/mol
DOCKED: USER
DOCKED: USER
DOCKED: REMARK  Name = ligands/ligand_25.pdb
DOCKED: REMARK  32 active torsions:
DOCKED: REMARK  status: ('A' for Active; 'I' for Inactive)
DOCKED: REMARK    1  A    between atoms: C1_1  and  S1_2
DOCKED: REMARK    2  A    between atoms: S1_2  and  C2_3
DOCKED: REMARK    3  A    between atoms: C2_3  and  C3_4
DOCKED: REMARK    4  A    between atoms: C3_4  and  C4_5
DOCKED: REMARK    5  A    between atoms: C4_5  and  N1_6
DOCKED: REMARK    6  A    between atoms: C4_5  and  C15_21
DOCKED: REMARK    7  A    between atoms: C5_7  and  C6_9
DOCKED: REMARK    8  A    between atoms: C6_9  and  N2_10
DOCKED: REMARK    9  A    between atoms: C6_9  and  C12_18
DOCKED: REMARK   10  A    between atoms: C7_11  and  O3_13
DOCKED: REMARK   11  A    between atoms: O3_13  and  C8_14
DOCKED: REMARK   12  A    between atoms: C8_14  and  C9_15
DOCKED: REMARK   13  A    between atoms: C8_14  and  C10_16
DOCKED: REMARK   14  A    between atoms: C8_14  and  C11_17
DOCKED: REMARK   15  A    between atoms: C12_18  and  C13_19
DOCKED: REMARK   16  A    between atoms: C12_18  and  C14_20
DOCKED: REMARK   17  A    between atoms: N3_23  and  C16_24
DOCKED: REMARK   18  A    between atoms: C16_24  and  C17_25
DOCKED: REMARK   19  A    between atoms: C16_24  and  C21_29
DOCKED: REMARK   20  A    between atoms: C17_25  and  C18_26
DOCKED: REMARK   21  A    between atoms: C18_26  and  C19_27
DOCKED: REMARK   22  A    between atoms: C18_26  and  C20_28
DOCKED: REMARK   23  A    between atoms: C21_29  and  O5_30
DOCKED: REMARK   24  A    between atoms: C21_29  and  C22_31
DOCKED: REMARK   25  A    between atoms: C22_31  and  C23_32
DOCKED: REMARK   26  A    between atoms: N4_34  and  C24_35
DOCKED: REMARK   27  A    between atoms: C24_35  and  C25_36
DOCKED: REMARK   28  A    between atoms: C24_35  and  C34_49
DOCKED: REMARK   29  A    between atoms: N5_38  and  C26_39
DOCKED: REMARK   30  A    between atoms: C26_39  and  C27_40
DOCKED: REMARK   31  A    between atoms: C34_49  and  C35_50
DOCKED: REMARK   32  A    between atoms: C34_49  and  C36_51
DOCKED: REMARK                            x       y       z     vdW  Elec       q    Type
DOCKED: REMARK                         _______ _______ _______ _____ _____    ______ ____
DOCKED: USER                              x       y       z     vdW  Elec       q    Type
DOCKED: USER                           _______ _______ _______ _____ _____    ______ ____
DOCKED: ROOT
DOCKED: ATOM      1  C16 UNL     1       7.890  -0.058  -2.789 +0.00 +0.00    +0.102 C  
DOCKED: ENDROOT
DOCKED: BRANCH   1   4
DOCKED: ATOM      2  C15 UNL     1       7.591  -1.385  -0.710 +0.00 +0.00    +0.234 C  
DOCKED: ATOM      3  O4  UNL     1       8.776  -1.276  -0.391 +0.00 -0.00    -0.274 OA 
DOCKED: ATOM      4  N3  UNL     1       7.080  -0.855  -1.873 +0.00 -0.00    -0.308 N  
DOCKED: ATOM      5  H28 UNL     1       6.074  -0.894  -2.029 +0.00 +0.00    +0.149 HD 
DOCKED: BRANCH   2   6
DOCKED: ATOM      6  C4  UNL     1       6.571  -2.127   0.184 +0.00 +0.00    +0.160 C  
DOCKED: BRANCH   6   7
DOCKED: ATOM      7  N1  UNL     1       5.661  -2.828  -0.718 +0.00 -0.00    -0.302 N  
DOCKED: ATOM      8  C5  UNL     1       6.012  -3.964  -1.407 +0.00 +0.00    +0.234 C  
DOCKED: ATOM      9  O1  UNL     1       7.139  -4.455  -1.342 +0.00 -0.00    -0.274 OA 
DOCKED: ATOM     10  H9  UNL     1       4.759  -2.382  -0.880 +0.00 +0.00    +0.150 HD 
DOCKED: BRANCH   8  11
DOCKED: ATOM     11  C6  UNL     1       4.886  -4.562  -2.276 +0.00 +0.00    +0.165 C  
DOCKED: BRANCH  11  12
DOCKED: ATOM     12  N2  UNL     1       4.995  -3.968  -3.602 +0.00 -0.00    -0.270 N  
DOCKED: ATOM     13  C7  UNL     1       4.835  -2.626  -3.775 +0.00 +0.00    +0.401 C  
DOCKED: ATOM     14  O2  UNL     1       4.385  -1.862  -2.941 +0.00 -0.00    -0.226 OA 
DOCKED: ATOM     15  H11 UNL     1       5.633  -4.392  -4.264 +0.00 +0.00    +0.153 HD 
DOCKED: BRANCH  13  16
DOCKED: ATOM     16  O3  UNL     1       5.279  -2.288  -5.007 +0.00 -0.00    -0.445 OA 
DOCKED: BRANCH  16  17
DOCKED: ATOM     17  C8  UNL     1       4.342  -1.914  -6.051 +0.00 +0.00    +0.107 C  
DOCKED: ATOM     18  C9  UNL     1       3.443  -0.748  -5.617 +0.00 +0.00    +0.055 C  
DOCKED: ATOM     19  C10 UNL     1       3.522  -3.124  -6.515 +0.00 +0.00    +0.055 C  
DOCKED: ATOM     20  C11 UNL     1       5.226  -1.440  -7.212 +0.00 +0.00    +0.055 C  
DOCKED: ENDBRANCH  16  17
DOCKED: ENDBRANCH  13  16
DOCKED: ENDBRANCH  11  12
DOCKED: BRANCH  11  21
DOCKED: ATOM     21  C12 UNL     1       4.925  -6.106  -2.343 +0.00 +0.00    +0.012 C  
DOCKED: ATOM     22  C13 UNL     1       4.067  -6.811  -1.286 +0.00 +0.00    +0.009 C  
DOCKED: ATOM     23  C14 UNL     1       4.543  -6.608  -3.738 +0.00 +0.00    +0.009 C  
DOCKED: ENDBRANCH  11  21
DOCKED: ENDBRANCH   8  11
DOCKED: ENDBRANCH   6   7
DOCKED: BRANCH   6  24
DOCKED: ATOM     24  C3  UNL     1       7.273  -3.093   1.157 +0.00 +0.00    +0.042 C  
DOCKED: BRANCH  24  25
DOCKED: ATOM     25  C2  UNL     1       6.403  -3.454   2.362 +0.00 +0.00    +0.071 C  
DOCKED: BRANCH  25  27
DOCKED: ATOM     26  C1  UNL     1       3.748  -3.833   1.703 +0.00 +0.00    +0.084 C  
DOCKED: ATOM     27  S1  UNL     1       4.833  -2.527   2.341 +0.00 -0.00    -0.164 S  
DOCKED: ENDBRANCH  25  27
DOCKED: ENDBRANCH  24  25
DOCKED: ENDBRANCH   6  24
DOCKED: ENDBRANCH   2   6
DOCKED: ENDBRANCH   1   4
DOCKED: BRANCH   1  28
DOCKED: ATOM     28  C21 UNL     1       6.995   0.904  -3.629 +0.00 +0.00    +0.143 C  
DOCKED: BRANCH  28  29
DOCKED: ATOM     29  O5  UNL     1       5.679   0.385  -3.823 +0.00 -0.00    -0.389 OA 
DOCKED: ATOM     30  H40 UNL     1       5.758  -0.571  -3.992 +0.00 +0.00    +0.210 HD 
DOCKED: ENDBRANCH  28  29
DOCKED: BRANCH  28  31
DOCKED: ATOM     31  C22 UNL     1       6.939   2.370  -3.186 +0.00 +0.00    +0.129 C  
DOCKED: BRANCH  31  32
DOCKED: ATOM     32  C23 UNL     1       6.018   2.729  -2.033 +0.00 +0.00    +0.216 C  
DOCKED: ATOM     33  O6  UNL     1       5.576   3.845  -1.798 +0.00 -0.00    -0.276 OA 
DOCKED: ATOM     34  N4  UNL     1       5.726   1.636  -1.229 +0.00 -0.00    -0.304 N  
DOCKED: ATOM     35  H43 UNL     1       5.777   0.736  -1.690 +0.00 +0.00    +0.149 HD 
DOCKED: BRANCH  34  36
DOCKED: ATOM     36  C24 UNL     1       4.687   1.756  -0.210 +0.00 +0.00    +0.161 C  
DOCKED: BRANCH  36  37
DOCKED: ATOM     37  C25 UNL     1       3.906   0.426  -0.182 +0.00 +0.00    +0.234 C  
DOCKED: ATOM     38  O7  UNL     1       4.328  -0.598  -0.726 +0.00 -0.00    -0.274 OA 
DOCKED: ATOM     39  N5  UNL     1       2.731   0.470   0.540 +0.00 -0.00    -0.310 N  
DOCKED: ATOM     40  H45 UNL     1       2.356   1.372   0.805 +0.00 +0.00    +0.149 HD 
DOCKED: BRANCH  39  41
DOCKED: ATOM     41  C26 UNL     1       1.825  -0.656   0.567 +0.00 +0.00    +0.139 C  
DOCKED: BRANCH  41  42
DOCKED: ATOM     42  C27 UNL     1       1.679  -1.381  -0.751 +0.00 -0.00    -0.027 A  
DOCKED: ATOM     43  C28 UNL     1       1.336  -0.612  -1.894 +0.00 +0.00    +0.009 A  
DOCKED: ATOM     44  C29 UNL     1       1.177  -1.207  -3.150 +0.00 +0.00    +0.050 A  
DOCKED: ATOM     45  C30 UNL     1       1.365  -2.568  -3.244 +0.00 +0.00    +0.166 A  
DOCKED: ATOM     46  C31 UNL     1       1.700  -3.323  -2.145 +0.00 +0.00    +0.167 A  
DOCKED: ATOM     47  C32 UNL     1       1.855  -2.769  -0.890 +0.00 +0.00    +0.054 A  
DOCKED: ATOM     48  O8  UNL     1       1.866  -4.636  -2.455 +0.00 -0.00    -0.453 OA 
DOCKED: ATOM     49  C33 UNL     1       1.562  -4.627  -3.863 +0.00 +0.00    +0.466 C  
DOCKED: ATOM     50  O9  UNL     1       1.266  -3.311  -4.376 +0.00 -0.00    -0.453 OA 
DOCKED: ENDBRANCH  41  42
DOCKED: ENDBRANCH  39  41
DOCKED: ENDBRANCH  36  37
DOCKED: BRANCH  36  51
DOCKED: ATOM     51  C34 UNL     1       5.241   2.105   1.188 +0.00 +0.00    +0.012 C  
DOCKED: ATOM     52  C35 UNL     1       4.207   2.754   2.112 +0.00 +0.00    +0.009 C  
DOCKED: ATOM     53  C36 UNL     1       5.837   0.868   1.864 +0.00 +0.00    +0.009 C  
DOCKED: ENDBRANCH  36  51
DOCKED: ENDBRANCH  34  36
DOCKED: ENDBRANCH  31  32
DOCKED: ENDBRANCH  28  31
DOCKED: ENDBRANCH   1  28
DOCKED: BRANCH   1  54
DOCKED: ATOM     54  C17 UNL     1       8.845  -0.940  -3.614 +0.00 +0.00    +0.028 C  
DOCKED: BRANCH  54  55
DOCKED: ATOM     55  C18 UNL     1       8.312  -2.318  -4.067 +0.00 -0.00    -0.015 C  
DOCKED: ATOM     56  C19 UNL     1       8.252  -2.467  -5.587 +0.00 +0.00    +0.007 C  
DOCKED: ATOM     57  C20 UNL     1       9.047  -3.498  -3.436 +0.00 +0.00    +0.007 C  
DOCKED: ENDBRANCH  54  55
DOCKED: ENDBRANCH   1  54
DOCKED: TORSDOF 22
DOCKED: TER
DOCKED: ENDMDL
________________________________________________________________________________


    FINAL DOCKED STATE:
    ________________________


Run:   7 / 20
Time taken for this run:   1.805s

DOCKED: MODEL        7
DOCKED: USER    Run = 7
DOCKED: USER
DOCKED: USER    Estimated Free Energy of Binding    =  +6.56 kcal/mol  [=(1)+(2)+(3)-(4)]
DOCKED: USER
DOCKED: USER    (1) Final Intermolecular Energy     =  +0.00 kcal/mol
DOCKED: USER        vdW + Hbond + desolv Energy     =  +0.00 kcal/mol
DOCKED: USER        Electrostatic Energy            =  +0.00 kcal/mol
DOCKED: USER        Moving Ligand-Fixed Receptor    =  +0.00 kcal/mol
DOCKED: USER        Moving Ligand-Moving Receptor   =  +0.00 kcal/mol
DOCKED: USER    (2) Final Total Internal Energy     = -14.35 kcal/mol
DOCKED: USER    (3) Torsional Free Energy           =  +6.56 kcal/mol
DOCKED: USER    (4) Unbound System's Energy         = -14.35 kcal/mol
DOCKED: USER
DOCKED: USER
DOCKED: REMARK  Name = ligands/ligand_25.pdb
DOCKED: REMARK  32 active torsions:
DOCKED: REMARK  status: ('A' for Active; 'I' for Inactive)
DOCKED: REMARK    1  A    between atoms: C1_1  and  S1_2
DOCKED: REMARK    2  A    between atoms: S1_2  and  C2_3
DOCKED: REMARK    3  A    between atoms: C2_3  and  C3_4
DOCKED: REMARK    4  A    between atoms: C3_4  and  C4_5
DOCKED: REMARK    5  A    between atoms: C4_5  and  N1_6
DOCKED: REMARK    6  A    between atoms: C4_5  and  C15_21
DOCKED: REMARK    7  A    between atoms: C5_7  and  C6_9
DOCKED: REMARK    8  A    between atoms: C6_9  and  N2_10
DOCKED: REMARK    9  A    between atoms: C6_9  and  C12_18
DOCKED: REMARK   10  A    between atoms: C7_11  and  O3_13
DOCKED: REMARK   11  A    between atoms: O3_13  and  C8_14
DOCKED: REMARK   12  A    between atoms: C8_14  and  C9_15
DOCKED: REMARK   13  A    between atoms: C8_14  and  C10_16
DOCKED: REMARK   14  A    between atoms: C8_14  and  C11_17
DOCKED: REMARK   15  A    between atoms: C12_18  and  C13_19
DOCKED: REMARK   16  A    between atoms: C12_18  and  C14_20
DOCKED: REMARK   17  A    between atoms: N3_23  and  C16_24
DOCKED: REMARK   18  A    between atoms: C16_24  and  C17_25
DOCKED: REMARK   19  A    between atoms: C16_24  and  C21_29
DOCKED: REMARK   20  A    between atoms: C17_25  and  C18_26
DOCKED: REMARK   21  A    between atoms: C18_26  and  C19_27
DOCKED: REMARK   22  A    between atoms: C18_26  and  C20_28
DOCKED: REMARK   23  A    between atoms: C21_29  and  O5_30
DOCKED: REMARK   24  A    between atoms: C21_29  and  C22_31
DOCKED: REMARK   25  A    between atoms: C22_31  and  C23_32
DOCKED: REMARK   26  A    between atoms: N4_34  and  C24_35
DOCKED: REMARK   27  A    between atoms: C24_35  and  C25_36
DOCKED: REMARK   28  A    between atoms: C24_35  and  C34_49
DOCKED: REMARK   29  A    between atoms: N5_38  and  C26_39
DOCKED: REMARK   30  A    between atoms: C26_39  and  C27_40
DOCKED: REMARK   31  A    between atoms: C34_49  and  C35_50
DOCKED: REMARK   32  A    between atoms: C34_49  and  C36_51
DOCKED: REMARK                            x       y       z     vdW  Elec       q    Type
DOCKED: REMARK                         _______ _______ _______ _____ _____    ______ ____
DOCKED: USER                              x       y       z     vdW  Elec       q    Type
DOCKED: USER                           _______ _______ _______ _____ _____    ______ ____
DOCKED: ROOT
DOCKED: ATOM      1  C16 UNL     1       7.432  -5.480   1.054 +0.00 +0.00    +0.102 C  
DOCKED: ENDROOT
DOCKED: BRANCH   1   4
DOCKED: ATOM      2  C15 UNL     1       9.370  -4.553  -0.196 +0.00 +0.00    +0.234 C  
DOCKED: ATOM      3  O4  UNL     1      10.128  -5.447   0.185 +0.00 -0.00    -0.274 OA 
DOCKED: ATOM      4  N3  UNL     1       8.055  -4.471   0.202 +0.00 -0.00    -0.308 N  
DOCKED: ATOM      5  H28 UNL     1       7.456  -3.767  -0.227 +0.00 +0.00    +0.149 HD 
DOCKED: BRANCH   2   6
DOCKED: ATOM      6  C4  UNL     1       9.839  -3.445  -1.167 +0.00 +0.00    +0.160 C  
DOCKED: BRANCH   6   7
DOCKED: ATOM      7  N1  UNL     1       9.175  -2.215  -0.745 +0.00 -0.00    -0.302 N  
DOCKED: ATOM      8  C5  UNL     1       9.534  -1.515   0.382 +0.00 +0.00    +0.234 C  
DOCKED: ATOM      9  O1  UNL     1      10.424  -1.897   1.143 +0.00 -0.00    -0.274 OA 
DOCKED: ATOM     10  H9  UNL     1       8.362  -1.934  -1.291 +0.00 +0.00    +0.150 HD 
DOCKED: BRANCH   8  11
DOCKED: ATOM     11  C6  UNL     1       8.725  -0.223   0.621 +0.00 +0.00    +0.165 C  
DOCKED: BRANCH  11  12
DOCKED: ATOM     12  N2  UNL     1       7.578  -0.573   1.449 +0.00 -0.00    -0.270 N  
DOCKED: ATOM     13  C7  UNL     1       6.636  -1.446   0.994 +0.00 +0.00    +0.401 C  
DOCKED: ATOM     14  O2  UNL     1       6.530  -1.823  -0.159 +0.00 -0.00    -0.226 OA 
DOCKED: ATOM     15  H11 UNL     1       7.702  -0.594   2.453 +0.00 +0.00    +0.153 HD 
DOCKED: BRANCH  13  16
DOCKED: ATOM     16  O3  UNL     1       5.863  -1.837   2.032 +0.00 -0.00    -0.445 OA 
DOCKED: BRANCH  16  17
DOCKED: ATOM     17  C8  UNL     1       4.489  -1.380   2.141 +0.00 +0.00    +0.107 C  
DOCKED: ATOM     18  C9  UNL     1       3.678  -1.715   0.882 +0.00 +0.00    +0.055 C  
DOCKED: ATOM     19  C10 UNL     1       4.430   0.115   2.477 +0.00 +0.00    +0.055 C  
DOCKED: ATOM     20  C11 UNL     1       3.910  -2.175   3.319 +0.00 +0.00    +0.055 C  
DOCKED: ENDBRANCH  16  17
DOCKED: ENDBRANCH  13  16
DOCKED: ENDBRANCH  11  12
DOCKED: BRANCH  11  21
DOCKED: ATOM     21  C12 UNL     1       9.560   0.908   1.262 +0.00 +0.00    +0.012 C  
DOCKED: ATOM     22  C13 UNL     1      10.224   1.857   0.258 +0.00 +0.00    +0.009 C  
DOCKED: ATOM     23  C14 UNL     1       8.726   1.713   2.262 +0.00 +0.00    +0.009 C  
DOCKED: ENDBRANCH  11  21
DOCKED: ENDBRANCH   8  11
DOCKED: ENDBRANCH   6   7
DOCKED: BRANCH   6  24
DOCKED: ATOM     24  C3  UNL     1      11.372  -3.303  -1.160 +0.00 +0.00    +0.042 C  
DOCKED: BRANCH  24  25
DOCKED: ATOM     25  C2  UNL     1      11.906  -2.601  -2.409 +0.00 +0.00    +0.071 C  
DOCKED: BRANCH  25  27
DOCKED: ATOM     26  C1  UNL     1      10.297  -0.525  -3.262 +0.00 +0.00    +0.084 C  
DOCKED: ATOM     27  S1  UNL     1      10.570  -2.285  -3.608 +0.00 -0.00    -0.164 S  
DOCKED: ENDBRANCH  25  27
DOCKED: ENDBRANCH  24  25
DOCKED: ENDBRANCH   6  24
DOCKED: ENDBRANCH   2   6
DOCKED: ENDBRANCH   1   4
DOCKED: BRANCH   1  28
DOCKED: ATOM     28  C21 UNL     1       5.889  -5.519   0.832 +0.00 +0.00    +0.143 C  
DOCKED: BRANCH  28  29
DOCKED: ATOM     29  O5  UNL     1       5.370  -4.251   0.428 +0.00 -0.00    -0.389 OA 
DOCKED: ATOM     30  H40 UNL     1       5.858  -3.562   0.912 +0.00 +0.00    +0.210 HD 
DOCKED: ENDBRANCH  28  29
DOCKED: BRANCH  28  31
DOCKED: ATOM     31  C22 UNL     1       5.340  -6.639  -0.059 +0.00 +0.00    +0.129 C  
DOCKED: BRANCH  31  32
DOCKED: ATOM     32  C23 UNL     1       5.422  -6.453  -1.564 +0.00 +0.00    +0.216 C  
DOCKED: ATOM     33  O6  UNL     1       4.734  -7.037  -2.390 +0.00 -0.00    -0.276 OA 
DOCKED: ATOM     34  N4  UNL     1       6.397  -5.537  -1.932 +0.00 -0.00    -0.304 N  
DOCKED: ATOM     35  H43 UNL     1       6.615  -4.835  -1.235 +0.00 +0.00    +0.149 HD 
DOCKED: BRANCH  34  36
DOCKED: ATOM     36  C24 UNL     1       6.460  -5.078  -3.317 +0.00 +0.00    +0.161 C  
DOCKED: BRANCH  36  37
DOCKED: ATOM     37  C25 UNL     1       6.816  -3.577  -3.296 +0.00 +0.00    +0.234 C  
DOCKED: ATOM     38  O7  UNL     1       7.233  -3.014  -2.281 +0.00 -0.00    -0.274 OA 
DOCKED: ATOM     39  N5  UNL     1       6.677  -2.941  -4.513 +0.00 -0.00    -0.310 N  
DOCKED: ATOM     40  H45 UNL     1       6.165  -3.408  -5.250 +0.00 +0.00    +0.149 HD 
DOCKED: BRANCH  39  41
DOCKED: ATOM     41  C26 UNL     1       6.857  -1.513  -4.636 +0.00 +0.00    +0.139 C  
DOCKED: BRANCH  41  42
DOCKED: ATOM     42  C27 UNL     1       6.302  -0.704  -3.485 +0.00 -0.00    -0.027 A  
DOCKED: ATOM     43  C28 UNL     1       4.937  -0.894  -3.142 +0.00 +0.00    +0.009 A  
DOCKED: ATOM     44  C29 UNL     1       4.345  -0.181  -2.093 +0.00 +0.00    +0.050 A  
DOCKED: ATOM     45  C30 UNL     1       5.131   0.713  -1.401 +0.00 +0.00    +0.166 A  
DOCKED: ATOM     46  C31 UNL     1       6.453   0.904  -1.723 +0.00 +0.00    +0.167 A  
DOCKED: ATOM     47  C32 UNL     1       7.066   0.225  -2.757 +0.00 +0.00    +0.054 A  
DOCKED: ATOM     48  O8  UNL     1       7.057   1.807  -0.904 +0.00 -0.00    -0.453 OA 
DOCKED: ATOM     49  C33 UNL     1       5.955   2.188  -0.058 +0.00 +0.00    +0.466 C  
DOCKED: ATOM     50  O9  UNL     1       4.733   1.480  -0.353 +0.00 -0.00    -0.453 OA 
DOCKED: ENDBRANCH  41  42
DOCKED: ENDBRANCH  39  41
DOCKED: ENDBRANCH  36  37
DOCKED: BRANCH  36  51
DOCKED: ATOM     51  C34 UNL     1       7.463  -5.876  -4.179 +0.00 +0.00    +0.012 C  
DOCKED: ATOM     52  C35 UNL     1       7.158  -5.824  -5.678 +0.00 +0.00    +0.009 C  
DOCKED: ATOM     53  C36 UNL     1       8.897  -5.406  -3.924 +0.00 +0.00    +0.009 C  
DOCKED: ENDBRANCH  36  51
DOCKED: ENDBRANCH  34  36
DOCKED: ENDBRANCH  31  32
DOCKED: ENDBRANCH  28  31
DOCKED: ENDBRANCH   1  28
DOCKED: BRANCH   1  54
DOCKED: ATOM     54  C17 UNL     1       7.873  -5.332   2.521 +0.00 +0.00    +0.028 C  
DOCKED: BRANCH  54  55
DOCKED: ATOM     55  C18 UNL     1       8.023  -3.894   3.067 +0.00 -0.00    -0.015 C  
DOCKED: ATOM     56  C19 UNL     1       7.056  -3.582   4.208 +0.00 +0.00    +0.007 C  
DOCKED: ATOM     57  C20 UNL     1       9.455  -3.533   3.456 +0.00 +0.00    +0.007 C  
DOCKED: ENDBRANCH  54  55
DOCKED: ENDBRANCH   1  54
DOCKED: TORSDOF 22
DOCKED: TER
DOCKED: ENDMDL
________________________________________________________________________________


    FINAL DOCKED STATE:
    ________________________


Run:   8 / 20
Time taken for this run:   1.805s

DOCKED: MODEL        8
DOCKED: USER    Run = 8
DOCKED: USER
DOCKED: USER    Estimated Free Energy of Binding    =  +6.56 kcal/mol  [=(1)+(2)+(3)-(4)]
DOCKED: USER
DOCKED: USER    (1) Final Intermolecular Energy     =  +0.00 kcal/mol
DOCKED: USER        vdW + Hbond + desolv Energy     =  +0.00 kcal/mol
DOCKED: USER        Electrostatic Energy            =  +0.00 kcal/mol
DOCKED: USER        Moving Ligand-Fixed Receptor    =  +0.00 kcal/mol
DOCKED: USER        Moving Ligand-Moving Receptor   =  +0.00 kcal/mol
DOCKED: USER    (2) Final Total Internal Energy     = -14.51 kcal/mol
DOCKED: USER    (3) Torsional Free Energy           =  +6.56 kcal/mol
DOCKED: USER    (4) Unbound System's Energy         = -14.51 kcal/mol
DOCKED: USER
DOCKED: USER
DOCKED: REMARK  Name = ligands/ligand_25.pdb
DOCKED: REMARK  32 active torsions:
DOCKED: REMARK  status: ('A' for Active; 'I' for Inactive)
DOCKED: REMARK    1  A    between atoms: C1_1  and  S1_2
DOCKED: REMARK    2  A    between atoms: S1_2  and  C2_3
DOCKED: REMARK    3  A    between atoms: C2_3  and  C3_4
DOCKED: REMARK    4  A    between atoms: C3_4  and  C4_5
DOCKED: REMARK    5  A    between atoms: C4_5  and  N1_6
DOCKED: REMARK    6  A    between atoms: C4_5  and  C15_21
DOCKED: REMARK    7  A    between atoms: C5_7  and  C6_9
DOCKED: REMARK    8  A    between atoms: C6_9  and  N2_10
DOCKED: REMARK    9  A    between atoms: C6_9  and  C12_18
DOCKED: REMARK   10  A    between atoms: C7_11  and  O3_13
DOCKED: REMARK   11  A    between atoms: O3_13  and  C8_14
DOCKED: REMARK   12  A    between atoms: C8_14  and  C9_15
DOCKED: REMARK   13  A    between atoms: C8_14  and  C10_16
DOCKED: REMARK   14  A    between atoms: C8_14  and  C11_17
DOCKED: REMARK   15  A    between atoms: C12_18  and  C13_19
DOCKED: REMARK   16  A    between atoms: C12_18  and  C14_20
DOCKED: REMARK   17  A    between atoms: N3_23  and  C16_24
DOCKED: REMARK   18  A    between atoms: C16_24  and  C17_25
DOCKED: REMARK   19  A    between atoms: C16_24  and  C21_29
DOCKED: REMARK   20  A    between atoms: C17_25  and  C18_26
DOCKED: REMARK   21  A    between atoms: C18_26  and  C19_27
DOCKED: REMARK   22  A    between atoms: C18_26  and  C20_28
DOCKED: REMARK   23  A    between atoms: C21_29  and  O5_30
DOCKED: REMARK   24  A    between atoms: C21_29  and  C22_31
DOCKED: REMARK   25  A    between atoms: C22_31  and  C23_32
DOCKED: REMARK   26  A    between atoms: N4_34  and  C24_35
DOCKED: REMARK   27  A    between atoms: C24_35  and  C25_36
DOCKED: REMARK   28  A    between atoms: C24_35  and  C34_49
DOCKED: REMARK   29  A    between atoms: N5_38  and  C26_39
DOCKED: REMARK   30  A    between atoms: C26_39  and  C27_40
DOCKED: REMARK   31  A    between atoms: C34_49  and  C35_50
DOCKED: REMARK   32  A    between atoms: C34_49  and  C36_51
DOCKED: REMARK                            x       y       z     vdW  Elec       q    Type
DOCKED: REMARK                         _______ _______ _______ _____ _____    ______ ____
DOCKED: USER                              x       y       z     vdW  Elec       q    Type
DOCKED: USER                           _______ _______ _______ _____ _____    ______ ____
DOCKED: ROOT
DOCKED: ATOM      1  C16 UNL     1       8.651  -0.190   1.238 +0.00 +0.00    +0.102 C  
DOCKED: ENDROOT
DOCKED: BRANCH   1   4
DOCKED: ATOM      2  C15 UNL     1       7.972  -1.641  -0.662 +0.00 +0.00    +0.234 C  
DOCKED: ATOM      3  O4  UNL     1       6.800  -1.261  -0.619 +0.00 -0.00    -0.274 OA 
DOCKED: ATOM      4  N3  UNL     1       8.931  -1.199   0.221 +0.00 -0.00    -0.308 N  
DOCKED: ATOM      5  H28 UNL     1       9.901  -1.474   0.070 +0.00 +0.00    +0.149 HD 
DOCKED: BRANCH   2   6
DOCKED: ATOM      6  C4  UNL     1       8.465  -2.646  -1.728 +0.00 +0.00    +0.160 C  
DOCKED: BRANCH   6   7
DOCKED: ATOM      7  N1  UNL     1       9.832  -2.257  -2.065 +0.00 -0.00    -0.302 N  
DOCKED: ATOM      8  C5  UNL     1      10.175  -0.988  -2.465 +0.00 +0.00    +0.234 C  
DOCKED: ATOM      9  O1  UNL     1       9.343  -0.090  -2.604 +0.00 -0.00    -0.274 OA 
DOCKED: ATOM     10  H9  UNL     1      10.523  -3.006  -2.070 +0.00 +0.00    +0.150 HD 
DOCKED: BRANCH   8  11
DOCKED: ATOM     11  C6  UNL     1      11.680  -0.785  -2.737 +0.00 +0.00    +0.165 C  
DOCKED: BRANCH  11  12
DOCKED: ATOM     12  N2  UNL     1      12.318  -0.482  -1.463 +0.00 -0.00    -0.270 N  
DOCKED: ATOM     13  C7  UNL     1      12.387  -1.425  -0.481 +0.00 +0.00    +0.401 C  
DOCKED: ATOM     14  O2  UNL     1      11.765  -2.471  -0.471 +0.00 -0.00    -0.226 OA 
DOCKED: ATOM     15  H11 UNL     1      13.093   0.168  -1.459 +0.00 +0.00    +0.153 HD 
DOCKED: BRANCH  13  16
DOCKED: ATOM     16  O3  UNL     1      13.273  -1.017   0.456 +0.00 -0.00    -0.445 OA 
DOCKED: BRANCH  16  17
DOCKED: ATOM     17  C8  UNL     1      14.469  -1.794   0.727 +0.00 +0.00    +0.107 C  
DOCKED: ATOM     18  C9  UNL     1      15.274  -2.063  -0.551 +0.00 +0.00    +0.055 C  
DOCKED: ATOM     19  C10 UNL     1      14.127  -3.091   1.470 +0.00 +0.00    +0.055 C  
DOCKED: ATOM     20  C11 UNL     1      15.308  -0.901   1.651 +0.00 +0.00    +0.055 C  
DOCKED: ENDBRANCH  16  17
DOCKED: ENDBRANCH  13  16
DOCKED: ENDBRANCH  11  12
DOCKED: BRANCH  11  21
DOCKED: ATOM     21  C12 UNL     1      12.343  -1.999  -3.426 +0.00 +0.00    +0.012 C  
DOCKED: ATOM     22  C13 UNL     1      11.637  -2.469  -4.703 +0.00 +0.00    +0.009 C  
DOCKED: ATOM     23  C14 UNL     1      13.820  -1.729  -3.721 +0.00 +0.00    +0.009 C  
DOCKED: ENDBRANCH  11  21
DOCKED: ENDBRANCH   8  11
DOCKED: ENDBRANCH   6   7
DOCKED: BRANCH   6  24
DOCKED: ATOM     24  C3  UNL     1       8.390  -4.095  -1.211 +0.00 +0.00    +0.042 C  
DOCKED: BRANCH  24  25
DOCKED: ATOM     25  C2  UNL     1       9.524  -4.435  -0.242 +0.00 +0.00    +0.071 C  
DOCKED: BRANCH  25  27
DOCKED: ATOM     26  C1  UNL     1      10.587  -3.550   2.148 +0.00 +0.00    +0.084 C  
DOCKED: ATOM     27  S1  UNL     1       9.014  -4.168   1.488 +0.00 -0.00    -0.164 S  
DOCKED: ENDBRANCH  25  27
DOCKED: ENDBRANCH  24  25
DOCKED: ENDBRANCH   6  24
DOCKED: ENDBRANCH   2   6
DOCKED: ENDBRANCH   1   4
DOCKED: BRANCH   1  28
DOCKED: ATOM     28  C21 UNL     1       8.266   1.170   0.580 +0.00 +0.00    +0.143 C  
DOCKED: BRANCH  28  29
DOCKED: ATOM     29  O5  UNL     1       8.964   1.393  -0.646 +0.00 -0.00    -0.389 OA 
DOCKED: ATOM     30  H40 UNL     1       8.869   0.593  -1.193 +0.00 +0.00    +0.210 HD 
DOCKED: ENDBRANCH  28  29
DOCKED: BRANCH  28  31
DOCKED: ATOM     31  C22 UNL     1       6.772   1.467   0.415 +0.00 +0.00    +0.129 C  
DOCKED: BRANCH  31  32
DOCKED: ATOM     32  C23 UNL     1       6.291   1.964  -0.938 +0.00 +0.00    +0.216 C  
DOCKED: ATOM     33  O6  UNL     1       5.697   3.015  -1.138 +0.00 -0.00    -0.276 OA 
DOCKED: ATOM     34  N4  UNL     1       6.584   1.075  -1.963 +0.00 -0.00    -0.304 N  
DOCKED: ATOM     35  H43 UNL     1       7.387   0.479  -1.800 +0.00 +0.00    +0.149 HD 
DOCKED: BRANCH  34  36
DOCKED: ATOM     36  C24 UNL     1       6.390   1.493  -3.348 +0.00 +0.00    +0.161 C  
DOCKED: BRANCH  36  37
DOCKED: ATOM     37  C25 UNL     1       7.375   2.646  -3.630 +0.00 +0.00    +0.234 C  
DOCKED: ATOM     38  O7  UNL     1       7.181   3.474  -4.524 +0.00 -0.00    -0.274 OA 
DOCKED: ATOM     39  N5  UNL     1       8.453   2.699  -2.771 +0.00 -0.00    -0.310 N  
DOCKED: ATOM     40  H45 UNL     1       8.648   1.898  -2.184 +0.00 +0.00    +0.149 HD 
DOCKED: BRANCH  39  41
DOCKED: ATOM     41  C26 UNL     1       9.526   3.646  -2.973 +0.00 +0.00    +0.139 C  
DOCKED: BRANCH  41  42
DOCKED: ATOM     42  C27 UNL     1      10.914   3.083  -2.765 +0.00 -0.00    -0.027 A  
DOCKED: ATOM     43  C28 UNL     1      11.688   2.792  -3.919 +0.00 +0.00    +0.009 A  
DOCKED: ATOM     44  C29 UNL     1      12.980   2.263  -3.814 +0.00 +0.00    +0.050 A  
DOCKED: ATOM     45  C30 UNL     1      13.479   2.036  -2.551 +0.00 +0.00    +0.166 A  
DOCKED: ATOM     46  C31 UNL     1      12.740   2.315  -1.426 +0.00 +0.00    +0.167 A  
DOCKED: ATOM     47  C32 UNL     1      11.460   2.827  -1.495 +0.00 +0.00    +0.054 A  
DOCKED: ATOM     48  O8  UNL     1      13.422   2.045  -0.282 +0.00 -0.00    -0.453 OA 
DOCKED: ATOM     49  C33 UNL     1      14.657   1.529  -0.815 +0.00 +0.00    +0.466 C  
DOCKED: ATOM     50  O9  UNL     1      14.709   1.542  -2.257 +0.00 -0.00    -0.453 OA 
DOCKED: ENDBRANCH  41  42
DOCKED: ENDBRANCH  39  41
DOCKED: ENDBRANCH  36  37
DOCKED: BRANCH  36  51
DOCKED: ATOM     51  C34 UNL     1       6.573   0.344  -4.363 +0.00 +0.00    +0.012 C  
DOCKED: ATOM     52  C35 UNL     1       7.924   0.372  -5.084 +0.00 +0.00    +0.009 C  
DOCKED: ATOM     53  C36 UNL     1       6.374  -1.017  -3.689 +0.00 +0.00    +0.009 C  
DOCKED: ENDBRANCH  36  51
DOCKED: ENDBRANCH  34  36
DOCKED: ENDBRANCH  31  32
DOCKED: ENDBRANCH  28  31
DOCKED: ENDBRANCH   1  28
DOCKED: BRANCH   1  54
DOCKED: ATOM     54  C17 UNL     1       9.780  -0.109   2.281 +0.00 +0.00    +0.028 C  
DOCKED: BRANCH  54  55
DOCKED: ATOM     55  C18 UNL     1      11.058   0.659   1.873 +0.00 -0.00    -0.015 C  
DOCKED: ATOM     56  C19 UNL     1      10.850   2.171   1.795 +0.00 +0.00    +0.007 C  
DOCKED: ATOM     57  C20 UNL     1      12.275   0.324   2.733 +0.00 +0.00    +0.007 C  
DOCKED: ENDBRANCH  54  55
DOCKED: ENDBRANCH   1  54
DOCKED: TORSDOF 22
DOCKED: TER
DOCKED: ENDMDL
________________________________________________________________________________


    FINAL DOCKED STATE:
    ________________________


Run:   9 / 20
Time taken for this run:   1.805s

DOCKED: MODEL        9
DOCKED: USER    Run = 9
DOCKED: USER
DOCKED: USER    Estimated Free Energy of Binding    =  +6.56 kcal/mol  [=(1)+(2)+(3)-(4)]
DOCKED: USER
DOCKED: USER    (1) Final Intermolecular Energy     =  +0.00 kcal/mol
DOCKED: USER        vdW + Hbond + desolv Energy     =  +0.00 kcal/mol
DOCKED: USER        Electrostatic Energy            =  +0.00 kcal/mol
DOCKED: USER        Moving Ligand-Fixed Receptor    =  +0.00 kcal/mol
DOCKED: USER        Moving Ligand-Moving Receptor   =  +0.00 kcal/mol
DOCKED: USER    (2) Final Total Internal Energy     = -14.35 kcal/mol
DOCKED: USER    (3) Torsional Free Energy           =  +6.56 kcal/mol
DOCKED: USER    (4) Unbound System's Energy         = -14.35 kcal/mol
DOCKED: USER
DOCKED: USER
DOCKED: REMARK  Name = ligands/ligand_25.pdb
DOCKED: REMARK  32 active torsions:
DOCKED: REMARK  status: ('A' for Active; 'I' for Inactive)
DOCKED: REMARK    1  A    between atoms: C1_1  and  S1_2
DOCKED: REMARK    2  A    between atoms: S1_2  and  C2_3
DOCKED: REMARK    3  A    between atoms: C2_3  and  C3_4
DOCKED: REMARK    4  A    between atoms: C3_4  and  C4_5
DOCKED: REMARK    5  A    between atoms: C4_5  and  N1_6
DOCKED: REMARK    6  A    between atoms: C4_5  and  C15_21
DOCKED: REMARK    7  A    between atoms: C5_7  and  C6_9
DOCKED: REMARK    8  A    between atoms: C6_9  and  N2_10
DOCKED: REMARK    9  A    between atoms: C6_9  and  C12_18
DOCKED: REMARK   10  A    between atoms: C7_11  and  O3_13
DOCKED: REMARK   11  A    between atoms: O3_13  and  C8_14
DOCKED: REMARK   12  A    between atoms: C8_14  and  C9_15
DOCKED: REMARK   13  A    between atoms: C8_14  and  C10_16
DOCKED: REMARK   14  A    between atoms: C8_14  and  C11_17
DOCKED: REMARK   15  A    between atoms: C12_18  and  C13_19
DOCKED: REMARK   16  A    between atoms: C12_18  and  C14_20
DOCKED: REMARK   17  A    between atoms: N3_23  and  C16_24
DOCKED: REMARK   18  A    between atoms: C16_24  and  C17_25
DOCKED: REMARK   19  A    between atoms: C16_24  and  C21_29
DOCKED: REMARK   20  A    between atoms: C17_25  and  C18_26
DOCKED: REMARK   21  A    between atoms: C18_26  and  C19_27
DOCKED: REMARK   22  A    between atoms: C18_26  and  C20_28
DOCKED: REMARK   23  A    between atoms: C21_29  and  O5_30
DOCKED: REMARK   24  A    between atoms: C21_29  and  C22_31
DOCKED: REMARK   25  A    between atoms: C22_31  and  C23_32
DOCKED: REMARK   26  A    between atoms: N4_34  and  C24_35
DOCKED: REMARK   27  A    between atoms: C24_35  and  C25_36
DOCKED: REMARK   28  A    between atoms: C24_35  and  C34_49
DOCKED: REMARK   29  A    between atoms: N5_38  and  C26_39
DOCKED: REMARK   30  A    between atoms: C26_39  and  C27_40
DOCKED: REMARK   31  A    between atoms: C34_49  and  C35_50
DOCKED: REMARK   32  A    between atoms: C34_49  and  C36_51
DOCKED: REMARK                            x       y       z     vdW  Elec       q    Type
DOCKED: REMARK                         _______ _______ _______ _____ _____    ______ ____
DOCKED: USER                              x       y       z     vdW  Elec       q    Type
DOCKED: USER                           _______ _______ _______ _____ _____    ______ ____
DOCKED: ROOT
DOCKED: ATOM      1  C16 UNL     1       8.418  -2.248   0.163 +0.00 +0.00    +0.102 C  
DOCKED: ENDROOT
DOCKED: BRANCH   1   4
DOCKED: ATOM      2  C15 UNL     1       7.450  -3.454  -1.783 +0.00 +0.00    +0.234 C  
DOCKED: ATOM      3  O4  UNL     1       8.270  -2.978  -2.570 +0.00 -0.00    -0.274 OA 
DOCKED: ATOM      4  N3  UNL     1       7.427  -3.131  -0.445 +0.00 -0.00    -0.308 N  
DOCKED: ATOM      5  H28 UNL     1       6.789  -3.635   0.170 +0.00 +0.00    +0.149 HD 
DOCKED: BRANCH   2   6
DOCKED: ATOM      6  C4  UNL     1       6.378  -4.470  -2.238 +0.00 +0.00    +0.160 C  
DOCKED: BRANCH   6   7
DOCKED: ATOM      7  N1  UNL     1       5.168  -4.166  -1.478 +0.00 -0.00    -0.302 N  
DOCKED: ATOM      8  C5  UNL     1       4.366  -3.082  -1.745 +0.00 +0.00    +0.234 C  
DOCKED: ATOM      9  O1  UNL     1       4.631  -2.263  -2.626 +0.00 -0.00    -0.274 OA 
DOCKED: ATOM     10  H9  UNL     1       4.984  -4.760  -0.671 +0.00 +0.00    +0.150 HD 
DOCKED: BRANCH   8  11
DOCKED: ATOM     11  C6  UNL     1       3.118  -2.969  -0.844 +0.00 +0.00    +0.165 C  
DOCKED: BRANCH  11  12
DOCKED: ATOM     12  N2  UNL     1       3.487  -2.165   0.313 +0.00 -0.00    -0.270 N  
DOCKED: ATOM     13  C7  UNL     1       4.445  -2.596   1.181 +0.00 +0.00    +0.401 C  
DOCKED: ATOM     14  O2  UNL     1       4.900  -3.725   1.215 +0.00 -0.00    -0.226 OA 
DOCKED: ATOM     15  H11 UNL     1       3.436  -1.157   0.231 +0.00 +0.00    +0.153 HD 
DOCKED: BRANCH  13  16
DOCKED: ATOM     16  O3  UNL     1       4.817  -1.565   1.971 +0.00 -0.00    -0.445 OA 
DOCKED: BRANCH  16  17
DOCKED: ATOM     17  C8  UNL     1       4.419  -1.526   3.367 +0.00 +0.00    +0.107 C  
DOCKED: ATOM     18  C9  UNL     1       4.860  -2.789   4.120 +0.00 +0.00    +0.055 C  
DOCKED: ATOM     19  C10 UNL     1       2.913  -1.276   3.504 +0.00 +0.00    +0.055 C  
DOCKED: ATOM     20  C11 UNL     1       5.175  -0.324   3.951 +0.00 +0.00    +0.055 C  
DOCKED: ENDBRANCH  16  17
DOCKED: ENDBRANCH  13  16
DOCKED: ENDBRANCH  11  12
DOCKED: BRANCH  11  21
DOCKED: ATOM     21  C12 UNL     1       1.891  -2.379  -1.575 +0.00 +0.00    +0.012 C  
DOCKED: ATOM     22  C13 UNL     1       0.959  -3.423  -2.200 +0.00 +0.00    +0.009 C  
DOCKED: ATOM     23  C14 UNL     1       1.090  -1.455  -0.654 +0.00 +0.00    +0.009 C  
DOCKED: ENDBRANCH  11  21
DOCKED: ENDBRANCH   8  11
DOCKED: ENDBRANCH   6   7
DOCKED: BRANCH   6  24
DOCKED: ATOM     24  C3  UNL     1       6.137  -4.392  -3.757 +0.00 +0.00    +0.042 C  
DOCKED: BRANCH  24  25
DOCKED: ATOM     25  C2  UNL     1       5.465  -5.648  -4.314 +0.00 +0.00    +0.071 C  
DOCKED: BRANCH  25  27
DOCKED: ATOM     26  C1  UNL     1       3.556  -6.725  -2.635 +0.00 +0.00    +0.084 C  
DOCKED: ATOM     27  S1  UNL     1       5.313  -6.936  -3.033 +0.00 -0.00    -0.164 S  
DOCKED: ENDBRANCH  25  27
DOCKED: ENDBRANCH  24  25
DOCKED: ENDBRANCH   6  24
DOCKED: ENDBRANCH   2   6
DOCKED: ENDBRANCH   1   4
DOCKED: BRANCH   1  28
DOCKED: ATOM     28  C21 UNL     1       8.554  -2.533   1.690 +0.00 +0.00    +0.143 C  
DOCKED: BRANCH  28  29
DOCKED: ATOM     29  O5  UNL     1       7.343  -3.038   2.254 +0.00 -0.00    -0.389 OA 
DOCKED: ATOM     30  H40 UNL     1       6.601  -2.552   1.851 +0.00 +0.00    +0.210 HD 
DOCKED: ENDBRANCH  28  29
DOCKED: BRANCH  28  31
DOCKED: ATOM     31  C22 UNL     1       9.753  -3.375   2.138 +0.00 +0.00    +0.129 C  
DOCKED: BRANCH  31  32
DOCKED: ATOM     32  C23 UNL     1       9.657  -4.884   1.990 +0.00 +0.00    +0.216 C  
DOCKED: ATOM     33  O6  UNL     1      10.328  -5.702   2.605 +0.00 -0.00    -0.276 OA 
DOCKED: ATOM     34  N4  UNL     1       8.715  -5.264   1.044 +0.00 -0.00    -0.304 N  
DOCKED: ATOM     35  H43 UNL     1       7.961  -4.603   0.898 +0.00 +0.00    +0.149 HD 
DOCKED: BRANCH  34  36
DOCKED: ATOM     36  C24 UNL     1       8.340  -6.670   0.934 +0.00 +0.00    +0.161 C  
DOCKED: BRANCH  36  37
DOCKED: ATOM     37  C25 UNL     1       6.822  -6.730   0.668 +0.00 +0.00    +0.234 C  
DOCKED: ATOM     38  O7  UNL     1       6.176  -5.739   0.319 +0.00 -0.00    -0.274 OA 
DOCKED: ATOM     39  N5  UNL     1       6.268  -7.986   0.803 +0.00 -0.00    -0.310 N  
DOCKED: ATOM     40  H45 UNL     1       6.807  -8.709   1.261 +0.00 +0.00    +0.149 HD 
DOCKED: BRANCH  39  41
DOCKED: ATOM     41  C26 UNL     1       4.841  -8.190   0.702 +0.00 +0.00    +0.139 C  
DOCKED: BRANCH  41  42
DOCKED: ATOM     42  C27 UNL     1       4.001  -7.111   1.346 +0.00 -0.00    -0.027 A  
DOCKED: ATOM     43  C28 UNL     1       4.261  -6.795   2.706 +0.00 +0.00    +0.009 A  
DOCKED: ATOM     44  C29 UNL     1       3.524  -5.812   3.377 +0.00 +0.00    +0.050 A  
DOCKED: ATOM     45  C30 UNL     1       2.538  -5.157   2.675 +0.00 +0.00    +0.166 A  
DOCKED: ATOM     46  C31 UNL     1       2.279  -5.453   1.357 +0.00 +0.00    +0.167 A  
DOCKED: ATOM     47  C32 UNL     1       2.979  -6.423   0.669 +0.00 +0.00    +0.054 A  
DOCKED: ATOM     48  O8  UNL     1       1.289  -4.678   0.841 +0.00 -0.00    -0.453 OA 
DOCKED: ATOM     49  C33 UNL     1       0.930  -3.889   1.992 +0.00 +0.00    +0.466 C  
DOCKED: ATOM     50  O9  UNL     1       1.736  -4.172   3.155 +0.00 -0.00    -0.453 OA 
DOCKED: ENDBRANCH  41  42
DOCKED: ENDBRANCH  39  41
DOCKED: ENDBRANCH  36  37
DOCKED: BRANCH  36  51
DOCKED: ATOM     51  C34 UNL     1       9.128  -7.428  -0.157 +0.00 +0.00    +0.012 C  
DOCKED: ATOM     52  C35 UNL     1       9.190  -8.940   0.071 +0.00 +0.00    +0.009 C  
DOCKED: ATOM     53  C36 UNL     1       8.553  -7.135  -1.546 +0.00 +0.00    +0.009 C  
DOCKED: ENDBRANCH  36  51
DOCKED: ENDBRANCH  34  36
DOCKED: ENDBRANCH  31  32
DOCKED: ENDBRANCH  28  31
DOCKED: ENDBRANCH   1  28
DOCKED: BRANCH   1  54
DOCKED: ATOM     54  C17 UNL     1       8.163  -0.775  -0.202 +0.00 +0.00    +0.028 C  
DOCKED: BRANCH  54  55
DOCKED: ATOM     55  C18 UNL     1       6.690  -0.309  -0.252 +0.00 -0.00    -0.015 C  
DOCKED: ATOM     56  C19 UNL     1       6.372   0.787   0.763 +0.00 +0.00    +0.007 C  
DOCKED: ATOM     57  C20 UNL     1       6.222   0.094  -1.649 +0.00 +0.00    +0.007 C  
DOCKED: ENDBRANCH  54  55
DOCKED: ENDBRANCH   1  54
DOCKED: TORSDOF 22
DOCKED: TER
DOCKED: ENDMDL
________________________________________________________________________________


    FINAL DOCKED STATE:
    ________________________


Run:   10 / 20
Time taken for this run:   1.805s

DOCKED: MODEL        10
DOCKED: USER    Run = 10
DOCKED: USER
DOCKED: USER    Estimated Free Energy of Binding    =  +6.56 kcal/mol  [=(1)+(2)+(3)-(4)]
DOCKED: USER
DOCKED: USER    (1) Final Intermolecular Energy     =  +0.00 kcal/mol
DOCKED: USER        vdW + Hbond + desolv Energy     =  +0.00 kcal/mol
DOCKED: USER        Electrostatic Energy            =  +0.00 kcal/mol
DOCKED: USER        Moving Ligand-Fixed Receptor    =  +0.00 kcal/mol
DOCKED: USER        Moving Ligand-Moving Receptor   =  +0.00 kcal/mol
DOCKED: USER    (2) Final Total Internal Energy     = -14.28 kcal/mol
DOCKED: USER    (3) Torsional Free Energy           =  +6.56 kcal/mol
DOCKED: USER    (4) Unbound System's Energy         = -14.28 kcal/mol
DOCKED: USER
DOCKED: USER
DOCKED: REMARK  Name = ligands/ligand_25.pdb
DOCKED: REMARK  32 active torsions:
DOCKED: REMARK  status: ('A' for Active; 'I' for Inactive)
DOCKED: REMARK    1  A    between atoms: C1_1  and  S1_2
DOCKED: REMARK    2  A    between atoms: S1_2  and  C2_3
DOCKED: REMARK    3  A    between atoms: C2_3  and  C3_4
DOCKED: REMARK    4  A    between atoms: C3_4  and  C4_5
DOCKED: REMARK    5  A    between atoms: C4_5  and  N1_6
DOCKED: REMARK    6  A    between atoms: C4_5  and  C15_21
DOCKED: REMARK    7  A    between atoms: C5_7  and  C6_9
DOCKED: REMARK    8  A    between atoms: C6_9  and  N2_10
DOCKED: REMARK    9  A    between atoms: C6_9  and  C12_18
DOCKED: REMARK   10  A    between atoms: C7_11  and  O3_13
DOCKED: REMARK   11  A    between atoms: O3_13  and  C8_14
DOCKED: REMARK   12  A    between atoms: C8_14  and  C9_15
DOCKED: REMARK   13  A    between atoms: C8_14  and  C10_16
DOCKED: REMARK   14  A    between atoms: C8_14  and  C11_17
DOCKED: REMARK   15  A    between atoms: C12_18  and  C13_19
DOCKED: REMARK   16  A    between atoms: C12_18  and  C14_20
DOCKED: REMARK   17  A    between atoms: N3_23  and  C16_24
DOCKED: REMARK   18  A    between atoms: C16_24  and  C17_25
DOCKED: REMARK   19  A    between atoms: C16_24  and  C21_29
DOCKED: REMARK   20  A    between atoms: C17_25  and  C18_26
DOCKED: REMARK   21  A    between atoms: C18_26  and  C19_27
DOCKED: REMARK   22  A    between atoms: C18_26  and  C20_28
DOCKED: REMARK   23  A    between atoms: C21_29  and  O5_30
DOCKED: REMARK   24  A    between atoms: C21_29  and  C22_31
DOCKED: REMARK   25  A    between atoms: C22_31  and  C23_32
DOCKED: REMARK   26  A    between atoms: N4_34  and  C24_35
DOCKED: REMARK   27  A    between atoms: C24_35  and  C25_36
DOCKED: REMARK   28  A    between atoms: C24_35  and  C34_49
DOCKED: REMARK   29  A    between atoms: N5_38  and  C26_39
DOCKED: REMARK   30  A    between atoms: C26_39  and  C27_40
DOCKED: REMARK   31  A    between atoms: C34_49  and  C35_50
DOCKED: REMARK   32  A    between atoms: C34_49  and  C36_51
DOCKED: REMARK                            x       y       z     vdW  Elec       q    Type
DOCKED: REMARK                         _______ _______ _______ _____ _____    ______ ____
DOCKED: USER                              x       y       z     vdW  Elec       q    Type
DOCKED: USER                           _______ _______ _______ _____ _____    ______ ____
DOCKED: ROOT
DOCKED: ATOM      1  C16 UNL     1       9.224   0.325  -1.830 +0.00 +0.00    +0.102 C  
DOCKED: ENDROOT
DOCKED: BRANCH   1   4
DOCKED: ATOM      2  C15 UNL     1       9.959   1.108   0.411 +0.00 +0.00    +0.234 C  
DOCKED: ATOM      3  O4  UNL     1       9.618   2.271   0.189 +0.00 -0.00    -0.274 OA 
DOCKED: ATOM      4  N3  UNL     1       9.835   0.105  -0.523 +0.00 -0.00    -0.308 N  
DOCKED: ATOM      5  H28 UNL     1      10.042  -0.854  -0.244 +0.00 +0.00    +0.149 HD 
DOCKED: BRANCH   2   6
DOCKED: ATOM      6  C4  UNL     1      10.551   0.677   1.773 +0.00 +0.00    +0.160 C  
DOCKED: BRANCH   6   7
DOCKED: ATOM      7  N1  UNL     1      11.597  -0.299   1.480 +0.00 -0.00    -0.302 N  
DOCKED: ATOM      8  C5  UNL     1      12.814   0.042   0.942 +0.00 +0.00    +0.234 C  
DOCKED: ATOM      9  O1  UNL     1      13.099   1.198   0.629 +0.00 -0.00    -0.274 OA 
DOCKED: ATOM     10  H9  UNL     1      11.349  -1.278   1.622 +0.00 +0.00    +0.150 HD 
DOCKED: BRANCH   8  11
DOCKED: ATOM     11  C6  UNL     1      13.785  -1.142   0.748 +0.00 +0.00    +0.165 C  
DOCKED: BRANCH  11  12
DOCKED: ATOM     12  N2  UNL     1      13.062  -2.360   1.085 +0.00 -0.00    -0.270 N  
DOCKED: ATOM     13  C7  UNL     1      11.999  -2.767   0.334 +0.00 +0.00    +0.401 C  
DOCKED: ATOM     14  O2  UNL     1      11.431  -2.085  -0.500 +0.00 -0.00    -0.226 OA 
DOCKED: ATOM     15  H11 UNL     1      13.578  -3.123   1.505 +0.00 +0.00    +0.153 HD 
DOCKED: BRANCH  13  16
DOCKED: ATOM     16  O3  UNL     1      11.702  -4.047   0.651 +0.00 -0.00    -0.445 OA 
DOCKED: BRANCH  16  17
DOCKED: ATOM     17  C8  UNL     1      11.011  -4.900  -0.299 +0.00 +0.00    +0.107 C  
DOCKED: ATOM     18  C9  UNL     1      11.547  -4.715  -1.725 +0.00 +0.00    +0.055 C  
DOCKED: ATOM     19  C10 UNL     1       9.494  -4.687  -0.228 +0.00 +0.00    +0.055 C  
DOCKED: ATOM     20  C11 UNL     1      11.332  -6.329   0.160 +0.00 +0.00    +0.055 C  
DOCKED: ENDBRANCH  16  17
DOCKED: ENDBRANCH  13  16
DOCKED: ENDBRANCH  11  12
DOCKED: BRANCH  11  21
DOCKED: ATOM     21  C12 UNL     1      14.380  -1.214  -0.676 +0.00 +0.00    +0.012 C  
DOCKED: ATOM     22  C13 UNL     1      15.303  -0.045  -1.041 +0.00 +0.00    +0.009 C  
DOCKED: ATOM     23  C14 UNL     1      15.110  -2.540  -0.904 +0.00 +0.00    +0.009 C  
DOCKED: ENDBRANCH  11  21
DOCKED: ENDBRANCH   8  11
DOCKED: ENDBRANCH   6   7
DOCKED: BRANCH   6  24
DOCKED: ATOM     24  C3  UNL     1      11.095   1.885   2.557 +0.00 +0.00    +0.042 C  
DOCKED: BRANCH  24  25
DOCKED: ATOM     25  C2  UNL     1      10.686   1.865   4.031 +0.00 +0.00    +0.071 C  
DOCKED: BRANCH  25  27
DOCKED: ATOM     26  C1  UNL     1      13.443   1.741   3.923 +0.00 +0.00    +0.084 C  
DOCKED: ATOM     27  S1  UNL     1      12.129   2.112   5.117 +0.00 -0.00    -0.164 S  
DOCKED: ENDBRANCH  25  27
DOCKED: ENDBRANCH  24  25
DOCKED: ENDBRANCH   6  24
DOCKED: ENDBRANCH   2   6
DOCKED: ENDBRANCH   1   4
DOCKED: BRANCH   1  28
DOCKED: ATOM     28  C21 UNL     1       8.493  -0.961  -2.326 +0.00 +0.00    +0.143 C  
DOCKED: BRANCH  28  29
DOCKED: ATOM     29  O5  UNL     1       9.104  -2.153  -1.832 +0.00 -0.00    -0.389 OA 
DOCKED: ATOM     30  H40 UNL     1       9.296  -2.020  -0.886 +0.00 +0.00    +0.210 HD 
DOCKED: ENDBRANCH  28  29
DOCKED: BRANCH  28  31
DOCKED: ATOM     31  C22 UNL     1       6.973  -1.013  -2.141 +0.00 +0.00    +0.129 C  
DOCKED: BRANCH  31  32
DOCKED: ATOM     32  C23 UNL     1       6.436  -1.340  -0.758 +0.00 +0.00    +0.216 C  
DOCKED: ATOM     33  O6  UNL     1       5.317  -1.769  -0.514 +0.00 -0.00    -0.276 OA 
DOCKED: ATOM     34  N4  UNL     1       7.362  -1.080   0.243 +0.00 -0.00    -0.304 N  
DOCKED: ATOM     35  H43 UNL     1       8.332  -1.127  -0.044 +0.00 +0.00    +0.149 HD 
DOCKED: BRANCH  34  36
DOCKED: ATOM     36  C24 UNL     1       7.092  -1.540   1.602 +0.00 +0.00    +0.161 C  
DOCKED: BRANCH  36  37
DOCKED: ATOM     37  C25 UNL     1       8.339  -2.304   2.093 +0.00 +0.00    +0.234 C  
DOCKED: ATOM     38  O7  UNL     1       9.425  -2.233   1.513 +0.00 -0.00    -0.274 OA 
DOCKED: ATOM     39  N5  UNL     1       8.146  -3.023   3.255 +0.00 -0.00    -0.310 N  
DOCKED: ATOM     40  H45 UNL     1       7.201  -3.185   3.576 +0.00 +0.00    +0.149 HD 
DOCKED: BRANCH  39  41
DOCKED: ATOM     41  C26 UNL     1       9.179  -3.886   3.781 +0.00 +0.00    +0.139 C  
DOCKED: BRANCH  41  42
DOCKED: ATOM     42  C27 UNL     1      10.517  -3.214   3.991 +0.00 -0.00    -0.027 A  
DOCKED: ATOM     43  C28 UNL     1      10.525  -1.935   4.608 +0.00 +0.00    +0.009 A  
DOCKED: ATOM     44  C29 UNL     1      11.721  -1.244   4.833 +0.00 +0.00    +0.050 A  
DOCKED: ATOM     45  C30 UNL     1      12.894  -1.846   4.439 +0.00 +0.00    +0.166 A  
DOCKED: ATOM     46  C31 UNL     1      12.900  -3.085   3.843 +0.00 +0.00    +0.167 A  
DOCKED: ATOM     47  C32 UNL     1      11.738  -3.789   3.597 +0.00 +0.00    +0.054 A  
DOCKED: ATOM     48  O8  UNL     1      14.158  -3.512   3.555 +0.00 -0.00    -0.453 OA 
DOCKED: ATOM     49  C33 UNL     1      14.939  -2.387   4.003 +0.00 +0.00    +0.466 C  
DOCKED: ATOM     50  O9  UNL     1      14.144  -1.334   4.587 +0.00 -0.00    -0.453 OA 
DOCKED: ENDBRANCH  41  42
DOCKED: ENDBRANCH  39  41
DOCKED: ENDBRANCH  36  37
DOCKED: BRANCH  36  51
DOCKED: ATOM     51  C34 UNL     1       6.722  -0.396   2.571 +0.00 +0.00    +0.012 C  
DOCKED: ATOM     52  C35 UNL     1       7.821  -0.075   3.588 +0.00 +0.00    +0.009 C  
DOCKED: ATOM     53  C36 UNL     1       6.343   0.872   1.800 +0.00 +0.00    +0.009 C  
DOCKED: ENDBRANCH  36  51
DOCKED: ENDBRANCH  34  36
DOCKED: ENDBRANCH  31  32
DOCKED: ENDBRANCH  28  31
DOCKED: ENDBRANCH   1  28
DOCKED: BRANCH   1  54
DOCKED: ATOM     54  C17 UNL     1      10.228   0.927  -2.830 +0.00 +0.00    +0.028 C  
DOCKED: BRANCH  54  55
DOCKED: ATOM     55  C18 UNL     1      11.721   0.596  -2.610 +0.00 -0.00    -0.015 C  
DOCKED: ATOM     56  C19 UNL     1      12.168  -0.673  -3.334 +0.00 +0.00    +0.007 C  
DOCKED: ATOM     57  C20 UNL     1      12.659   1.758  -2.928 +0.00 +0.00    +0.007 C  
DOCKED: ENDBRANCH  54  55
DOCKED: ENDBRANCH   1  54
DOCKED: TORSDOF 22
DOCKED: TER
DOCKED: ENDMDL
________________________________________________________________________________


    FINAL DOCKED STATE:
    ________________________


Run:   11 / 20
Time taken for this run:   1.805s

DOCKED: MODEL        11
DOCKED: USER    Run = 11
DOCKED: USER
DOCKED: USER    Estimated Free Energy of Binding    =  +6.56 kcal/mol  [=(1)+(2)+(3)-(4)]
DOCKED: USER
DOCKED: USER    (1) Final Intermolecular Energy     =  +0.00 kcal/mol
DOCKED: USER        vdW + Hbond + desolv Energy     =  +0.00 kcal/mol
DOCKED: USER        Electrostatic Energy            =  +0.00 kcal/mol
DOCKED: USER        Moving Ligand-Fixed Receptor    =  +0.00 kcal/mol
DOCKED: USER        Moving Ligand-Moving Receptor   =  +0.00 kcal/mol
DOCKED: USER    (2) Final Total Internal Energy     = -14.34 kcal/mol
DOCKED: USER    (3) Torsional Free Energy           =  +6.56 kcal/mol
DOCKED: USER    (4) Unbound System's Energy         = -14.34 kcal/mol
DOCKED: USER
DOCKED: USER
DOCKED: REMARK  Name = ligands/ligand_25.pdb
DOCKED: REMARK  32 active torsions:
DOCKED: REMARK  status: ('A' for Active; 'I' for Inactive)
DOCKED: REMARK    1  A    between atoms: C1_1  and  S1_2
DOCKED: REMARK    2  A    between atoms: S1_2  and  C2_3
DOCKED: REMARK    3  A    between atoms: C2_3  and  C3_4
DOCKED: REMARK    4  A    between atoms: C3_4  and  C4_5
DOCKED: REMARK    5  A    between atoms: C4_5  and  N1_6
DOCKED: REMARK    6  A    between atoms: C4_5  and  C15_21
DOCKED: REMARK    7  A    between atoms: C5_7  and  C6_9
DOCKED: REMARK    8  A    between atoms: C6_9  and  N2_10
DOCKED: REMARK    9  A    between atoms: C6_9  and  C12_18
DOCKED: REMARK   10  A    between atoms: C7_11  and  O3_13
DOCKED: REMARK   11  A    between atoms: O3_13  and  C8_14
DOCKED: REMARK   12  A    between atoms: C8_14  and  C9_15
DOCKED: REMARK   13  A    between atoms: C8_14  and  C10_16
DOCKED: REMARK   14  A    between atoms: C8_14  and  C11_17
DOCKED: REMARK   15  A    between atoms: C12_18  and  C13_19
DOCKED: REMARK   16  A    between atoms: C12_18  and  C14_20
DOCKED: REMARK   17  A    between atoms: N3_23  and  C16_24
DOCKED: REMARK   18  A    between atoms: C16_24  and  C17_25
DOCKED: REMARK   19  A    between atoms: C16_24  and  C21_29
DOCKED: REMARK   20  A    between atoms: C17_25  and  C18_26
DOCKED: REMARK   21  A    between atoms: C18_26  and  C19_27
DOCKED: REMARK   22  A    between atoms: C18_26  and  C20_28
DOCKED: REMARK   23  A    between atoms: C21_29  and  O5_30
DOCKED: REMARK   24  A    between atoms: C21_29  and  C22_31
DOCKED: REMARK   25  A    between atoms: C22_31  and  C23_32
DOCKED: REMARK   26  A    between atoms: N4_34  and  C24_35
DOCKED: REMARK   27  A    between atoms: C24_35  and  C25_36
DOCKED: REMARK   28  A    between atoms: C24_35  and  C34_49
DOCKED: REMARK   29  A    between atoms: N5_38  and  C26_39
DOCKED: REMARK   30  A    between atoms: C26_39  and  C27_40
DOCKED: REMARK   31  A    between atoms: C34_49  and  C35_50
DOCKED: REMARK   32  A    between atoms: C34_49  and  C36_51
DOCKED: REMARK                            x       y       z     vdW  Elec       q    Type
DOCKED: REMARK                         _______ _______ _______ _____ _____    ______ ____
DOCKED: USER                              x       y       z     vdW  Elec       q    Type
DOCKED: USER                           _______ _______ _______ _____ _____    ______ ____
DOCKED: ROOT
DOCKED: ATOM      1  C16 UNL     1      10.069  -6.615  -7.071 +0.00 +0.00    +0.102 C  
DOCKED: ENDROOT
DOCKED: BRANCH   1   4
DOCKED: ATOM      2  C15 UNL     1      10.936  -5.228  -5.199 +0.00 +0.00    +0.234 C  
DOCKED: ATOM      3  O4  UNL     1      12.112  -5.451  -5.492 +0.00 -0.00    -0.274 OA 
DOCKED: ATOM      4  N3  UNL     1       9.880  -5.777  -5.890 +0.00 -0.00    -0.308 N  
DOCKED: ATOM      5  H28 UNL     1       8.934  -5.474  -5.662 +0.00 +0.00    +0.149 HD 
DOCKED: BRANCH   2   6
DOCKED: ATOM      6  C4  UNL     1      10.550  -4.297  -4.027 +0.00 +0.00    +0.160 C  
DOCKED: BRANCH   6   7
DOCKED: ATOM      7  N1  UNL     1       9.368  -4.886  -3.402 +0.00 -0.00    -0.302 N  
DOCKED: ATOM      8  C5  UNL     1       9.415  -6.017  -2.623 +0.00 +0.00    +0.234 C  
DOCKED: ATOM      9  O1  UNL     1      10.458  -6.642  -2.426 +0.00 -0.00    -0.274 OA 
DOCKED: ATOM     10  H9  UNL     1       8.474  -4.458  -3.639 +0.00 +0.00    +0.150 HD 
DOCKED: BRANCH   8  11
DOCKED: ATOM     11  C6  UNL     1       8.057  -6.447  -2.030 +0.00 +0.00    +0.165 C  
DOCKED: BRANCH  11  12
DOCKED: ATOM     12  N2  UNL     1       7.439  -7.367  -2.976 +0.00 -0.00    -0.270 N  
DOCKED: ATOM     13  C7  UNL     1       7.111  -6.954  -4.232 +0.00 +0.00    +0.401 C  
DOCKED: ATOM     14  O2  UNL     1       7.084  -5.794  -4.602 +0.00 -0.00    -0.226 OA 
DOCKED: ATOM     15  H11 UNL     1       7.687  -8.347  -2.921 +0.00 +0.00    +0.153 HD 
DOCKED: BRANCH  13  16
DOCKED: ATOM     16  O3  UNL     1       6.848  -8.038  -4.996 +0.00 -0.00    -0.445 OA 
DOCKED: BRANCH  16  17
DOCKED: ATOM     17  C8  UNL     1       5.489  -8.334  -5.412 +0.00 +0.00    +0.107 C  
DOCKED: ATOM     18  C9  UNL     1       4.850  -7.152  -6.152 +0.00 +0.00    +0.055 C  
DOCKED: ATOM     19  C10 UNL     1       4.636  -8.792  -4.223 +0.00 +0.00    +0.055 C  
DOCKED: ATOM     20  C11 UNL     1       5.633  -9.503  -6.396 +0.00 +0.00    +0.055 C  
DOCKED: ENDBRANCH  16  17
DOCKED: ENDBRANCH  13  16
DOCKED: ENDBRANCH  11  12
DOCKED: BRANCH  11  21
DOCKED: ATOM     21  C12 UNL     1       8.178  -7.077  -0.625 +0.00 +0.00    +0.012 C  
DOCKED: ATOM     22  C13 UNL     1       8.021  -6.086   0.533 +0.00 +0.00    +0.009 C  
DOCKED: ATOM     23  C14 UNL     1       7.192  -8.235  -0.452 +0.00 +0.00    +0.009 C  
DOCKED: ENDBRANCH  11  21
DOCKED: ENDBRANCH   8  11
DOCKED: ENDBRANCH   6   7
DOCKED: BRANCH   6  24
DOCKED: ATOM     24  C3  UNL     1      11.710  -4.139  -3.028 +0.00 +0.00    +0.042 C  
DOCKED: BRANCH  24  25
DOCKED: ATOM     25  C2  UNL     1      11.556  -2.907  -2.134 +0.00 +0.00    +0.071 C  
DOCKED: BRANCH  25  27
DOCKED: ATOM     26  C1  UNL     1       8.969  -2.364  -1.334 +0.00 +0.00    +0.084 C  
DOCKED: ATOM     27  S1  UNL     1      10.129  -1.896  -2.647 +0.00 -0.00    -0.164 S  
DOCKED: ENDBRANCH  25  27
DOCKED: ENDBRANCH  24  25
DOCKED: ENDBRANCH   6  24
DOCKED: ENDBRANCH   2   6
DOCKED: ENDBRANCH   1   4
DOCKED: BRANCH   1  28
DOCKED: ATOM     28  C21 UNL     1       8.809  -6.574  -7.989 +0.00 +0.00    +0.143 C  
DOCKED: BRANCH  28  29
DOCKED: ATOM     29  O5  UNL     1       7.611  -6.333  -7.250 +0.00 -0.00    -0.389 OA 
DOCKED: ATOM     30  H40 UNL     1       7.676  -6.819  -6.409 +0.00 +0.00    +0.210 HD 
DOCKED: ENDBRANCH  28  29
DOCKED: BRANCH  28  31
DOCKED: ATOM     31  C22 UNL     1       8.876  -5.672  -9.225 +0.00 +0.00    +0.129 C  
DOCKED: BRANCH  31  32
DOCKED: ATOM     32  C23 UNL     1       8.642  -4.183  -9.031 +0.00 +0.00    +0.216 C  
DOCKED: ATOM     33  O6  UNL     1       8.314  -3.396  -9.908 +0.00 -0.00    -0.276 OA 
DOCKED: ATOM     34  N4  UNL     1       8.861  -3.780  -7.721 +0.00 -0.00    -0.304 N  
DOCKED: ATOM     35  H43 UNL     1       8.725  -4.499  -7.020 +0.00 +0.00    +0.149 HD 
DOCKED: BRANCH  34  36
DOCKED: ATOM     36  C24 UNL     1       8.472  -2.433  -7.314 +0.00 +0.00    +0.161 C  
DOCKED: BRANCH  36  37
DOCKED: ATOM     37  C25 UNL     1       7.896  -2.524  -5.886 +0.00 +0.00    +0.234 C  
DOCKED: ATOM     38  O7  UNL     1       8.038  -3.527  -5.182 +0.00 -0.00    -0.274 OA 
DOCKED: ATOM     39  N5  UNL     1       7.261  -1.378  -5.453 +0.00 -0.00    -0.310 N  
DOCKED: ATOM     40  H45 UNL     1       7.022  -0.668  -6.132 +0.00 +0.00    +0.149 HD 
DOCKED: BRANCH  39  41
DOCKED: ATOM     41  C26 UNL     1       6.567  -1.340  -4.186 +0.00 +0.00    +0.139 C  
DOCKED: BRANCH  41  42
DOCKED: ATOM     42  C27 UNL     1       5.823  -2.608  -3.834 +0.00 -0.00    -0.027 A  
DOCKED: ATOM     43  C28 UNL     1       4.865  -3.092  -4.765 +0.00 +0.00    +0.009 A  
DOCKED: ATOM     44  C29 UNL     1       4.129  -4.255  -4.513 +0.00 +0.00    +0.050 A  
DOCKED: ATOM     45  C30 UNL     1       4.365  -4.920  -3.331 +0.00 +0.00    +0.166 A  
DOCKED: ATOM     46  C31 UNL     1       5.291  -4.463  -2.423 +0.00 +0.00    +0.167 A  
DOCKED: ATOM     47  C32 UNL     1       6.026  -3.315  -2.636 +0.00 +0.00    +0.054 A  
DOCKED: ATOM     48  O8  UNL     1       5.391  -5.276  -1.338 +0.00 -0.00    -0.453 OA 
DOCKED: ATOM     49  C33 UNL     1       4.399  -6.272  -1.648 +0.00 +0.00    +0.466 C  
DOCKED: ATOM     50  O9  UNL     1       3.759  -6.066  -2.925 +0.00 -0.00    -0.453 OA 
DOCKED: ENDBRANCH  41  42
DOCKED: ENDBRANCH  39  41
DOCKED: ENDBRANCH  36  37
DOCKED: BRANCH  36  51
DOCKED: ATOM     51  C34 UNL     1       9.632  -1.416  -7.384 +0.00 +0.00    +0.012 C  
DOCKED: ATOM     52  C35 UNL     1       9.166   0.036  -7.524 +0.00 +0.00    +0.009 C  
DOCKED: ATOM     53  C36 UNL     1      10.549  -1.551  -6.165 +0.00 +0.00    +0.009 C  
DOCKED: ENDBRANCH  36  51
DOCKED: ENDBRANCH  34  36
DOCKED: ENDBRANCH  31  32
DOCKED: ENDBRANCH  28  31
DOCKED: ENDBRANCH   1  28
DOCKED: BRANCH   1  54
DOCKED: ATOM     54  C17 UNL     1      10.550  -8.027  -6.692 +0.00 +0.00    +0.028 C  
DOCKED: BRANCH  54  55
DOCKED: ATOM     55  C18 UNL     1       9.918  -8.670  -5.437 +0.00 -0.00    -0.015 C  
DOCKED: ATOM     56  C19 UNL     1       9.119  -9.934  -5.748 +0.00 +0.00    +0.007 C  
DOCKED: ATOM     57  C20 UNL     1      10.917  -8.926  -4.310 +0.00 +0.00    +0.007 C  
DOCKED: ENDBRANCH  54  55
DOCKED: ENDBRANCH   1  54
DOCKED: TORSDOF 22
DOCKED: TER
DOCKED: ENDMDL
________________________________________________________________________________


    FINAL DOCKED STATE:
    ________________________


Run:   12 / 20
Time taken for this run:   1.805s

DOCKED: MODEL        12
DOCKED: USER    Run = 12
DOCKED: USER
DOCKED: USER    Estimated Free Energy of Binding    =  +6.56 kcal/mol  [=(1)+(2)+(3)-(4)]
DOCKED: USER
DOCKED: USER    (1) Final Intermolecular Energy     =  +0.00 kcal/mol
DOCKED: USER        vdW + Hbond + desolv Energy     =  +0.00 kcal/mol
DOCKED: USER        Electrostatic Energy            =  +0.00 kcal/mol
DOCKED: USER        Moving Ligand-Fixed Receptor    =  +0.00 kcal/mol
DOCKED: USER        Moving Ligand-Moving Receptor   =  +0.00 kcal/mol
DOCKED: USER    (2) Final Total Internal Energy     = -14.35 kcal/mol
DOCKED: USER    (3) Torsional Free Energy           =  +6.56 kcal/mol
DOCKED: USER    (4) Unbound System's Energy         = -14.35 kcal/mol
DOCKED: USER
DOCKED: USER
DOCKED: REMARK  Name = ligands/ligand_25.pdb
DOCKED: REMARK  32 active torsions:
DOCKED: REMARK  status: ('A' for Active; 'I' for Inactive)
DOCKED: REMARK    1  A    between atoms: C1_1  and  S1_2
DOCKED: REMARK    2  A    between atoms: S1_2  and  C2_3
DOCKED: REMARK    3  A    between atoms: C2_3  and  C3_4
DOCKED: REMARK    4  A    between atoms: C3_4  and  C4_5
DOCKED: REMARK    5  A    between atoms: C4_5  and  N1_6
DOCKED: REMARK    6  A    between atoms: C4_5  and  C15_21
DOCKED: REMARK    7  A    between atoms: C5_7  and  C6_9
DOCKED: REMARK    8  A    between atoms: C6_9  and  N2_10
DOCKED: REMARK    9  A    between atoms: C6_9  and  C12_18
DOCKED: REMARK   10  A    between atoms: C7_11  and  O3_13
DOCKED: REMARK   11  A    between atoms: O3_13  and  C8_14
DOCKED: REMARK   12  A    between atoms: C8_14  and  C9_15
DOCKED: REMARK   13  A    between atoms: C8_14  and  C10_16
DOCKED: REMARK   14  A    between atoms: C8_14  and  C11_17
DOCKED: REMARK   15  A    between atoms: C12_18  and  C13_19
DOCKED: REMARK   16  A    between atoms: C12_18  and  C14_20
DOCKED: REMARK   17  A    between atoms: N3_23  and  C16_24
DOCKED: REMARK   18  A    between atoms: C16_24  and  C17_25
DOCKED: REMARK   19  A    between atoms: C16_24  and  C21_29
DOCKED: REMARK   20  A    between atoms: C17_25  and  C18_26
DOCKED: REMARK   21  A    between atoms: C18_26  and  C19_27
DOCKED: REMARK   22  A    between atoms: C18_26  and  C20_28
DOCKED: REMARK   23  A    between atoms: C21_29  and  O5_30
DOCKED: REMARK   24  A    between atoms: C21_29  and  C22_31
DOCKED: REMARK   25  A    between atoms: C22_31  and  C23_32
DOCKED: REMARK   26  A    between atoms: N4_34  and  C24_35
DOCKED: REMARK   27  A    between atoms: C24_35  and  C25_36
DOCKED: REMARK   28  A    between atoms: C24_35  and  C34_49
DOCKED: REMARK   29  A    between atoms: N5_38  and  C26_39
DOCKED: REMARK   30  A    between atoms: C26_39  and  C27_40
DOCKED: REMARK   31  A    between atoms: C34_49  and  C35_50
DOCKED: REMARK   32  A    between atoms: C34_49  and  C36_51
DOCKED: REMARK                            x       y       z     vdW  Elec       q    Type
DOCKED: REMARK                         _______ _______ _______ _____ _____    ______ ____
DOCKED: USER                              x       y       z     vdW  Elec       q    Type
DOCKED: USER                           _______ _______ _______ _____ _____    ______ ____
DOCKED: ROOT
DOCKED: ATOM      1  C16 UNL     1      11.875  -5.368  -3.622 +0.00 +0.00    +0.102 C  
DOCKED: ENDROOT
DOCKED: BRANCH   1   4
DOCKED: ATOM      2  C15 UNL     1      10.531  -6.185  -1.697 +0.00 +0.00    +0.234 C  
DOCKED: ATOM      3  O4  UNL     1      10.090  -7.146  -2.328 +0.00 -0.00    -0.274 OA 
DOCKED: ATOM      4  N3  UNL     1      11.377  -5.252  -2.254 +0.00 -0.00    -0.308 N  
DOCKED: ATOM      5  H28 UNL     1      11.785  -4.538  -1.652 +0.00 +0.00    +0.149 HD 
DOCKED: BRANCH   2   6
DOCKED: ATOM      6  C4  UNL     1      10.174  -5.951  -0.211 +0.00 +0.00    +0.160 C  
DOCKED: BRANCH   6   7
DOCKED: ATOM      7  N1  UNL     1      10.042  -4.507  -0.038 +0.00 -0.00    -0.302 N  
DOCKED: ATOM      8  C5  UNL     1       8.964  -3.790  -0.499 +0.00 +0.00    +0.234 C  
DOCKED: ATOM      9  O1  UNL     1       8.042  -4.311  -1.128 +0.00 -0.00    -0.274 OA 
DOCKED: ATOM     10  H9  UNL     1      10.841  -4.030   0.378 +0.00 +0.00    +0.150 HD 
DOCKED: BRANCH   8  11
DOCKED: ATOM     11  C6  UNL     1       9.010  -2.281  -0.176 +0.00 +0.00    +0.165 C  
DOCKED: BRANCH  11  12
DOCKED: ATOM     12  N2  UNL     1       9.677  -1.617  -1.288 +0.00 -0.00    -0.270 N  
DOCKED: ATOM     13  C7  UNL     1      10.975  -1.903  -1.589 +0.00 +0.00    +0.401 C  
DOCKED: ATOM     14  O2  UNL     1      11.738  -2.526  -0.872 +0.00 -0.00    -0.226 OA 
DOCKED: ATOM     15  H11 UNL     1       9.121  -1.356  -2.092 +0.00 +0.00    +0.153 HD 
DOCKED: BRANCH  13  16
DOCKED: ATOM     16  O3  UNL     1      11.261  -1.407  -2.813 +0.00 -0.00    -0.445 OA 
DOCKED: BRANCH  16  17
DOCKED: ATOM     17  C8  UNL     1      12.128  -0.251  -2.956 +0.00 +0.00    +0.107 C  
DOCKED: ATOM     18  C9  UNL     1      13.489  -0.475  -2.283 +0.00 +0.00    +0.055 C  
DOCKED: ATOM     19  C10 UNL     1      11.441   1.020  -2.443 +0.00 +0.00    +0.055 C  
DOCKED: ATOM     20  C11 UNL     1      12.350  -0.118  -4.468 +0.00 +0.00    +0.055 C  
DOCKED: ENDBRANCH  16  17
DOCKED: ENDBRANCH  13  16
DOCKED: ENDBRANCH  11  12
DOCKED: BRANCH  11  21
DOCKED: ATOM     21  C12 UNL     1       7.615  -1.673   0.091 +0.00 +0.00    +0.012 C  
DOCKED: ATOM     22  C13 UNL     1       7.197  -1.661   1.566 +0.00 +0.00    +0.009 C  
DOCKED: ATOM     23  C14 UNL     1       7.507  -0.261  -0.489 +0.00 +0.00    +0.009 C  
DOCKED: ENDBRANCH  11  21
DOCKED: ENDBRANCH   8  11
DOCKED: ENDBRANCH   6   7
DOCKED: BRANCH   6  24
DOCKED: ATOM     24  C3  UNL     1       8.885  -6.697   0.181 +0.00 +0.00    +0.042 C  
DOCKED: BRANCH  24  25
DOCKED: ATOM     25  C2  UNL     1       8.754  -6.896   1.692 +0.00 +0.00    +0.071 C  
DOCKED: BRANCH  25  27
DOCKED: ATOM     26  C1  UNL     1       9.631  -4.739   3.178 +0.00 +0.00    +0.084 C  
DOCKED: ATOM     27  S1  UNL     1      10.252  -6.329   2.562 +0.00 -0.00    -0.164 S  
DOCKED: ENDBRANCH  25  27
DOCKED: ENDBRANCH  24  25
DOCKED: ENDBRANCH   6  24
DOCKED: ENDBRANCH   2   6
DOCKED: ENDBRANCH   1   4
DOCKED: BRANCH   1  28
DOCKED: ATOM     28  C21 UNL     1      13.224  -4.602  -3.788 +0.00 +0.00    +0.143 C  
DOCKED: BRANCH  28  29
DOCKED: ATOM     29  O5  UNL     1      13.332  -3.498  -2.889 +0.00 -0.00    -0.389 OA 
DOCKED: ATOM     30  H40 UNL     1      12.456  -3.078  -2.827 +0.00 +0.00    +0.210 HD 
DOCKED: ENDBRANCH  28  29
DOCKED: BRANCH  28  31
DOCKED: ATOM     31  C22 UNL     1      14.506  -5.440  -3.776 +0.00 +0.00    +0.129 C  
DOCKED: BRANCH  31  32
DOCKED: ATOM     32  C23 UNL     1      15.057  -5.876  -2.429 +0.00 +0.00    +0.216 C  
DOCKED: ATOM     33  O6  UNL     1      16.211  -6.221  -2.211 +0.00 -0.00    -0.276 OA 
DOCKED: ATOM     34  N4  UNL     1      14.090  -5.865  -1.433 +0.00 -0.00    -0.304 N  
DOCKED: ATOM     35  H43 UNL     1      13.327  -5.215  -1.581 +0.00 +0.00    +0.149 HD 
DOCKED: BRANCH  34  36
DOCKED: ATOM     36  C24 UNL     1      14.496  -6.043  -0.042 +0.00 +0.00    +0.161 C  
DOCKED: BRANCH  36  37
DOCKED: ATOM     37  C25 UNL     1      13.625  -5.108   0.822 +0.00 +0.00    +0.234 C  
DOCKED: ATOM     38  O7  UNL     1      12.603  -4.572   0.386 +0.00 -0.00    -0.274 OA 
DOCKED: ATOM     39  N5  UNL     1      14.059  -4.967   2.124 +0.00 -0.00    -0.310 N  
DOCKED: ATOM     40  H45 UNL     1      14.989  -5.281   2.364 +0.00 +0.00    +0.149 HD 
DOCKED: BRANCH  39  41
DOCKED: ATOM     41  C26 UNL     1      13.423  -4.035   3.028 +0.00 +0.00    +0.139 C  
DOCKED: BRANCH  41  42
DOCKED: ATOM     42  C27 UNL     1      13.016  -2.722   2.400 +0.00 -0.00    -0.027 A  
DOCKED: ATOM     43  C28 UNL     1      14.014  -1.979   1.716 +0.00 +0.00    +0.009 A  
DOCKED: ATOM     44  C29 UNL     1      13.722  -0.751   1.112 +0.00 +0.00    +0.050 A  
DOCKED: ATOM     45  C30 UNL     1      12.429  -0.285   1.200 +0.00 +0.00    +0.166 A  
DOCKED: ATOM     46  C31 UNL     1      11.453  -0.996   1.857 +0.00 +0.00    +0.167 A  
DOCKED: ATOM     47  C32 UNL     1      11.711  -2.205   2.472 +0.00 +0.00    +0.054 A  
DOCKED: ATOM     48  O8  UNL     1      10.244  -0.378   1.806 +0.00 -0.00    -0.453 OA 
DOCKED: ATOM     49  C33 UNL     1      10.578   0.818   1.076 +0.00 +0.00    +0.466 C  
DOCKED: ATOM     50  O9  UNL     1      11.961   0.873   0.667 +0.00 -0.00    -0.453 OA 
DOCKED: ENDBRANCH  41  42
DOCKED: ENDBRANCH  39  41
DOCKED: ENDBRANCH  36  37
DOCKED: BRANCH  36  51
DOCKED: ATOM     51  C34 UNL     1      14.390  -7.506   0.441 +0.00 +0.00    +0.012 C  
DOCKED: ATOM     52  C35 UNL     1      15.304  -7.828   1.626 +0.00 +0.00    +0.009 C  
DOCKED: ATOM     53  C36 UNL     1      12.942  -7.862   0.791 +0.00 +0.00    +0.009 C  
DOCKED: ENDBRANCH  36  51
DOCKED: ENDBRANCH  34  36
DOCKED: ENDBRANCH  31  32
DOCKED: ENDBRANCH  28  31
DOCKED: ENDBRANCH   1  28
DOCKED: BRANCH   1  54
DOCKED: ATOM     54  C17 UNL     1      10.791  -5.002  -4.651 +0.00 +0.00    +0.028 C  
DOCKED: BRANCH  54  55
DOCKED: ATOM     55  C18 UNL     1       9.854  -3.825  -4.297 +0.00 -0.00    -0.015 C  
DOCKED: ATOM     56  C19 UNL     1       9.969  -2.652  -5.269 +0.00 +0.00    +0.007 C  
DOCKED: ATOM     57  C20 UNL     1       8.394  -4.237  -4.116 +0.00 +0.00    +0.007 C  
DOCKED: ENDBRANCH  54  55
DOCKED: ENDBRANCH   1  54
DOCKED: TORSDOF 22
DOCKED: TER
DOCKED: ENDMDL
________________________________________________________________________________


    FINAL DOCKED STATE:
    ________________________


Run:   13 / 20
Time taken for this run:   1.805s

DOCKED: MODEL        13
DOCKED: USER    Run = 13
DOCKED: USER
DOCKED: USER    Estimated Free Energy of Binding    =  +6.56 kcal/mol  [=(1)+(2)+(3)-(4)]
DOCKED: USER
DOCKED: USER    (1) Final Intermolecular Energy     =  +0.00 kcal/mol
DOCKED: USER        vdW + Hbond + desolv Energy     =  +0.00 kcal/mol
DOCKED: USER        Electrostatic Energy            =  +0.00 kcal/mol
DOCKED: USER        Moving Ligand-Fixed Receptor    =  +0.00 kcal/mol
DOCKED: USER        Moving Ligand-Moving Receptor   =  +0.00 kcal/mol
DOCKED: USER    (2) Final Total Internal Energy     = -14.34 kcal/mol
DOCKED: USER    (3) Torsional Free Energy           =  +6.56 kcal/mol
DOCKED: USER    (4) Unbound System's Energy         = -14.34 kcal/mol
DOCKED: USER
DOCKED: USER
DOCKED: REMARK  Name = ligands/ligand_25.pdb
DOCKED: REMARK  32 active torsions:
DOCKED: REMARK  status: ('A' for Active; 'I' for Inactive)
DOCKED: REMARK    1  A    between atoms: C1_1  and  S1_2
DOCKED: REMARK    2  A    between atoms: S1_2  and  C2_3
DOCKED: REMARK    3  A    between atoms: C2_3  and  C3_4
DOCKED: REMARK    4  A    between atoms: C3_4  and  C4_5
DOCKED: REMARK    5  A    between atoms: C4_5  and  N1_6
DOCKED: REMARK    6  A    between atoms: C4_5  and  C15_21
DOCKED: REMARK    7  A    between atoms: C5_7  and  C6_9
DOCKED: REMARK    8  A    between atoms: C6_9  and  N2_10
DOCKED: REMARK    9  A    between atoms: C6_9  and  C12_18
DOCKED: REMARK   10  A    between atoms: C7_11  and  O3_13
DOCKED: REMARK   11  A    between atoms: O3_13  and  C8_14
DOCKED: REMARK   12  A    between atoms: C8_14  and  C9_15
DOCKED: REMARK   13  A    between atoms: C8_14  and  C10_16
DOCKED: REMARK   14  A    between atoms: C8_14  and  C11_17
DOCKED: REMARK   15  A    between atoms: C12_18  and  C13_19
DOCKED: REMARK   16  A    between atoms: C12_18  and  C14_20
DOCKED: REMARK   17  A    between atoms: N3_23  and  C16_24
DOCKED: REMARK   18  A    between atoms: C16_24  and  C17_25
DOCKED: REMARK   19  A    between atoms: C16_24  and  C21_29
DOCKED: REMARK   20  A    between atoms: C17_25  and  C18_26
DOCKED: REMARK   21  A    between atoms: C18_26  and  C19_27
DOCKED: REMARK   22  A    between atoms: C18_26  and  C20_28
DOCKED: REMARK   23  A    between atoms: C21_29  and  O5_30
DOCKED: REMARK   24  A    between atoms: C21_29  and  C22_31
DOCKED: REMARK   25  A    between atoms: C22_31  and  C23_32
DOCKED: REMARK   26  A    between atoms: N4_34  and  C24_35
DOCKED: REMARK   27  A    between atoms: C24_35  and  C25_36
DOCKED: REMARK   28  A    between atoms: C24_35  and  C34_49
DOCKED: REMARK   29  A    between atoms: N5_38  and  C26_39
DOCKED: REMARK   30  A    between atoms: C26_39  and  C27_40
DOCKED: REMARK   31  A    between atoms: C34_49  and  C35_50
DOCKED: REMARK   32  A    between atoms: C34_49  and  C36_51
DOCKED: REMARK                            x       y       z     vdW  Elec       q    Type
DOCKED: REMARK                         _______ _______ _______ _____ _____    ______ ____
DOCKED: USER                              x       y       z     vdW  Elec       q    Type
DOCKED: USER                           _______ _______ _______ _____ _____    ______ ____
DOCKED: ROOT
DOCKED: ATOM      1  C16 UNL     1       4.472  -4.652  -2.019 +0.00 +0.00    +0.102 C  
DOCKED: ENDROOT
DOCKED: BRANCH   1   4
DOCKED: ATOM      2  C15 UNL     1       6.702  -5.606  -2.564 +0.00 +0.00    +0.234 C  
DOCKED: ATOM      3  O4  UNL     1       6.228  -6.452  -3.323 +0.00 -0.00    -0.274 OA 
DOCKED: ATOM      4  N3  UNL     1       5.923  -4.713  -1.863 +0.00 -0.00    -0.308 N  
DOCKED: ATOM      5  H28 UNL     1       6.381  -3.975  -1.330 +0.00 +0.00    +0.149 HD 
DOCKED: BRANCH   2   6
DOCKED: ATOM      6  C4  UNL     1       8.226  -5.473  -2.341 +0.00 +0.00    +0.160 C  
DOCKED: BRANCH   6   7
DOCKED: ATOM      7  N1  UNL     1       8.412  -5.149  -0.928 +0.00 -0.00    -0.302 N  
DOCKED: ATOM      8  C5  UNL     1       8.238  -6.064   0.082 +0.00 +0.00    +0.234 C  
DOCKED: ATOM      9  O1  UNL     1       7.873  -7.221  -0.129 +0.00 -0.00    -0.274 OA 
DOCKED: ATOM     10  H9  UNL     1       8.604  -4.171  -0.714 +0.00 +0.00    +0.150 HD 
DOCKED: BRANCH   8  11
DOCKED: ATOM     11  C6  UNL     1       8.522  -5.520   1.498 +0.00 +0.00    +0.165 C  
DOCKED: BRANCH  11  12
DOCKED: ATOM     12  N2  UNL     1       7.268  -4.999   2.026 +0.00 -0.00    -0.270 N  
DOCKED: ATOM     13  C7  UNL     1       6.635  -3.960   1.412 +0.00 +0.00    +0.401 C  
DOCKED: ATOM     14  O2  UNL     1       7.128  -3.249   0.555 +0.00 -0.00    -0.226 OA 
DOCKED: ATOM     15  H11 UNL     1       6.638  -5.645   2.486 +0.00 +0.00    +0.153 HD 
DOCKED: BRANCH  13  16
DOCKED: ATOM     16  O3  UNL     1       5.375  -3.869   1.893 +0.00 -0.00    -0.445 OA 
DOCKED: BRANCH  16  17
DOCKED: ATOM     17  C8  UNL     1       4.997  -2.771   2.765 +0.00 +0.00    +0.107 C  
DOCKED: ATOM     18  C9  UNL     1       5.281  -1.408   2.119 +0.00 +0.00    +0.055 C  
DOCKED: ATOM     19  C10 UNL     1       5.666  -2.902   4.138 +0.00 +0.00    +0.055 C  
DOCKED: ATOM     20  C11 UNL     1       3.479  -2.920   2.938 +0.00 +0.00    +0.055 C  
DOCKED: ENDBRANCH  16  17
DOCKED: ENDBRANCH  13  16
DOCKED: ENDBRANCH  11  12
DOCKED: BRANCH  11  21
DOCKED: ATOM     21  C12 UNL     1       9.138  -6.575   2.443 +0.00 +0.00    +0.012 C  
DOCKED: ATOM     22  C13 UNL     1      10.670  -6.628   2.426 +0.00 +0.00    +0.009 C  
DOCKED: ATOM     23  C14 UNL     1       8.643  -6.388   3.879 +0.00 +0.00    +0.009 C  
DOCKED: ENDBRANCH  11  21
DOCKED: ENDBRANCH   8  11
DOCKED: ENDBRANCH   6   7
DOCKED: BRANCH   6  24
DOCKED: ATOM     24  C3  UNL     1       8.968  -6.762  -2.737 +0.00 +0.00    +0.042 C  
DOCKED: BRANCH  24  25
DOCKED: ATOM     25  C2  UNL     1      10.436  -6.515  -3.087 +0.00 +0.00    +0.071 C  
DOCKED: BRANCH  25  27
DOCKED: ATOM     26  C1  UNL     1      11.621  -4.794  -1.282 +0.00 +0.00    +0.084 C  
DOCKED: ATOM     27  S1  UNL     1      10.862  -4.750  -2.929 +0.00 -0.00    -0.164 S  
DOCKED: ENDBRANCH  25  27
DOCKED: ENDBRANCH  24  25
DOCKED: ENDBRANCH   6  24
DOCKED: ENDBRANCH   2   6
DOCKED: ENDBRANCH   1   4
DOCKED: BRANCH   1  28
DOCKED: ATOM     28  C21 UNL     1       3.932  -3.239  -1.642 +0.00 +0.00    +0.143 C  
DOCKED: BRANCH  28  29
DOCKED: ATOM     29  O5  UNL     1       4.755  -2.587  -0.674 +0.00 -0.00    -0.389 OA 
DOCKED: ATOM     30  H40 UNL     1       5.055  -3.260  -0.037 +0.00 +0.00    +0.210 HD 
DOCKED: ENDBRANCH  28  29
DOCKED: BRANCH  28  31
DOCKED: ATOM     31  C22 UNL     1       3.597  -2.289  -2.797 +0.00 +0.00    +0.129 C  
DOCKED: BRANCH  31  32
DOCKED: ATOM     32  C23 UNL     1       4.745  -1.548  -3.462 +0.00 +0.00    +0.216 C  
DOCKED: ATOM     33  O6  UNL     1       4.640  -0.527  -4.129 +0.00 -0.00    -0.276 OA 
DOCKED: ATOM     34  N4  UNL     1       5.969  -2.168  -3.250 +0.00 -0.00    -0.304 N  
DOCKED: ATOM     35  H43 UNL     1       6.030  -2.722  -2.405 +0.00 +0.00    +0.149 HD 
DOCKED: BRANCH  34  36
DOCKED: ATOM     36  C24 UNL     1       7.196  -1.475  -3.631 +0.00 +0.00    +0.161 C  
DOCKED: BRANCH  36  37
DOCKED: ATOM     37  C25 UNL     1       8.259  -1.783  -2.557 +0.00 +0.00    +0.234 C  
DOCKED: ATOM     38  O7  UNL     1       8.111  -2.680  -1.722 +0.00 -0.00    -0.274 OA 
DOCKED: ATOM     39  N5  UNL     1       9.399  -1.011  -2.644 +0.00 -0.00    -0.310 N  
DOCKED: ATOM     40  H45 UNL     1       9.383  -0.184  -3.226 +0.00 +0.00    +0.149 HD 
DOCKED: BRANCH  39  41
DOCKED: ATOM     41  C26 UNL     1      10.438  -1.094  -1.643 +0.00 +0.00    +0.139 C  
DOCKED: BRANCH  41  42
DOCKED: ATOM     42  C27 UNL     1       9.940  -1.265  -0.227 +0.00 -0.00    -0.027 A  
DOCKED: ATOM     43  C28 UNL     1       9.009  -0.312   0.265 +0.00 +0.00    +0.009 A  
DOCKED: ATOM     44  C29 UNL     1       8.503  -0.395   1.568 +0.00 +0.00    +0.050 A  
DOCKED: ATOM     45  C30 UNL     1       8.936  -1.435   2.359 +0.00 +0.00    +0.166 A  
DOCKED: ATOM     46  C31 UNL     1       9.835  -2.364   1.894 +0.00 +0.00    +0.167 A  
DOCKED: ATOM     47  C32 UNL     1      10.361  -2.306   0.619 +0.00 +0.00    +0.054 A  
DOCKED: ATOM     48  O8  UNL     1      10.112  -3.321   2.819 +0.00 -0.00    -0.453 OA 
DOCKED: ATOM     49  C33 UNL     1       9.315  -2.867   3.930 +0.00 +0.00    +0.466 C  
DOCKED: ATOM     50  O9  UNL     1       8.547  -1.681   3.637 +0.00 -0.00    -0.453 OA 
DOCKED: ENDBRANCH  41  42
DOCKED: ENDBRANCH  39  41
DOCKED: ENDBRANCH  36  37
DOCKED: BRANCH  36  51
DOCKED: ATOM     51  C34 UNL     1       7.700  -1.857  -5.040 +0.00 +0.00    +0.012 C  
DOCKED: ATOM     52  C35 UNL     1       8.601  -0.795  -5.676 +0.00 +0.00    +0.009 C  
DOCKED: ATOM     53  C36 UNL     1       8.425  -3.205  -5.013 +0.00 +0.00    +0.009 C  
DOCKED: ENDBRANCH  36  51
DOCKED: ENDBRANCH  34  36
DOCKED: ENDBRANCH  31  32
DOCKED: ENDBRANCH  28  31
DOCKED: ENDBRANCH   1  28
DOCKED: BRANCH   1  54
DOCKED: ATOM     54  C17 UNL     1       3.777  -5.824  -1.304 +0.00 +0.00    +0.028 C  
DOCKED: BRANCH  54  55
DOCKED: ATOM     55  C18 UNL     1       4.352  -6.252   0.065 +0.00 -0.00    -0.015 C  
DOCKED: ATOM     56  C19 UNL     1       3.368  -6.056   1.217 +0.00 +0.00    +0.007 C  
DOCKED: ATOM     57  C20 UNL     1       4.921  -7.669   0.076 +0.00 +0.00    +0.007 C  
DOCKED: ENDBRANCH  54  55
DOCKED: ENDBRANCH   1  54
DOCKED: TORSDOF 22
DOCKED: TER
DOCKED: ENDMDL
________________________________________________________________________________


    FINAL DOCKED STATE:
    ________________________


Run:   14 / 20
Time taken for this run:   1.805s

DOCKED: MODEL        14
DOCKED: USER    Run = 14
DOCKED: USER
DOCKED: USER    Estimated Free Energy of Binding    =  +6.56 kcal/mol  [=(1)+(2)+(3)-(4)]
DOCKED: USER
DOCKED: USER    (1) Final Intermolecular Energy     =  +0.00 kcal/mol
DOCKED: USER        vdW + Hbond + desolv Energy     =  +0.00 kcal/mol
DOCKED: USER        Electrostatic Energy            =  +0.00 kcal/mol
DOCKED: USER        Moving Ligand-Fixed Receptor    =  +0.00 kcal/mol
DOCKED: USER        Moving Ligand-Moving Receptor   =  +0.00 kcal/mol
DOCKED: USER    (2) Final Total Internal Energy     = -14.45 kcal/mol
DOCKED: USER    (3) Torsional Free Energy           =  +6.56 kcal/mol
DOCKED: USER    (4) Unbound System's Energy         = -14.45 kcal/mol
DOCKED: USER
DOCKED: USER
DOCKED: REMARK  Name = ligands/ligand_25.pdb
DOCKED: REMARK  32 active torsions:
DOCKED: REMARK  status: ('A' for Active; 'I' for Inactive)
DOCKED: REMARK    1  A    between atoms: C1_1  and  S1_2
DOCKED: REMARK    2  A    between atoms: S1_2  and  C2_3
DOCKED: REMARK    3  A    between atoms: C2_3  and  C3_4
DOCKED: REMARK    4  A    between atoms: C3_4  and  C4_5
DOCKED: REMARK    5  A    between atoms: C4_5  and  N1_6
DOCKED: REMARK    6  A    between atoms: C4_5  and  C15_21
DOCKED: REMARK    7  A    between atoms: C5_7  and  C6_9
DOCKED: REMARK    8  A    between atoms: C6_9  and  N2_10
DOCKED: REMARK    9  A    between atoms: C6_9  and  C12_18
DOCKED: REMARK   10  A    between atoms: C7_11  and  O3_13
DOCKED: REMARK   11  A    between atoms: O3_13  and  C8_14
DOCKED: REMARK   12  A    between atoms: C8_14  and  C9_15
DOCKED: REMARK   13  A    between atoms: C8_14  and  C10_16
DOCKED: REMARK   14  A    between atoms: C8_14  and  C11_17
DOCKED: REMARK   15  A    between atoms: C12_18  and  C13_19
DOCKED: REMARK   16  A    between atoms: C12_18  and  C14_20
DOCKED: REMARK   17  A    between atoms: N3_23  and  C16_24
DOCKED: REMARK   18  A    between atoms: C16_24  and  C17_25
DOCKED: REMARK   19  A    between atoms: C16_24  and  C21_29
DOCKED: REMARK   20  A    between atoms: C17_25  and  C18_26
DOCKED: REMARK   21  A    between atoms: C18_26  and  C19_27
DOCKED: REMARK   22  A    between atoms: C18_26  and  C20_28
DOCKED: REMARK   23  A    between atoms: C21_29  and  O5_30
DOCKED: REMARK   24  A    between atoms: C21_29  and  C22_31
DOCKED: REMARK   25  A    between atoms: C22_31  and  C23_32
DOCKED: REMARK   26  A    between atoms: N4_34  and  C24_35
DOCKED: REMARK   27  A    between atoms: C24_35  and  C25_36
DOCKED: REMARK   28  A    between atoms: C24_35  and  C34_49
DOCKED: REMARK   29  A    between atoms: N5_38  and  C26_39
DOCKED: REMARK   30  A    between atoms: C26_39  and  C27_40
DOCKED: REMARK   31  A    between atoms: C34_49  and  C35_50
DOCKED: REMARK   32  A    between atoms: C34_49  and  C36_51
DOCKED: REMARK                            x       y       z     vdW  Elec       q    Type
DOCKED: REMARK                         _______ _______ _______ _____ _____    ______ ____
DOCKED: USER                              x       y       z     vdW  Elec       q    Type
DOCKED: USER                           _______ _______ _______ _____ _____    ______ ____
DOCKED: ROOT
DOCKED: ATOM      1  C16 UNL     1       6.141  -3.219  -6.774 +0.00 +0.00    +0.102 C  
DOCKED: ENDROOT
DOCKED: BRANCH   1   4
DOCKED: ATOM      2  C15 UNL     1       8.451  -2.524  -7.375 +0.00 +0.00    +0.234 C  
DOCKED: ATOM      3  O4  UNL     1       8.060  -1.739  -8.240 +0.00 -0.00    -0.274 OA 
DOCKED: ATOM      4  N3  UNL     1       7.592  -3.308  -6.637 +0.00 -0.00    -0.308 N  
DOCKED: ATOM      5  H28 UNL     1       7.970  -3.861  -5.870 +0.00 +0.00    +0.149 HD 
DOCKED: BRANCH   2   6
DOCKED: ATOM      6  C4  UNL     1       9.951  -2.688  -7.040 +0.00 +0.00    +0.160 C  
DOCKED: BRANCH   6   7
DOCKED: ATOM      7  N1  UNL     1      10.037  -2.858  -5.591 +0.00 -0.00    -0.302 N  
DOCKED: ATOM      8  C5  UNL     1       9.473  -1.980  -4.697 +0.00 +0.00    +0.234 C  
DOCKED: ATOM      9  O1  UNL     1       8.883  -0.959  -5.053 +0.00 -0.00    -0.274 OA 
DOCKED: ATOM     10  H9  UNL     1      10.615  -3.630  -5.264 +0.00 +0.00    +0.150 HD 
DOCKED: BRANCH   8  11
DOCKED: ATOM     11  C6  UNL     1       9.652  -2.369  -3.215 +0.00 +0.00    +0.165 C  
DOCKED: BRANCH  11  12
DOCKED: ATOM     12  N2  UNL     1       8.552  -3.256  -2.860 +0.00 -0.00    -0.270 N  
DOCKED: ATOM     13  C7  UNL     1       8.460  -4.500  -3.408 +0.00 +0.00    +0.401 C  
DOCKED: ATOM     14  O2  UNL     1       9.107  -4.894  -4.361 +0.00 -0.00    -0.226 OA 
DOCKED: ATOM     15  H11 UNL     1       8.170  -3.193  -1.925 +0.00 +0.00    +0.153 HD 
DOCKED: BRANCH  13  16
DOCKED: ATOM     16  O3  UNL     1       7.557  -5.222  -2.707 +0.00 -0.00    -0.445 OA 
DOCKED: BRANCH  16  17
DOCKED: ATOM     17  C8  UNL     1       7.965  -6.420  -1.995 +0.00 +0.00    +0.107 C  
DOCKED: ATOM     18  C9  UNL     1       9.282  -6.211  -1.236 +0.00 +0.00    +0.055 C  
DOCKED: ATOM     19  C10 UNL     1       8.037  -7.625  -2.941 +0.00 +0.00    +0.055 C  
DOCKED: ATOM     20  C11 UNL     1       6.847  -6.661  -0.972 +0.00 +0.00    +0.055 C  
DOCKED: ENDBRANCH  16  17
DOCKED: ENDBRANCH  13  16
DOCKED: ENDBRANCH  11  12
DOCKED: BRANCH  11  21
DOCKED: ATOM     21  C12 UNL     1      11.021  -3.021  -2.918 +0.00 +0.00    +0.012 C  
DOCKED: ATOM     22  C13 UNL     1      12.230  -2.212  -3.402 +0.00 +0.00    +0.009 C  
DOCKED: ATOM     23  C14 UNL     1      11.173  -3.335  -1.427 +0.00 +0.00    +0.009 C  
DOCKED: ENDBRANCH  11  21
DOCKED: ENDBRANCH   8  11
DOCKED: ENDBRANCH   6   7
DOCKED: BRANCH   6  24
DOCKED: ATOM     24  C3  UNL     1      10.570  -3.877  -7.796 +0.00 +0.00    +0.042 C  
DOCKED: BRANCH  24  25
DOCKED: ATOM     25  C2  UNL     1      10.236  -5.224  -7.152 +0.00 +0.00    +0.071 C  
DOCKED: BRANCH  25  27
DOCKED: ATOM     26  C1  UNL     1       8.028  -6.750  -6.501 +0.00 +0.00    +0.084 C  
DOCKED: ATOM     27  S1  UNL     1       8.802  -6.004  -7.963 +0.00 -0.00    -0.164 S  
DOCKED: ENDBRANCH  25  27
DOCKED: ENDBRANCH  24  25
DOCKED: ENDBRANCH   6  24
DOCKED: ENDBRANCH   2   6
DOCKED: ENDBRANCH   1   4
DOCKED: BRANCH   1  28
DOCKED: ATOM     28  C21 UNL     1       5.632  -1.800  -6.372 +0.00 +0.00    +0.143 C  
DOCKED: BRANCH  28  29
DOCKED: ATOM     29  O5  UNL     1       6.420  -1.218  -5.333 +0.00 -0.00    -0.389 OA 
DOCKED: ATOM     30  H40 UNL     1       7.356  -1.295  -5.591 +0.00 +0.00    +0.210 HD 
DOCKED: ENDBRANCH  28  29
DOCKED: BRANCH  28  31
DOCKED: ATOM     31  C22 UNL     1       5.400  -0.796  -7.505 +0.00 +0.00    +0.129 C  
DOCKED: BRANCH  31  32
DOCKED: ATOM     32  C23 UNL     1       5.940   0.613  -7.328 +0.00 +0.00    +0.216 C  
DOCKED: ATOM     33  O6  UNL     1       5.273   1.638  -7.353 +0.00 -0.00    -0.276 OA 
DOCKED: ATOM     34  N4  UNL     1       7.316   0.632  -7.144 +0.00 -0.00    -0.304 N  
DOCKED: ATOM     35  H43 UNL     1       7.709  -0.210  -6.741 +0.00 +0.00    +0.149 HD 
DOCKED: BRANCH  34  36
DOCKED: ATOM     36  C24 UNL     1       7.965   1.876  -6.741 +0.00 +0.00    +0.161 C  
DOCKED: BRANCH  36  37
DOCKED: ATOM     37  C25 UNL     1       7.441   2.244  -5.338 +0.00 +0.00    +0.234 C  
DOCKED: ATOM     38  O7  UNL     1       7.439   3.404  -4.919 +0.00 -0.00    -0.274 OA 
DOCKED: ATOM     39  N5  UNL     1       6.934   1.179  -4.622 +0.00 -0.00    -0.310 N  
DOCKED: ATOM     40  H45 UNL     1       7.129   0.240  -4.942 +0.00 +0.00    +0.149 HD 
DOCKED: BRANCH  39  41
DOCKED: ATOM     41  C26 UNL     1       6.513   1.334  -3.248 +0.00 +0.00    +0.139 C  
DOCKED: BRANCH  41  42
DOCKED: ATOM     42  C27 UNL     1       6.506   0.056  -2.441 +0.00 -0.00    -0.027 A  
DOCKED: ATOM     43  C28 UNL     1       5.364  -0.781  -2.539 +0.00 +0.00    +0.009 A  
DOCKED: ATOM     44  C29 UNL     1       5.276  -1.979  -1.821 +0.00 +0.00    +0.050 A  
DOCKED: ATOM     45  C30 UNL     1       6.337  -2.322  -1.014 +0.00 +0.00    +0.166 A  
DOCKED: ATOM     46  C31 UNL     1       7.449  -1.521  -0.911 +0.00 +0.00    +0.167 A  
DOCKED: ATOM     47  C32 UNL     1       7.564  -0.329  -1.598 +0.00 +0.00    +0.054 A  
DOCKED: ATOM     48  O8  UNL     1       8.391  -2.051  -0.086 +0.00 -0.00    -0.453 OA 
DOCKED: ATOM     49  C33 UNL     1       7.729  -3.255   0.347 +0.00 +0.00    +0.466 C  
DOCKED: ATOM     50  O9  UNL     1       6.433  -3.446  -0.257 +0.00 -0.00    -0.453 OA 
DOCKED: ENDBRANCH  41  42
DOCKED: ENDBRANCH  39  41
DOCKED: ENDBRANCH  36  37
DOCKED: BRANCH  36  51
DOCKED: ATOM     51  C34 UNL     1       9.507   1.792  -6.755 +0.00 +0.00    +0.012 C  
DOCKED: ATOM     52  C35 UNL     1      10.126   1.669  -5.361 +0.00 +0.00    +0.009 C  
DOCKED: ATOM     53  C36 UNL     1       9.982   0.634  -7.638 +0.00 +0.00    +0.009 C  
DOCKED: ENDBRANCH  36  51
DOCKED: ENDBRANCH  34  36
DOCKED: ENDBRANCH  31  32
DOCKED: ENDBRANCH  28  31
DOCKED: ENDBRANCH   1  28
DOCKED: BRANCH   1  54
DOCKED: ATOM     54  C17 UNL     1       5.434  -4.387  -6.064 +0.00 +0.00    +0.028 C  
DOCKED: BRANCH  54  55
DOCKED: ATOM     55  C18 UNL     1       4.968  -4.147  -4.610 +0.00 -0.00    -0.015 C  
DOCKED: ATOM     56  C19 UNL     1       3.650  -3.380  -4.521 +0.00 +0.00    +0.007 C  
DOCKED: ATOM     57  C20 UNL     1       4.912  -5.419  -3.767 +0.00 +0.00    +0.007 C  
DOCKED: ENDBRANCH  54  55
DOCKED: ENDBRANCH   1  54
DOCKED: TORSDOF 22
DOCKED: TER
DOCKED: ENDMDL
________________________________________________________________________________


    FINAL DOCKED STATE:
    ________________________


Run:   15 / 20
Time taken for this run:   1.805s

DOCKED: MODEL        15
DOCKED: USER    Run = 15
DOCKED: USER
DOCKED: USER    Estimated Free Energy of Binding    =  +6.56 kcal/mol  [=(1)+(2)+(3)-(4)]
DOCKED: USER
DOCKED: USER    (1) Final Intermolecular Energy     =  +0.00 kcal/mol
DOCKED: USER        vdW + Hbond + desolv Energy     =  +0.00 kcal/mol
DOCKED: USER        Electrostatic Energy            =  +0.00 kcal/mol
DOCKED: USER        Moving Ligand-Fixed Receptor    =  +0.00 kcal/mol
DOCKED: USER        Moving Ligand-Moving Receptor   =  +0.00 kcal/mol
DOCKED: USER    (2) Final Total Internal Energy     = -14.34 kcal/mol
DOCKED: USER    (3) Torsional Free Energy           =  +6.56 kcal/mol
DOCKED: USER    (4) Unbound System's Energy         = -14.34 kcal/mol
DOCKED: USER
DOCKED: USER
DOCKED: REMARK  Name = ligands/ligand_25.pdb
DOCKED: REMARK  32 active torsions:
DOCKED: REMARK  status: ('A' for Active; 'I' for Inactive)
DOCKED: REMARK    1  A    between atoms: C1_1  and  S1_2
DOCKED: REMARK    2  A    between atoms: S1_2  and  C2_3
DOCKED: REMARK    3  A    between atoms: C2_3  and  C3_4
DOCKED: REMARK    4  A    between atoms: C3_4  and  C4_5
DOCKED: REMARK    5  A    between atoms: C4_5  and  N1_6
DOCKED: REMARK    6  A    between atoms: C4_5  and  C15_21
DOCKED: REMARK    7  A    between atoms: C5_7  and  C6_9
DOCKED: REMARK    8  A    between atoms: C6_9  and  N2_10
DOCKED: REMARK    9  A    between atoms: C6_9  and  C12_18
DOCKED: REMARK   10  A    between atoms: C7_11  and  O3_13
DOCKED: REMARK   11  A    between atoms: O3_13  and  C8_14
DOCKED: REMARK   12  A    between atoms: C8_14  and  C9_15
DOCKED: REMARK   13  A    between atoms: C8_14  and  C10_16
DOCKED: REMARK   14  A    between atoms: C8_14  and  C11_17
DOCKED: REMARK   15  A    between atoms: C12_18  and  C13_19
DOCKED: REMARK   16  A    between atoms: C12_18  and  C14_20
DOCKED: REMARK   17  A    between atoms: N3_23  and  C16_24
DOCKED: REMARK   18  A    between atoms: C16_24  and  C17_25
DOCKED: REMARK   19  A    between atoms: C16_24  and  C21_29
DOCKED: REMARK   20  A    between atoms: C17_25  and  C18_26
DOCKED: REMARK   21  A    between atoms: C18_26  and  C19_27
DOCKED: REMARK   22  A    between atoms: C18_26  and  C20_28
DOCKED: REMARK   23  A    between atoms: C21_29  and  O5_30
DOCKED: REMARK   24  A    between atoms: C21_29  and  C22_31
DOCKED: REMARK   25  A    between atoms: C22_31  and  C23_32
DOCKED: REMARK   26  A    between atoms: N4_34  and  C24_35
DOCKED: REMARK   27  A    between atoms: C24_35  and  C25_36
DOCKED: REMARK   28  A    between atoms: C24_35  and  C34_49
DOCKED: REMARK   29  A    between atoms: N5_38  and  C26_39
DOCKED: REMARK   30  A    between atoms: C26_39  and  C27_40
DOCKED: REMARK   31  A    between atoms: C34_49  and  C35_50
DOCKED: REMARK   32  A    between atoms: C34_49  and  C36_51
DOCKED: REMARK                            x       y       z     vdW  Elec       q    Type
DOCKED: REMARK                         _______ _______ _______ _____ _____    ______ ____
DOCKED: USER                              x       y       z     vdW  Elec       q    Type
DOCKED: USER                           _______ _______ _______ _____ _____    ______ ____
DOCKED: ROOT
DOCKED: ATOM      1  C16 UNL     1       3.568  -4.074  -0.437 +0.00 +0.00    +0.102 C  
DOCKED: ENDROOT
DOCKED: BRANCH   1   4
DOCKED: ATOM      2  C15 UNL     1       5.757  -4.976  -1.195 +0.00 +0.00    +0.234 C  
DOCKED: ATOM      3  O4  UNL     1       5.939  -4.049  -1.986 +0.00 -0.00    -0.274 OA 
DOCKED: ATOM      4  N3  UNL     1       4.620  -5.087  -0.426 +0.00 -0.00    -0.308 N  
DOCKED: ATOM      5  H28 UNL     1       4.575  -5.821   0.280 +0.00 +0.00    +0.149 HD 
DOCKED: BRANCH   2   6
DOCKED: ATOM      6  C4  UNL     1       6.804  -6.095  -0.994 +0.00 +0.00    +0.160 C  
DOCKED: BRANCH   6   7
DOCKED: ATOM      7  N1  UNL     1       6.056  -7.334  -0.797 +0.00 -0.00    -0.302 N  
DOCKED: ATOM      8  C5  UNL     1       5.394  -7.981  -1.812 +0.00 +0.00    +0.234 C  
DOCKED: ATOM      9  O1  UNL     1       5.352  -7.541  -2.962 +0.00 -0.00    -0.274 OA 
DOCKED: ATOM     10  H9  UNL     1       5.977  -7.662   0.165 +0.00 +0.00    +0.150 HD 
DOCKED: BRANCH   8  11
DOCKED: ATOM     11  C6  UNL     1       4.699  -9.293  -1.392 +0.00 +0.00    +0.165 C  
DOCKED: BRANCH  11  12
DOCKED: ATOM     12  N2  UNL     1       3.337  -8.958  -0.997 +0.00 -0.00    -0.270 N  
DOCKED: ATOM     13  C7  UNL     1       3.105  -8.131   0.060 +0.00 +0.00    +0.401 C  
DOCKED: ATOM     14  O2  UNL     1       3.940  -7.790   0.878 +0.00 -0.00    -0.226 OA 
DOCKED: ATOM     15  H11 UNL     1       2.629  -8.905  -1.719 +0.00 +0.00    +0.153 HD 
DOCKED: BRANCH  13  16
DOCKED: ATOM     16  O3  UNL     1       1.812  -7.736   0.033 +0.00 -0.00    -0.445 OA 
DOCKED: BRANCH  16  17
DOCKED: ATOM     17  C8  UNL     1       0.868  -8.236   1.017 +0.00 +0.00    +0.107 C  
DOCKED: ATOM     18  C9  UNL     1       1.340  -7.957   2.450 +0.00 +0.00    +0.055 C  
DOCKED: ATOM     19  C10 UNL     1       0.574  -9.724   0.792 +0.00 +0.00    +0.055 C  
DOCKED: ATOM     20  C11 UNL     1      -0.416  -7.435   0.762 +0.00 +0.00    +0.055 C  
DOCKED: ENDBRANCH  16  17
DOCKED: ENDBRANCH  13  16
DOCKED: ENDBRANCH  11  12
DOCKED: BRANCH  11  21
DOCKED: ATOM     21  C12 UNL     1       4.718 -10.373  -2.497 +0.00 +0.00    +0.012 C  
DOCKED: ATOM     22  C13 UNL     1       5.918 -11.325  -2.436 +0.00 +0.00    +0.009 C  
DOCKED: ATOM     23  C14 UNL     1       3.417 -11.181  -2.503 +0.00 +0.00    +0.009 C  
DOCKED: ENDBRANCH  11  21
DOCKED: ENDBRANCH   8  11
DOCKED: ENDBRANCH   6   7
DOCKED: BRANCH   6  24
DOCKED: ATOM     24  C3  UNL     1       7.765  -6.188  -2.194 +0.00 +0.00    +0.042 C  
DOCKED: BRANCH  24  25
DOCKED: ATOM     25  C2  UNL     1       9.072  -6.904  -1.850 +0.00 +0.00    +0.071 C  
DOCKED: BRANCH  25  27
DOCKED: ATOM     26  C1  UNL     1       8.774  -9.061  -0.151 +0.00 +0.00    +0.084 C  
DOCKED: ATOM     27  S1  UNL     1       9.162  -7.291  -0.071 +0.00 -0.00    -0.164 S  
DOCKED: ENDBRANCH  25  27
DOCKED: ENDBRANCH  24  25
DOCKED: ENDBRANCH   6  24
DOCKED: ENDBRANCH   2   6
DOCKED: ENDBRANCH   1   4
DOCKED: BRANCH   1  28
DOCKED: ATOM     28  C21 UNL     1       2.758  -4.101   0.896 +0.00 +0.00    +0.143 C  
DOCKED: BRANCH  28  29
DOCKED: ATOM     29  O5  UNL     1       2.747  -5.397   1.495 +0.00 -0.00    -0.389 OA 
DOCKED: ATOM     30  H40 UNL     1       2.661  -6.054   0.782 +0.00 +0.00    +0.210 HD 
DOCKED: ENDBRANCH  28  29
DOCKED: BRANCH  28  31
DOCKED: ATOM     31  C22 UNL     1       3.091  -3.026   1.936 +0.00 +0.00    +0.129 C  
DOCKED: BRANCH  31  32
DOCKED: ATOM     32  C23 UNL     1       4.316  -3.238   2.809 +0.00 +0.00    +0.216 C  
DOCKED: ATOM     33  O6  UNL     1       4.524  -2.693   3.885 +0.00 -0.00    -0.276 OA 
DOCKED: ATOM     34  N4  UNL     1       5.221  -4.127   2.245 +0.00 -0.00    -0.304 N  
DOCKED: ATOM     35  H43 UNL     1       4.819  -4.807   1.611 +0.00 +0.00    +0.149 HD 
DOCKED: BRANCH  34  36
DOCKED: ATOM     36  C24 UNL     1       6.342  -4.609   3.046 +0.00 +0.00    +0.161 C  
DOCKED: BRANCH  36  37
DOCKED: ATOM     37  C25 UNL     1       6.559  -6.096   2.698 +0.00 +0.00    +0.234 C  
DOCKED: ATOM     38  O7  UNL     1       6.036  -6.625   1.714 +0.00 -0.00    -0.274 OA 
DOCKED: ATOM     39  N5  UNL     1       7.421  -6.761   3.546 +0.00 -0.00    -0.310 N  
DOCKED: ATOM     40  H45 UNL     1       7.670  -6.327   4.425 +0.00 +0.00    +0.149 HD 
DOCKED: BRANCH  39  41
DOCKED: ATOM     41  C26 UNL     1       7.639  -8.185   3.427 +0.00 +0.00    +0.139 C  
DOCKED: BRANCH  41  42
DOCKED: ATOM     42  C27 UNL     1       6.404  -8.987   3.085 +0.00 -0.00    -0.027 A  
DOCKED: ATOM     43  C28 UNL     1       5.267  -8.837   3.922 +0.00 +0.00    +0.009 A  
DOCKED: ATOM     44  C29 UNL     1       4.086  -9.548   3.679 +0.00 +0.00    +0.050 A  
DOCKED: ATOM     45  C30 UNL     1       4.061 -10.398   2.596 +0.00 +0.00    +0.166 A  
DOCKED: ATOM     46  C31 UNL     1       5.154 -10.550   1.778 +0.00 +0.00    +0.167 A  
DOCKED: ATOM     47  C32 UNL     1       6.337  -9.872   1.995 +0.00 +0.00    +0.054 A  
DOCKED: ATOM     48  O8  UNL     1       4.915 -11.413   0.755 +0.00 -0.00    -0.453 OA 
DOCKED: ATOM     49  C33 UNL     1       3.562 -11.814   1.044 +0.00 +0.00    +0.466 C  
DOCKED: ATOM     50  O9  UNL     1       3.004 -11.155   2.201 +0.00 -0.00    -0.453 OA 
DOCKED: ENDBRANCH  41  42
DOCKED: ENDBRANCH  39  41
DOCKED: ENDBRANCH  36  37
DOCKED: BRANCH  36  51
DOCKED: ATOM     51  C34 UNL     1       7.636  -3.794   2.837 +0.00 +0.00    +0.012 C  
DOCKED: ATOM     52  C35 UNL     1       8.618  -3.893   4.008 +0.00 +0.00    +0.009 C  
DOCKED: ATOM     53  C36 UNL     1       8.336  -4.203   1.538 +0.00 +0.00    +0.009 C  
DOCKED: ENDBRANCH  36  51
DOCKED: ENDBRANCH  34  36
DOCKED: ENDBRANCH  31  32
DOCKED: ENDBRANCH  28  31
DOCKED: ENDBRANCH   1  28
DOCKED: BRANCH   1  54
DOCKED: ATOM     54  C17 UNL     1       2.715  -4.158  -1.715 +0.00 +0.00    +0.028 C  
DOCKED: BRANCH  54  55
DOCKED: ATOM     55  C18 UNL     1       2.363  -5.571  -2.233 +0.00 -0.00    -0.015 C  
DOCKED: ATOM     56  C19 UNL     1       0.867  -5.874  -2.179 +0.00 +0.00    +0.007 C  
DOCKED: ATOM     57  C20 UNL     1       2.927  -5.873  -3.620 +0.00 +0.00    +0.007 C  
DOCKED: ENDBRANCH  54  55
DOCKED: ENDBRANCH   1  54
DOCKED: TORSDOF 22
DOCKED: TER
DOCKED: ENDMDL
________________________________________________________________________________


    FINAL DOCKED STATE:
    ________________________


Run:   16 / 20
Time taken for this run:   1.805s

DOCKED: MODEL        16
DOCKED: USER    Run = 16
DOCKED: USER
DOCKED: USER    Estimated Free Energy of Binding    =  +6.56 kcal/mol  [=(1)+(2)+(3)-(4)]
DOCKED: USER
DOCKED: USER    (1) Final Intermolecular Energy     =  +0.00 kcal/mol
DOCKED: USER        vdW + Hbond + desolv Energy     =  +0.00 kcal/mol
DOCKED: USER        Electrostatic Energy            =  +0.00 kcal/mol
DOCKED: USER        Moving Ligand-Fixed Receptor    =  +0.00 kcal/mol
DOCKED: USER        Moving Ligand-Moving Receptor   =  +0.00 kcal/mol
DOCKED: USER    (2) Final Total Internal Energy     = -14.44 kcal/mol
DOCKED: USER    (3) Torsional Free Energy           =  +6.56 kcal/mol
DOCKED: USER    (4) Unbound System's Energy         = -14.44 kcal/mol
DOCKED: USER
DOCKED: USER
DOCKED: REMARK  Name = ligands/ligand_25.pdb
DOCKED: REMARK  32 active torsions:
DOCKED: REMARK  status: ('A' for Active; 'I' for Inactive)
DOCKED: REMARK    1  A    between atoms: C1_1  and  S1_2
DOCKED: REMARK    2  A    between atoms: S1_2  and  C2_3
DOCKED: REMARK    3  A    between atoms: C2_3  and  C3_4
DOCKED: REMARK    4  A    between atoms: C3_4  and  C4_5
DOCKED: REMARK    5  A    between atoms: C4_5  and  N1_6
DOCKED: REMARK    6  A    between atoms: C4_5  and  C15_21
DOCKED: REMARK    7  A    between atoms: C5_7  and  C6_9
DOCKED: REMARK    8  A    between atoms: C6_9  and  N2_10
DOCKED: REMARK    9  A    between atoms: C6_9  and  C12_18
DOCKED: REMARK   10  A    between atoms: C7_11  and  O3_13
DOCKED: REMARK   11  A    between atoms: O3_13  and  C8_14
DOCKED: REMARK   12  A    between atoms: C8_14  and  C9_15
DOCKED: REMARK   13  A    between atoms: C8_14  and  C10_16
DOCKED: REMARK   14  A    between atoms: C8_14  and  C11_17
DOCKED: REMARK   15  A    between atoms: C12_18  and  C13_19
DOCKED: REMARK   16  A    between atoms: C12_18  and  C14_20
DOCKED: REMARK   17  A    between atoms: N3_23  and  C16_24
DOCKED: REMARK   18  A    between atoms: C16_24  and  C17_25
DOCKED: REMARK   19  A    between atoms: C16_24  and  C21_29
DOCKED: REMARK   20  A    between atoms: C17_25  and  C18_26
DOCKED: REMARK   21  A    between atoms: C18_26  and  C19_27
DOCKED: REMARK   22  A    between atoms: C18_26  and  C20_28
DOCKED: REMARK   23  A    between atoms: C21_29  and  O5_30
DOCKED: REMARK   24  A    between atoms: C21_29  and  C22_31
DOCKED: REMARK   25  A    between atoms: C22_31  and  C23_32
DOCKED: REMARK   26  A    between atoms: N4_34  and  C24_35
DOCKED: REMARK   27  A    between atoms: C24_35  and  C25_36
DOCKED: REMARK   28  A    between atoms: C24_35  and  C34_49
DOCKED: REMARK   29  A    between atoms: N5_38  and  C26_39
DOCKED: REMARK   30  A    between atoms: C26_39  and  C27_40
DOCKED: REMARK   31  A    between atoms: C34_49  and  C35_50
DOCKED: REMARK   32  A    between atoms: C34_49  and  C36_51
DOCKED: REMARK                            x       y       z     vdW  Elec       q    Type
DOCKED: REMARK                         _______ _______ _______ _____ _____    ______ ____
DOCKED: USER                              x       y       z     vdW  Elec       q    Type
DOCKED: USER                           _______ _______ _______ _____ _____    ______ ____
DOCKED: ROOT
DOCKED: ATOM      1  C16 UNL     1      15.038  -2.937  -4.152 +0.00 +0.00    +0.102 C  
DOCKED: ENDROOT
DOCKED: BRANCH   1   4
DOCKED: ATOM      2  C15 UNL     1      13.167  -1.589  -3.225 +0.00 +0.00    +0.234 C  
DOCKED: ATOM      3  O4  UNL     1      13.926  -0.826  -2.625 +0.00 -0.00    -0.274 OA 
DOCKED: ATOM      4  N3  UNL     1      13.617  -2.661  -3.964 +0.00 -0.00    -0.308 N  
DOCKED: ATOM      5  H28 UNL     1      12.946  -3.193  -4.516 +0.00 +0.00    +0.149 HD 
DOCKED: BRANCH   2   6
DOCKED: ATOM      6  C4  UNL     1      11.633  -1.398  -3.203 +0.00 +0.00    +0.160 C  
DOCKED: BRANCH   6   7
DOCKED: ATOM      7  N1  UNL     1      11.080  -2.361  -4.152 +0.00 -0.00    -0.302 N  
DOCKED: ATOM      8  C5  UNL     1      11.276  -2.274  -5.510 +0.00 +0.00    +0.234 C  
DOCKED: ATOM      9  O1  UNL     1      11.904  -1.353  -6.031 +0.00 -0.00    -0.274 OA 
DOCKED: ATOM     10  H9  UNL     1      10.462  -3.071  -3.762 +0.00 +0.00    +0.150 HD 
DOCKED: BRANCH   8  11
DOCKED: ATOM     11  C6  UNL     1      10.634  -3.417  -6.325 +0.00 +0.00    +0.165 C  
DOCKED: BRANCH  11  12
DOCKED: ATOM     12  N2  UNL     1      11.591  -4.514  -6.369 +0.00 -0.00    -0.270 N  
DOCKED: ATOM     13  C7  UNL     1      11.902  -5.208  -5.238 +0.00 +0.00    +0.401 C  
DOCKED: ATOM     14  O2  UNL     1      11.615  -4.865  -4.106 +0.00 -0.00    -0.226 OA 
DOCKED: ATOM     15  H11 UNL     1      11.646  -5.068  -7.214 +0.00 +0.00    +0.153 HD 
DOCKED: BRANCH  13  16
DOCKED: ATOM     16  O3  UNL     1      12.554  -6.341  -5.584 +0.00 -0.00    -0.445 OA 
DOCKED: BRANCH  16  17
DOCKED: ATOM     17  C8  UNL     1      11.815  -7.550  -5.898 +0.00 +0.00    +0.107 C  
DOCKED: ATOM     18  C9  UNL     1      12.500  -8.800  -5.331 +0.00 +0.00    +0.055 C  
DOCKED: ATOM     19  C10 UNL     1      11.569  -7.669  -7.407 +0.00 +0.00    +0.055 C  
DOCKED: ATOM     20  C11 UNL     1      10.465  -7.372  -5.190 +0.00 +0.00    +0.055 C  
DOCKED: ENDBRANCH  16  17
DOCKED: ENDBRANCH  13  16
DOCKED: ENDBRANCH  11  12
DOCKED: BRANCH  11  21
DOCKED: ATOM     21  C12 UNL     1       9.272  -3.877  -5.759 +0.00 +0.00    +0.012 C  
DOCKED: ATOM     22  C13 UNL     1       8.292  -2.739  -5.453 +0.00 +0.00    +0.009 C  
DOCKED: ATOM     23  C14 UNL     1       8.605  -4.898  -6.685 +0.00 +0.00    +0.009 C  
DOCKED: ENDBRANCH  11  21
DOCKED: ENDBRANCH   8  11
DOCKED: ENDBRANCH   6   7
DOCKED: BRANCH   6  24
DOCKED: ATOM     24  C3  UNL     1      11.062  -1.594  -1.787 +0.00 +0.00    +0.042 C  
DOCKED: BRANCH  24  25
DOCKED: ATOM     25  C2  UNL     1      11.437  -2.948  -1.181 +0.00 +0.00    +0.071 C  
DOCKED: BRANCH  25  27
DOCKED: ATOM     26  C1  UNL     1      11.127  -5.691  -1.250 +0.00 +0.00    +0.084 C  
DOCKED: ATOM     27  S1  UNL     1      10.138  -4.189  -1.489 +0.00 -0.00    -0.164 S  
DOCKED: ENDBRANCH  25  27
DOCKED: ENDBRANCH  24  25
DOCKED: ENDBRANCH   6  24
DOCKED: ENDBRANCH   2   6
DOCKED: ENDBRANCH   1   4
DOCKED: BRANCH   1  28
DOCKED: ATOM     28  C21 UNL     1      15.323  -3.415  -5.609 +0.00 +0.00    +0.143 C  
DOCKED: BRANCH  28  29
DOCKED: ATOM     29  O5  UNL     1      14.260  -4.212  -6.133 +0.00 -0.00    -0.389 OA 
DOCKED: ATOM     30  H40 UNL     1      14.302  -5.085  -5.703 +0.00 +0.00    +0.210 HD 
DOCKED: ENDBRANCH  28  29
DOCKED: BRANCH  28  31
DOCKED: ATOM     31  C22 UNL     1      15.751  -2.348  -6.622 +0.00 +0.00    +0.129 C  
DOCKED: BRANCH  31  32
DOCKED: ATOM     32  C23 UNL     1      15.126  -2.392  -8.006 +0.00 +0.00    +0.216 C  
DOCKED: ATOM     33  O6  UNL     1      15.738  -2.507  -9.059 +0.00 -0.00    -0.276 OA 
DOCKED: ATOM     34  N4  UNL     1      13.744  -2.267  -7.967 +0.00 -0.00    -0.304 N  
DOCKED: ATOM     35  H43 UNL     1      13.307  -2.579  -7.107 +0.00 +0.00    +0.149 HD 
DOCKED: BRANCH  34  36
DOCKED: ATOM     36  C24 UNL     1      12.970  -2.507  -9.181 +0.00 +0.00    +0.161 C  
DOCKED: BRANCH  36  37
DOCKED: ATOM     37  C25 UNL     1      12.959  -4.028  -9.435 +0.00 +0.00    +0.234 C  
DOCKED: ATOM     38  O7  UNL     1      12.076  -4.764  -8.987 +0.00 -0.00    -0.274 OA 
DOCKED: ATOM     39  N5  UNL     1      13.984  -4.479 -10.241 +0.00 -0.00    -0.310 N  
DOCKED: ATOM     40  H45 UNL     1      14.766  -3.864 -10.424 +0.00 +0.00    +0.149 HD 
DOCKED: BRANCH  39  41
DOCKED: ATOM     41  C26 UNL     1      14.184  -5.890 -10.479 +0.00 +0.00    +0.139 C  
DOCKED: BRANCH  41  42
DOCKED: ATOM     42  C27 UNL     1      14.586  -6.687  -9.259 +0.00 -0.00    -0.027 A  
DOCKED: ATOM     43  C28 UNL     1      14.460  -8.100  -9.321 +0.00 +0.00    +0.009 A  
DOCKED: ATOM     44  C29 UNL     1      14.805  -8.910  -8.233 +0.00 +0.00    +0.050 A  
DOCKED: ATOM     45  C30 UNL     1      15.273  -8.291  -7.096 +0.00 +0.00    +0.166 A  
DOCKED: ATOM     46  C31 UNL     1      15.401  -6.924  -7.024 +0.00 +0.00    +0.167 A  
DOCKED: ATOM     47  C32 UNL     1      15.061  -6.096  -8.075 +0.00 +0.00    +0.054 A  
DOCKED: ATOM     48  O8  UNL     1      15.904  -6.517  -5.829 +0.00 -0.00    -0.453 OA 
DOCKED: ATOM     49  C33 UNL     1      16.043  -7.778  -5.146 +0.00 +0.00    +0.466 C  
DOCKED: ATOM     50  O9  UNL     1      15.665  -8.912  -5.953 +0.00 -0.00    -0.453 OA 
DOCKED: ENDBRANCH  41  42
DOCKED: ENDBRANCH  39  41
DOCKED: ENDBRANCH  36  37
DOCKED: BRANCH  36  51
DOCKED: ATOM     51  C34 UNL     1      11.533  -1.944  -9.110 +0.00 +0.00    +0.012 C  
DOCKED: ATOM     52  C35 UNL     1      11.478  -0.419  -8.988 +0.00 +0.00    +0.009 C  
DOCKED: ATOM     53  C36 UNL     1      10.709  -2.399 -10.317 +0.00 +0.00    +0.009 C  
DOCKED: ENDBRANCH  36  51
DOCKED: ENDBRANCH  34  36
DOCKED: ENDBRANCH  31  32
DOCKED: ENDBRANCH  28  31
DOCKED: ENDBRANCH   1  28
DOCKED: BRANCH   1  54
DOCKED: ATOM     54  C17 UNL     1      15.587  -3.858  -3.048 +0.00 +0.00    +0.028 C  
DOCKED: BRANCH  54  55
DOCKED: ATOM     55  C18 UNL     1      14.555  -4.683  -2.246 +0.00 -0.00    -0.015 C  
DOCKED: ATOM     56  C19 UNL     1      14.339  -6.086  -2.811 +0.00 +0.00    +0.007 C  
DOCKED: ATOM     57  C20 UNL     1      14.850  -4.743  -0.748 +0.00 +0.00    +0.007 C  
DOCKED: ENDBRANCH  54  55
DOCKED: ENDBRANCH   1  54
DOCKED: TORSDOF 22
DOCKED: TER
DOCKED: ENDMDL
________________________________________________________________________________


    FINAL DOCKED STATE:
    ________________________


Run:   17 / 20
Time taken for this run:   1.805s

DOCKED: MODEL        17
DOCKED: USER    Run = 17
DOCKED: USER
DOCKED: USER    Estimated Free Energy of Binding    =  +6.56 kcal/mol  [=(1)+(2)+(3)-(4)]
DOCKED: USER
DOCKED: USER    (1) Final Intermolecular Energy     =  +0.00 kcal/mol
DOCKED: USER        vdW + Hbond + desolv Energy     =  +0.00 kcal/mol
DOCKED: USER        Electrostatic Energy            =  +0.00 kcal/mol
DOCKED: USER        Moving Ligand-Fixed Receptor    =  +0.00 kcal/mol
DOCKED: USER        Moving Ligand-Moving Receptor   =  +0.00 kcal/mol
DOCKED: USER    (2) Final Total Internal Energy     = -14.35 kcal/mol
DOCKED: USER    (3) Torsional Free Energy           =  +6.56 kcal/mol
DOCKED: USER    (4) Unbound System's Energy         = -14.35 kcal/mol
DOCKED: USER
DOCKED: USER
DOCKED: REMARK  Name = ligands/ligand_25.pdb
DOCKED: REMARK  32 active torsions:
DOCKED: REMARK  status: ('A' for Active; 'I' for Inactive)
DOCKED: REMARK    1  A    between atoms: C1_1  and  S1_2
DOCKED: REMARK    2  A    between atoms: S1_2  and  C2_3
DOCKED: REMARK    3  A    between atoms: C2_3  and  C3_4
DOCKED: REMARK    4  A    between atoms: C3_4  and  C4_5
DOCKED: REMARK    5  A    between atoms: C4_5  and  N1_6
DOCKED: REMARK    6  A    between atoms: C4_5  and  C15_21
DOCKED: REMARK    7  A    between atoms: C5_7  and  C6_9
DOCKED: REMARK    8  A    between atoms: C6_9  and  N2_10
DOCKED: REMARK    9  A    between atoms: C6_9  and  C12_18
DOCKED: REMARK   10  A    between atoms: C7_11  and  O3_13
DOCKED: REMARK   11  A    between atoms: O3_13  and  C8_14
DOCKED: REMARK   12  A    between atoms: C8_14  and  C9_15
DOCKED: REMARK   13  A    between atoms: C8_14  and  C10_16
DOCKED: REMARK   14  A    between atoms: C8_14  and  C11_17
DOCKED: REMARK   15  A    between atoms: C12_18  and  C13_19
DOCKED: REMARK   16  A    between atoms: C12_18  and  C14_20
DOCKED: REMARK   17  A    between atoms: N3_23  and  C16_24
DOCKED: REMARK   18  A    between atoms: C16_24  and  C17_25
DOCKED: REMARK   19  A    between atoms: C16_24  and  C21_29
DOCKED: REMARK   20  A    between atoms: C17_25  and  C18_26
DOCKED: REMARK   21  A    between atoms: C18_26  and  C19_27
DOCKED: REMARK   22  A    between atoms: C18_26  and  C20_28
DOCKED: REMARK   23  A    between atoms: C21_29  and  O5_30
DOCKED: REMARK   24  A    between atoms: C21_29  and  C22_31
DOCKED: REMARK   25  A    between atoms: C22_31  and  C23_32
DOCKED: REMARK   26  A    between atoms: N4_34  and  C24_35
DOCKED: REMARK   27  A    between atoms: C24_35  and  C25_36
DOCKED: REMARK   28  A    between atoms: C24_35  and  C34_49
DOCKED: REMARK   29  A    between atoms: N5_38  and  C26_39
DOCKED: REMARK   30  A    between atoms: C26_39  and  C27_40
DOCKED: REMARK   31  A    between atoms: C34_49  and  C35_50
DOCKED: REMARK   32  A    between atoms: C34_49  and  C36_51
DOCKED: REMARK                            x       y       z     vdW  Elec       q    Type
DOCKED: REMARK                         _______ _______ _______ _____ _____    ______ ____
DOCKED: USER                              x       y       z     vdW  Elec       q    Type
DOCKED: USER                           _______ _______ _______ _____ _____    ______ ____
DOCKED: ROOT
DOCKED: ATOM      1  C16 UNL     1       5.409  -2.128  -3.417 +0.00 +0.00    +0.102 C  
DOCKED: ENDROOT
DOCKED: BRANCH   1   4
DOCKED: ATOM      2  C15 UNL     1       4.675  -3.638  -1.585 +0.00 +0.00    +0.234 C  
DOCKED: ATOM      3  O4  UNL     1       3.982  -2.767  -1.056 +0.00 -0.00    -0.274 OA 
DOCKED: ATOM      4  N3  UNL     1       5.428  -3.407  -2.714 +0.00 -0.00    -0.308 N  
DOCKED: ATOM      5  H28 UNL     1       5.899  -4.194  -3.159 +0.00 +0.00    +0.149 HD 
DOCKED: BRANCH   2   6
DOCKED: ATOM      6  C4  UNL     1       4.749  -5.075  -1.021 +0.00 +0.00    +0.160 C  
DOCKED: BRANCH   6   7
DOCKED: ATOM      7  N1  UNL     1       6.129  -5.520  -1.197 +0.00 -0.00    -0.302 N  
DOCKED: ATOM      8  C5  UNL     1       7.171  -5.058  -0.430 +0.00 +0.00    +0.234 C  
DOCKED: ATOM      9  O1  UNL     1       7.023  -4.202   0.442 +0.00 -0.00    -0.274 OA 
DOCKED: ATOM     10  H9  UNL     1       6.303  -6.143  -1.985 +0.00 +0.00    +0.150 HD 
DOCKED: BRANCH   8  11
DOCKED: ATOM     11  C6  UNL     1       8.541  -5.687  -0.761 +0.00 +0.00    +0.165 C  
DOCKED: BRANCH  11  12
DOCKED: ATOM     12  N2  UNL     1       9.176  -4.848  -1.769 +0.00 -0.00    -0.270 N  
DOCKED: ATOM     13  C7  UNL     1       8.605  -4.686  -2.995 +0.00 +0.00    +0.401 C  
DOCKED: ATOM     14  O2  UNL     1       7.691  -5.360  -3.436 +0.00 -0.00    -0.226 OA 
DOCKED: ATOM     15  H11 UNL     1       9.706  -4.044  -1.457 +0.00 +0.00    +0.153 HD 
DOCKED: BRANCH  13  16
DOCKED: ATOM     16  O3  UNL     1       9.201  -3.648  -3.623 +0.00 -0.00    -0.445 OA 
DOCKED: BRANCH  16  17
DOCKED: ATOM     17  C8  UNL     1      10.084  -3.877  -4.752 +0.00 +0.00    +0.107 C  
DOCKED: ATOM     18  C9  UNL     1       9.390  -4.678  -5.862 +0.00 +0.00    +0.055 C  
DOCKED: ATOM     19  C10 UNL     1      11.392  -4.540  -4.304 +0.00 +0.00    +0.055 C  
DOCKED: ATOM     20  C11 UNL     1      10.399  -2.474  -5.288 +0.00 +0.00    +0.055 C  
DOCKED: ENDBRANCH  16  17
DOCKED: ENDBRANCH  13  16
DOCKED: ENDBRANCH  11  12
DOCKED: BRANCH  11  21
DOCKED: ATOM     21  C12 UNL     1       9.446  -5.862   0.480 +0.00 +0.00    +0.012 C  
DOCKED: ATOM     22  C13 UNL     1       9.319  -7.224   1.173 +0.00 +0.00    +0.009 C  
DOCKED: ATOM     23  C14 UNL     1      10.913  -5.591   0.137 +0.00 +0.00    +0.009 C  
DOCKED: ENDBRANCH  11  21
DOCKED: ENDBRANCH   8  11
DOCKED: ENDBRANCH   6   7
DOCKED: BRANCH   6  24
DOCKED: ATOM     24  C3  UNL     1       4.314  -5.124   0.455 +0.00 +0.00    +0.042 C  
DOCKED: BRANCH  24  25
DOCKED: ATOM     25  C2  UNL     1       3.941  -6.535   0.915 +0.00 +0.00    +0.071 C  
DOCKED: BRANCH  25  27
DOCKED: ATOM     26  C1  UNL     1       5.463  -8.564  -0.177 +0.00 +0.00    +0.084 C  
DOCKED: ATOM     27  S1  UNL     1       3.901  -7.695  -0.490 +0.00 -0.00    -0.164 S  
DOCKED: ENDBRANCH  25  27
DOCKED: ENDBRANCH  24  25
DOCKED: ENDBRANCH   6  24
DOCKED: ENDBRANCH   2   6
DOCKED: ENDBRANCH   1   4
DOCKED: BRANCH   1  28
DOCKED: ATOM     28  C21 UNL     1       5.804  -2.312  -4.915 +0.00 +0.00    +0.143 C  
DOCKED: BRANCH  28  29
DOCKED: ATOM     29  O5  UNL     1       6.679  -3.423  -5.110 +0.00 -0.00    -0.389 OA 
DOCKED: ATOM     30  H40 UNL     1       7.298  -3.450  -4.359 +0.00 +0.00    +0.210 HD 
DOCKED: ENDBRANCH  28  29
DOCKED: BRANCH  28  31
DOCKED: ATOM     31  C22 UNL     1       4.663  -2.333  -5.939 +0.00 +0.00    +0.129 C  
DOCKED: BRANCH  31  32
DOCKED: ATOM     32  C23 UNL     1       3.894  -3.631  -6.117 +0.00 +0.00    +0.216 C  
DOCKED: ATOM     33  O6  UNL     1       3.233  -3.935  -7.101 +0.00 -0.00    -0.276 OA 
DOCKED: ATOM     34  N4  UNL     1       3.999  -4.465  -5.012 +0.00 -0.00    -0.304 N  
DOCKED: ATOM     35  H43 UNL     1       4.839  -4.344  -4.460 +0.00 +0.00    +0.149 HD 
DOCKED: BRANCH  34  36
DOCKED: ATOM     36  C24 UNL     1       3.506  -5.836  -5.103 +0.00 +0.00    +0.161 C  
DOCKED: BRANCH  36  37
DOCKED: ATOM     37  C25 UNL     1       4.483  -6.737  -4.321 +0.00 +0.00    +0.234 C  
DOCKED: ATOM     38  O7  UNL     1       5.332  -6.276  -3.553 +0.00 -0.00    -0.274 OA 
DOCKED: ATOM     39  N5  UNL     1       4.293  -8.089  -4.516 +0.00 -0.00    -0.310 N  
DOCKED: ATOM     40  H45 UNL     1       3.711  -8.393  -5.286 +0.00 +0.00    +0.149 HD 
DOCKED: BRANCH  39  41
DOCKED: ATOM     41  C26 UNL     1       5.199  -9.062  -3.950 +0.00 +0.00    +0.139 C  
DOCKED: BRANCH  41  42
DOCKED: ATOM     42  C27 UNL     1       6.658  -8.668  -3.991 +0.00 -0.00    -0.027 A  
DOCKED: ATOM     43  C28 UNL     1       7.209  -8.304  -5.248 +0.00 +0.00    +0.009 A  
DOCKED: ATOM     44  C29 UNL     1       8.552  -7.932  -5.373 +0.00 +0.00    +0.050 A  
DOCKED: ATOM     45  C30 UNL     1       9.325  -7.926  -4.234 +0.00 +0.00    +0.166 A  
DOCKED: ATOM     46  C31 UNL     1       8.803  -8.274  -3.011 +0.00 +0.00    +0.167 A  
DOCKED: ATOM     47  C32 UNL     1       7.485  -8.655  -2.854 +0.00 +0.00    +0.054 A  
DOCKED: ATOM     48  O8  UNL     1       9.721  -8.177  -2.013 +0.00 -0.00    -0.453 OA 
DOCKED: ATOM     49  C33 UNL     1      10.887  -7.767  -2.753 +0.00 +0.00    +0.466 C  
DOCKED: ATOM     50  O9  UNL     1      10.637  -7.583  -4.162 +0.00 -0.00    -0.453 OA 
DOCKED: ENDBRANCH  41  42
DOCKED: ENDBRANCH  39  41
DOCKED: ENDBRANCH  36  37
DOCKED: BRANCH  36  51
DOCKED: ATOM     51  C34 UNL     1       2.061  -5.999  -4.583 +0.00 +0.00    +0.012 C  
DOCKED: ATOM     52  C35 UNL     1       1.341  -7.225  -5.151 +0.00 +0.00    +0.009 C  
DOCKED: ATOM     53  C36 UNL     1       2.033  -6.044  -3.053 +0.00 +0.00    +0.009 C  
DOCKED: ENDBRANCH  36  51
DOCKED: ENDBRANCH  34  36
DOCKED: ENDBRANCH  31  32
DOCKED: ENDBRANCH  28  31
DOCKED: ENDBRANCH   1  28
DOCKED: BRANCH   1  54
DOCKED: ATOM     54  C17 UNL     1       6.214  -1.056  -2.662 +0.00 +0.00    +0.028 C  
DOCKED: BRANCH  54  55
DOCKED: ATOM     55  C18 UNL     1       7.531  -1.508  -1.992 +0.00 -0.00    -0.015 C  
DOCKED: ATOM     56  C19 UNL     1       8.768  -0.829  -2.579 +0.00 +0.00    +0.007 C  
DOCKED: ATOM     57  C20 UNL     1       7.519  -1.386  -0.470 +0.00 +0.00    +0.007 C  
DOCKED: ENDBRANCH  54  55
DOCKED: ENDBRANCH   1  54
DOCKED: TORSDOF 22
DOCKED: TER
DOCKED: ENDMDL
________________________________________________________________________________


    FINAL DOCKED STATE:
    ________________________


Run:   18 / 20
Time taken for this run:   1.805s

DOCKED: MODEL        18
DOCKED: USER    Run = 18
DOCKED: USER
DOCKED: USER    Estimated Free Energy of Binding    =  +6.56 kcal/mol  [=(1)+(2)+(3)-(4)]
DOCKED: USER
DOCKED: USER    (1) Final Intermolecular Energy     =  +0.00 kcal/mol
DOCKED: USER        vdW + Hbond + desolv Energy     =  +0.00 kcal/mol
DOCKED: USER        Electrostatic Energy            =  +0.00 kcal/mol
DOCKED: USER        Moving Ligand-Fixed Receptor    =  +0.00 kcal/mol
DOCKED: USER        Moving Ligand-Moving Receptor   =  +0.00 kcal/mol
DOCKED: USER    (2) Final Total Internal Energy     = -14.19 kcal/mol
DOCKED: USER    (3) Torsional Free Energy           =  +6.56 kcal/mol
DOCKED: USER    (4) Unbound System's Energy         = -14.19 kcal/mol
DOCKED: USER
DOCKED: USER
DOCKED: REMARK  Name = ligands/ligand_25.pdb
DOCKED: REMARK  32 active torsions:
DOCKED: REMARK  status: ('A' for Active; 'I' for Inactive)
DOCKED: REMARK    1  A    between atoms: C1_1  and  S1_2
DOCKED: REMARK    2  A    between atoms: S1_2  and  C2_3
DOCKED: REMARK    3  A    between atoms: C2_3  and  C3_4
DOCKED: REMARK    4  A    between atoms: C3_4  and  C4_5
DOCKED: REMARK    5  A    between atoms: C4_5  and  N1_6
DOCKED: REMARK    6  A    between atoms: C4_5  and  C15_21
DOCKED: REMARK    7  A    between atoms: C5_7  and  C6_9
DOCKED: REMARK    8  A    between atoms: C6_9  and  N2_10
DOCKED: REMARK    9  A    between atoms: C6_9  and  C12_18
DOCKED: REMARK   10  A    between atoms: C7_11  and  O3_13
DOCKED: REMARK   11  A    between atoms: O3_13  and  C8_14
DOCKED: REMARK   12  A    between atoms: C8_14  and  C9_15
DOCKED: REMARK   13  A    between atoms: C8_14  and  C10_16
DOCKED: REMARK   14  A    between atoms: C8_14  and  C11_17
DOCKED: REMARK   15  A    between atoms: C12_18  and  C13_19
DOCKED: REMARK   16  A    between atoms: C12_18  and  C14_20
DOCKED: REMARK   17  A    between atoms: N3_23  and  C16_24
DOCKED: REMARK   18  A    between atoms: C16_24  and  C17_25
DOCKED: REMARK   19  A    between atoms: C16_24  and  C21_29
DOCKED: REMARK   20  A    between atoms: C17_25  and  C18_26
DOCKED: REMARK   21  A    between atoms: C18_26  and  C19_27
DOCKED: REMARK   22  A    between atoms: C18_26  and  C20_28
DOCKED: REMARK   23  A    between atoms: C21_29  and  O5_30
DOCKED: REMARK   24  A    between atoms: C21_29  and  C22_31
DOCKED: REMARK   25  A    between atoms: C22_31  and  C23_32
DOCKED: REMARK   26  A    between atoms: N4_34  and  C24_35
DOCKED: REMARK   27  A    between atoms: C24_35  and  C25_36
DOCKED: REMARK   28  A    between atoms: C24_35  and  C34_49
DOCKED: REMARK   29  A    between atoms: N5_38  and  C26_39
DOCKED: REMARK   30  A    between atoms: C26_39  and  C27_40
DOCKED: REMARK   31  A    between atoms: C34_49  and  C35_50
DOCKED: REMARK   32  A    between atoms: C34_49  and  C36_51
DOCKED: REMARK                            x       y       z     vdW  Elec       q    Type
DOCKED: REMARK                         _______ _______ _______ _____ _____    ______ ____
DOCKED: USER                              x       y       z     vdW  Elec       q    Type
DOCKED: USER                           _______ _______ _______ _____ _____    ______ ____
DOCKED: ROOT
DOCKED: ATOM      1  C16 UNL     1      10.438  -9.591  -0.503 +0.00 +0.00    +0.102 C  
DOCKED: ENDROOT
DOCKED: BRANCH   1   4
DOCKED: ATOM      2  C15 UNL     1      10.013  -7.687   1.037 +0.00 +0.00    +0.234 C  
DOCKED: ATOM      3  O4  UNL     1       9.724  -8.428   1.979 +0.00 -0.00    -0.274 OA 
DOCKED: ATOM      4  N3  UNL     1      10.340  -8.164  -0.213 +0.00 -0.00    -0.308 N  
DOCKED: ATOM      5  H28 UNL     1      10.665  -7.505  -0.919 +0.00 +0.00    +0.149 HD 
DOCKED: BRANCH   2   6
DOCKED: ATOM      6  C4  UNL     1      10.040  -6.149   1.188 +0.00 +0.00    +0.160 C  
DOCKED: BRANCH   6   7
DOCKED: ATOM      7  N1  UNL     1      10.158  -5.601  -0.161 +0.00 -0.00    -0.302 N  
DOCKED: ATOM      8  C5  UNL     1      10.470  -4.287  -0.414 +0.00 +0.00    +0.234 C  
DOCKED: ATOM      9  O1  UNL     1      10.637  -3.462   0.484 +0.00 -0.00    -0.274 OA 
DOCKED: ATOM     10  H9  UNL     1       9.914  -6.232  -0.924 +0.00 +0.00    +0.150 HD 
DOCKED: BRANCH   8  11
DOCKED: ATOM     11  C6  UNL     1      10.579  -3.929  -1.911 +0.00 +0.00    +0.165 C  
DOCKED: BRANCH  11  12
DOCKED: ATOM     12  N2  UNL     1      10.173  -5.104  -2.672 +0.00 -0.00    -0.270 N  
DOCKED: ATOM     13  C7  UNL     1      10.904  -6.253  -2.615 +0.00 +0.00    +0.401 C  
DOCKED: ATOM     14  O2  UNL     1      12.023  -6.348  -2.144 +0.00 -0.00    -0.226 OA 
DOCKED: ATOM     15  H11 UNL     1       9.184  -5.257  -2.823 +0.00 +0.00    +0.153 HD 
DOCKED: BRANCH  13  16
DOCKED: ATOM     16  O3  UNL     1      10.175  -7.262  -3.142 +0.00 -0.00    -0.445 OA 
DOCKED: BRANCH  16  17
DOCKED: ATOM     17  C8  UNL     1      10.247  -7.560  -4.562 +0.00 +0.00    +0.107 C  
DOCKED: ATOM     18  C9  UNL     1      11.598  -8.178  -4.945 +0.00 +0.00    +0.055 C  
DOCKED: ATOM     19  C10 UNL     1       9.929  -6.318  -5.402 +0.00 +0.00    +0.055 C  
DOCKED: ATOM     20  C11 UNL     1       9.150  -8.608  -4.793 +0.00 +0.00    +0.055 C  
DOCKED: ENDBRANCH  16  17
DOCKED: ENDBRANCH  13  16
DOCKED: ENDBRANCH  11  12
DOCKED: BRANCH  11  21
DOCKED: ATOM     21  C12 UNL     1       9.746  -2.688  -2.302 +0.00 +0.00    +0.012 C  
DOCKED: ATOM     22  C13 UNL     1      10.535  -1.374  -2.325 +0.00 +0.00    +0.009 C  
DOCKED: ATOM     23  C14 UNL     1       9.045  -2.893  -3.647 +0.00 +0.00    +0.009 C  
DOCKED: ENDBRANCH  11  21
DOCKED: ENDBRANCH   8  11
DOCKED: ENDBRANCH   6   7
DOCKED: BRANCH   6  24
DOCKED: ATOM     24  C3  UNL     1       8.782  -5.632   1.911 +0.00 +0.00    +0.042 C  
DOCKED: BRANCH  24  25
DOCKED: ATOM     25  C2  UNL     1       7.488  -6.029   1.199 +0.00 +0.00    +0.071 C  
DOCKED: BRANCH  25  27
DOCKED: ATOM     26  C1  UNL     1       7.120  -5.916  -1.536 +0.00 +0.00    +0.084 C  
DOCKED: ATOM     27  S1  UNL     1       7.050  -4.819  -0.093 +0.00 -0.00    -0.164 S  
DOCKED: ENDBRANCH  25  27
DOCKED: ENDBRANCH  24  25
DOCKED: ENDBRANCH   6  24
DOCKED: ENDBRANCH   2   6
DOCKED: ENDBRANCH   1   4
DOCKED: BRANCH   1  28
DOCKED: ATOM     28  C21 UNL     1      11.764  -9.914  -1.259 +0.00 +0.00    +0.143 C  
DOCKED: BRANCH  28  29
DOCKED: ATOM     29  O5  UNL     1      12.142  -8.868  -2.155 +0.00 -0.00    -0.389 OA 
DOCKED: ATOM     30  H40 UNL     1      11.335  -8.387  -2.410 +0.00 +0.00    +0.210 HD 
DOCKED: ENDBRANCH  28  29
DOCKED: BRANCH  28  31
DOCKED: ATOM     31  C22 UNL     1      12.959 -10.362  -0.411 +0.00 +0.00    +0.129 C  
DOCKED: BRANCH  31  32
DOCKED: ATOM     32  C23 UNL     1      13.847  -9.285   0.188 +0.00 +0.00    +0.216 C  
DOCKED: ATOM     33  O6  UNL     1      14.890  -9.482   0.797 +0.00 -0.00    -0.276 OA 
DOCKED: ATOM     34  N4  UNL     1      13.339  -8.009  -0.011 +0.00 -0.00    -0.304 N  
DOCKED: ATOM     35  H43 UNL     1      12.744  -7.903  -0.824 +0.00 +0.00    +0.149 HD 
DOCKED: BRANCH  34  36
DOCKED: ATOM     36  C24 UNL     1      14.171  -6.852   0.306 +0.00 +0.00    +0.161 C  
DOCKED: BRANCH  36  37
DOCKED: ATOM     37  C25 UNL     1      15.015  -6.527  -0.944 +0.00 +0.00    +0.234 C  
DOCKED: ATOM     38  O7  UNL     1      16.053  -5.862  -0.883 +0.00 -0.00    -0.274 OA 
DOCKED: ATOM     39  N5  UNL     1      14.538  -7.081  -2.114 +0.00 -0.00    -0.310 N  
DOCKED: ATOM     40  H45 UNL     1      13.599  -7.457  -2.127 +0.00 +0.00    +0.149 HD 
DOCKED: BRANCH  39  41
DOCKED: ATOM     41  C26 UNL     1      15.146  -6.776  -3.389 +0.00 +0.00    +0.139 C  
DOCKED: BRANCH  41  42
DOCKED: ATOM     42  C27 UNL     1      14.339  -5.848  -4.268 +0.00 -0.00    -0.027 A  
DOCKED: ATOM     43  C28 UNL     1      14.174  -6.208  -5.632 +0.00 +0.00    +0.009 A  
DOCKED: ATOM     44  C29 UNL     1      13.447  -5.400  -6.514 +0.00 +0.00    +0.050 A  
DOCKED: ATOM     45  C30 UNL     1      12.892  -4.244  -6.015 +0.00 +0.00    +0.166 A  
DOCKED: ATOM     46  C31 UNL     1      13.043  -3.886  -4.696 +0.00 +0.00    +0.167 A  
DOCKED: ATOM     47  C32 UNL     1      13.762  -4.654  -3.803 +0.00 +0.00    +0.054 A  
DOCKED: ATOM     48  O8  UNL     1      12.397  -2.727  -4.400 +0.00 -0.00    -0.453 OA 
DOCKED: ATOM     49  C33 UNL     1      11.856  -2.378  -5.689 +0.00 +0.00    +0.466 C  
DOCKED: ATOM     50  O9  UNL     1      12.147  -3.349  -6.715 +0.00 -0.00    -0.453 OA 
DOCKED: ENDBRANCH  41  42
DOCKED: ENDBRANCH  39  41
DOCKED: ENDBRANCH  36  37
DOCKED: BRANCH  36  51
DOCKED: ATOM     51  C34 UNL     1      13.357  -5.622   0.763 +0.00 +0.00    +0.012 C  
DOCKED: ATOM     52  C35 UNL     1      13.497  -5.315   2.256 +0.00 +0.00    +0.009 C  
DOCKED: ATOM     53  C36 UNL     1      13.729  -4.384  -0.059 +0.00 +0.00    +0.009 C  
DOCKED: ENDBRANCH  36  51
DOCKED: ENDBRANCH  34  36
DOCKED: ENDBRANCH  31  32
DOCKED: ENDBRANCH  28  31
DOCKED: ENDBRANCH   1  28
DOCKED: BRANCH   1  54
DOCKED: ATOM     54  C17 UNL     1       9.161 -10.120  -1.179 +0.00 +0.00    +0.028 C  
DOCKED: BRANCH  54  55
DOCKED: ATOM     55  C18 UNL     1       7.906  -9.220  -1.111 +0.00 -0.00    -0.015 C  
DOCKED: ATOM     56  C19 UNL     1       7.009  -9.348  -2.341 +0.00 +0.00    +0.007 C  
DOCKED: ATOM     57  C20 UNL     1       7.095  -9.394   0.171 +0.00 +0.00    +0.007 C  
DOCKED: ENDBRANCH  54  55
DOCKED: ENDBRANCH   1  54
DOCKED: TORSDOF 22
DOCKED: TER
DOCKED: ENDMDL
________________________________________________________________________________


    FINAL DOCKED STATE:
    ________________________


Run:   19 / 20
Time taken for this run:   1.805s

DOCKED: MODEL        19
DOCKED: USER    Run = 19
DOCKED: USER
DOCKED: USER    Estimated Free Energy of Binding    =  +6.56 kcal/mol  [=(1)+(2)+(3)-(4)]
DOCKED: USER
DOCKED: USER    (1) Final Intermolecular Energy     =  +0.00 kcal/mol
DOCKED: USER        vdW + Hbond + desolv Energy     =  +0.00 kcal/mol
DOCKED: USER        Electrostatic Energy            =  +0.00 kcal/mol
DOCKED: USER        Moving Ligand-Fixed Receptor    =  +0.00 kcal/mol
DOCKED: USER        Moving Ligand-Moving Receptor   =  +0.00 kcal/mol
DOCKED: USER    (2) Final Total Internal Energy     = -14.18 kcal/mol
DOCKED: USER    (3) Torsional Free Energy           =  +6.56 kcal/mol
DOCKED: USER    (4) Unbound System's Energy         = -14.18 kcal/mol
DOCKED: USER
DOCKED: USER
DOCKED: REMARK  Name = ligands/ligand_25.pdb
DOCKED: REMARK  32 active torsions:
DOCKED: REMARK  status: ('A' for Active; 'I' for Inactive)
DOCKED: REMARK    1  A    between atoms: C1_1  and  S1_2
DOCKED: REMARK    2  A    between atoms: S1_2  and  C2_3
DOCKED: REMARK    3  A    between atoms: C2_3  and  C3_4
DOCKED: REMARK    4  A    between atoms: C3_4  and  C4_5
DOCKED: REMARK    5  A    between atoms: C4_5  and  N1_6
DOCKED: REMARK    6  A    between atoms: C4_5  and  C15_21
DOCKED: REMARK    7  A    between atoms: C5_7  and  C6_9
DOCKED: REMARK    8  A    between atoms: C6_9  and  N2_10
DOCKED: REMARK    9  A    between atoms: C6_9  and  C12_18
DOCKED: REMARK   10  A    between atoms: C7_11  and  O3_13
DOCKED: REMARK   11  A    between atoms: O3_13  and  C8_14
DOCKED: REMARK   12  A    between atoms: C8_14  and  C9_15
DOCKED: REMARK   13  A    between atoms: C8_14  and  C10_16
DOCKED: REMARK   14  A    between atoms: C8_14  and  C11_17
DOCKED: REMARK   15  A    between atoms: C12_18  and  C13_19
DOCKED: REMARK   16  A    between atoms: C12_18  and  C14_20
DOCKED: REMARK   17  A    between atoms: N3_23  and  C16_24
DOCKED: REMARK   18  A    between atoms: C16_24  and  C17_25
DOCKED: REMARK   19  A    between atoms: C16_24  and  C21_29
DOCKED: REMARK   20  A    between atoms: C17_25  and  C18_26
DOCKED: REMARK   21  A    between atoms: C18_26  and  C19_27
DOCKED: REMARK   22  A    between atoms: C18_26  and  C20_28
DOCKED: REMARK   23  A    between atoms: C21_29  and  O5_30
DOCKED: REMARK   24  A    between atoms: C21_29  and  C22_31
DOCKED: REMARK   25  A    between atoms: C22_31  and  C23_32
DOCKED: REMARK   26  A    between atoms: N4_34  and  C24_35
DOCKED: REMARK   27  A    between atoms: C24_35  and  C25_36
DOCKED: REMARK   28  A    between atoms: C24_35  and  C34_49
DOCKED: REMARK   29  A    between atoms: N5_38  and  C26_39
DOCKED: REMARK   30  A    between atoms: C26_39  and  C27_40
DOCKED: REMARK   31  A    between atoms: C34_49  and  C35_50
DOCKED: REMARK   32  A    between atoms: C34_49  and  C36_51
DOCKED: REMARK                            x       y       z     vdW  Elec       q    Type
DOCKED: REMARK                         _______ _______ _______ _____ _____    ______ ____
DOCKED: USER                              x       y       z     vdW  Elec       q    Type
DOCKED: USER                           _______ _______ _______ _____ _____    ______ ____
DOCKED: ROOT
DOCKED: ATOM      1  C16 UNL     1       4.594  -5.184  -3.715 +0.00 +0.00    +0.102 C  
DOCKED: ENDROOT
DOCKED: BRANCH   1   4
DOCKED: ATOM      2  C15 UNL     1       4.615  -4.726  -6.158 +0.00 +0.00    +0.234 C  
DOCKED: ATOM      3  O4  UNL     1       3.608  -4.018  -6.101 +0.00 -0.00    -0.274 OA 
DOCKED: ATOM      4  N3  UNL     1       5.144  -5.360  -5.056 +0.00 -0.00    -0.308 N  
DOCKED: ATOM      5  H28 UNL     1       6.033  -5.849  -5.152 +0.00 +0.00    +0.149 HD 
DOCKED: BRANCH   2   6
DOCKED: ATOM      6  C4  UNL     1       5.375  -4.957  -7.484 +0.00 +0.00    +0.160 C  
DOCKED: BRANCH   6   7
DOCKED: ATOM      7  N1  UNL     1       6.328  -6.036  -7.235 +0.00 -0.00    -0.302 N  
DOCKED: ATOM      8  C5  UNL     1       7.339  -6.362  -8.107 +0.00 +0.00    +0.234 C  
DOCKED: ATOM      9  O1  UNL     1       7.493  -5.789  -9.186 +0.00 -0.00    -0.274 OA 
DOCKED: ATOM     10  H9  UNL     1       6.157  -6.602  -6.404 +0.00 +0.00    +0.150 HD 
DOCKED: BRANCH   8  11
DOCKED: ATOM     11  C6  UNL     1       8.253  -7.510  -7.630 +0.00 +0.00    +0.165 C  
DOCKED: BRANCH  11  12
DOCKED: ATOM     12  N2  UNL     1       7.671  -8.054  -6.410 +0.00 -0.00    -0.270 N  
DOCKED: ATOM     13  C7  UNL     1       7.591  -7.295  -5.281 +0.00 +0.00    +0.401 C  
DOCKED: ATOM     14  O2  UNL     1       8.167  -6.236  -5.109 +0.00 -0.00    -0.226 OA 
DOCKED: ATOM     15  H11 UNL     1       6.925  -8.733  -6.498 +0.00 +0.00    +0.153 HD 
DOCKED: BRANCH  13  16
DOCKED: ATOM     16  O3  UNL     1       6.755  -7.898  -4.406 +0.00 -0.00    -0.445 OA 
DOCKED: BRANCH  16  17
DOCKED: ATOM     17  C8  UNL     1       7.260  -8.877  -3.460 +0.00 +0.00    +0.107 C  
DOCKED: ATOM     18  C9  UNL     1       8.059  -8.215  -2.329 +0.00 +0.00    +0.055 C  
DOCKED: ATOM     19  C10 UNL     1       8.073  -9.964  -4.173 +0.00 +0.00    +0.055 C  
DOCKED: ATOM     20  C11 UNL     1       6.002  -9.516  -2.857 +0.00 +0.00    +0.055 C  
DOCKED: ENDBRANCH  16  17
DOCKED: ENDBRANCH  13  16
DOCKED: ENDBRANCH  11  12
DOCKED: BRANCH  11  21
DOCKED: ATOM     21  C12 UNL     1       8.457  -8.609  -8.697 +0.00 +0.00    +0.012 C  
DOCKED: ATOM     22  C13 UNL     1       9.721  -8.441  -9.549 +0.00 +0.00    +0.009 C  
DOCKED: ATOM     23  C14 UNL     1       8.439 -10.003  -8.067 +0.00 +0.00    +0.009 C  
DOCKED: ENDBRANCH  11  21
DOCKED: ENDBRANCH   8  11
DOCKED: ENDBRANCH   6   7
DOCKED: BRANCH   6  24
DOCKED: ATOM     24  C3  UNL     1       4.410  -5.297  -8.635 +0.00 +0.00    +0.042 C  
DOCKED: BRANCH  24  25
DOCKED: ATOM     25  C2  UNL     1       3.551  -6.527  -8.340 +0.00 +0.00    +0.071 C  
DOCKED: BRANCH  25  27
DOCKED: ATOM     26  C1  UNL     1       4.511  -8.849  -7.195 +0.00 +0.00    +0.084 C  
DOCKED: ATOM     27  S1  UNL     1       4.409  -8.061  -8.825 +0.00 -0.00    -0.164 S  
DOCKED: ENDBRANCH  25  27
DOCKED: ENDBRANCH  24  25
DOCKED: ENDBRANCH   6  24
DOCKED: ENDBRANCH   2   6
DOCKED: ENDBRANCH   1   4
DOCKED: BRANCH   1  28
DOCKED: ATOM     28  C21 UNL     1       5.727  -4.890  -2.684 +0.00 +0.00    +0.143 C  
DOCKED: BRANCH  28  29
DOCKED: ATOM     29  O5  UNL     1       6.931  -5.596  -2.989 +0.00 -0.00    -0.389 OA 
DOCKED: ATOM     30  H40 UNL     1       6.692  -6.376  -3.521 +0.00 +0.00    +0.210 HD 
DOCKED: ENDBRANCH  28  29
DOCKED: BRANCH  28  31
DOCKED: ATOM     31  C22 UNL     1       6.024  -3.419  -2.376 +0.00 +0.00    +0.129 C  
DOCKED: BRANCH  31  32
DOCKED: ATOM     32  C23 UNL     1       7.004  -2.688  -3.277 +0.00 +0.00    +0.216 C  
DOCKED: ATOM     33  O6  UNL     1       7.446  -1.564  -3.082 +0.00 -0.00    -0.276 OA 
DOCKED: ATOM     34  N4  UNL     1       7.354  -3.434  -4.393 +0.00 -0.00    -0.304 N  
DOCKED: ATOM     35  H43 UNL     1       7.288  -4.439  -4.278 +0.00 +0.00    +0.149 HD 
DOCKED: BRANCH  34  36
DOCKED: ATOM     36  C24 UNL     1       8.448  -2.976  -5.245 +0.00 +0.00    +0.161 C  
DOCKED: BRANCH  36  37
DOCKED: ATOM     37  C25 UNL     1       9.764  -3.504  -4.639 +0.00 +0.00    +0.234 C  
DOCKED: ATOM     38  O7  UNL     1      10.860  -3.004  -4.908 +0.00 -0.00    -0.274 OA 
DOCKED: ATOM     39  N5  UNL     1       9.604  -4.539  -3.741 +0.00 -0.00    -0.310 N  
DOCKED: ATOM     40  H45 UNL     1       8.714  -5.016  -3.702 +0.00 +0.00    +0.149 HD 
DOCKED: BRANCH  39  41
DOCKED: ATOM     41  C26 UNL     1      10.745  -5.222  -3.175 +0.00 +0.00    +0.139 C  
DOCKED: BRANCH  41  42
DOCKED: ATOM     42  C27 UNL     1      11.021  -6.587  -3.764 +0.00 -0.00    -0.027 A  
DOCKED: ATOM     43  C28 UNL     1      11.293  -7.652  -2.865 +0.00 +0.00    +0.009 A  
DOCKED: ATOM     44  C29 UNL     1      11.564  -8.944  -3.329 +0.00 +0.00    +0.050 A  
DOCKED: ATOM     45  C30 UNL     1      11.556  -9.152  -4.689 +0.00 +0.00    +0.166 A  
DOCKED: ATOM     46  C31 UNL     1      11.293  -8.129  -5.570 +0.00 +0.00    +0.167 A  
DOCKED: ATOM     47  C32 UNL     1      11.032  -6.842  -5.146 +0.00 +0.00    +0.054 A  
DOCKED: ATOM     48  O8  UNL     1      11.308  -8.547  -6.863 +0.00 -0.00    -0.453 OA 
DOCKED: ATOM     49  C33 UNL     1      11.647  -9.938  -6.698 +0.00 +0.00    +0.466 C  
DOCKED: ATOM     50  O9  UNL     1      11.784 -10.334  -5.317 +0.00 -0.00    -0.453 OA 
DOCKED: ENDBRANCH  41  42
DOCKED: ENDBRANCH  39  41
DOCKED: ENDBRANCH  36  37
DOCKED: BRANCH  36  51
DOCKED: ATOM     51  C34 UNL     1       8.298  -3.414  -6.718 +0.00 +0.00    +0.012 C  
DOCKED: ATOM     52  C35 UNL     1       7.958  -2.262  -7.668 +0.00 +0.00    +0.009 C  
DOCKED: ATOM     53  C36 UNL     1       9.560  -4.132  -7.205 +0.00 +0.00    +0.009 C  
DOCKED: ENDBRANCH  36  51
DOCKED: ENDBRANCH  34  36
DOCKED: ENDBRANCH  31  32
DOCKED: ENDBRANCH  28  31
DOCKED: ENDBRANCH   1  28
DOCKED: BRANCH   1  54
DOCKED: ATOM     54  C17 UNL     1       3.655  -6.342  -3.334 +0.00 +0.00    +0.028 C  
DOCKED: BRANCH  54  55
DOCKED: ATOM     55  C18 UNL     1       3.185  -7.271  -4.476 +0.00 -0.00    -0.015 C  
DOCKED: ATOM     56  C19 UNL     1       2.959  -8.712  -4.024 +0.00 +0.00    +0.007 C  
DOCKED: ATOM     57  C20 UNL     1       1.967  -6.744  -5.232 +0.00 +0.00    +0.007 C  
DOCKED: ENDBRANCH  54  55
DOCKED: ENDBRANCH   1  54
DOCKED: TORSDOF 22
DOCKED: TER
DOCKED: ENDMDL
________________________________________________________________________________


    FINAL DOCKED STATE:
    ________________________


Run:   20 / 20
Time taken for this run:   1.805s

DOCKED: MODEL        20
DOCKED: USER    Run = 20
DOCKED: USER
DOCKED: USER    Estimated Free Energy of Binding    =  +6.56 kcal/mol  [=(1)+(2)+(3)-(4)]
DOCKED: USER
DOCKED: USER    (1) Final Intermolecular Energy     =  +0.00 kcal/mol
DOCKED: USER        vdW + Hbond + desolv Energy     =  +0.00 kcal/mol
DOCKED: USER        Electrostatic Energy            =  +0.00 kcal/mol
DOCKED: USER        Moving Ligand-Fixed Receptor    =  +0.00 kcal/mol
DOCKED: USER        Moving Ligand-Moving Receptor   =  +0.00 kcal/mol
DOCKED: USER    (2) Final Total Internal Energy     = -14.49 kcal/mol
DOCKED: USER    (3) Torsional Free Energy           =  +6.56 kcal/mol
DOCKED: USER    (4) Unbound System's Energy         = -14.49 kcal/mol
DOCKED: USER
DOCKED: USER
DOCKED: REMARK  Name = ligands/ligand_25.pdb
DOCKED: REMARK  32 active torsions:
DOCKED: REMARK  status: ('A' for Active; 'I' for Inactive)
DOCKED: REMARK    1  A    between atoms: C1_1  and  S1_2
DOCKED: REMARK    2  A    between atoms: S1_2  and  C2_3
DOCKED: REMARK    3  A    between atoms: C2_3  and  C3_4
DOCKED: REMARK    4  A    between atoms: C3_4  and  C4_5
DOCKED: REMARK    5  A    between atoms: C4_5  and  N1_6
DOCKED: REMARK    6  A    between atoms: C4_5  and  C15_21
DOCKED: REMARK    7  A    between atoms: C5_7  and  C6_9
DOCKED: REMARK    8  A    between atoms: C6_9  and  N2_10
DOCKED: REMARK    9  A    between atoms: C6_9  and  C12_18
DOCKED: REMARK   10  A    between atoms: C7_11  and  O3_13
DOCKED: REMARK   11  A    between atoms: O3_13  and  C8_14
DOCKED: REMARK   12  A    between atoms: C8_14  and  C9_15
DOCKED: REMARK   13  A    between atoms: C8_14  and  C10_16
DOCKED: REMARK   14  A    between atoms: C8_14  and  C11_17
DOCKED: REMARK   15  A    between atoms: C12_18  and  C13_19
DOCKED: REMARK   16  A    between atoms: C12_18  and  C14_20
DOCKED: REMARK   17  A    between atoms: N3_23  and  C16_24
DOCKED: REMARK   18  A    between atoms: C16_24  and  C17_25
DOCKED: REMARK   19  A    between atoms: C16_24  and  C21_29
DOCKED: REMARK   20  A    between atoms: C17_25  and  C18_26
DOCKED: REMARK   21  A    between atoms: C18_26  and  C19_27
DOCKED: REMARK   22  A    between atoms: C18_26  and  C20_28
DOCKED: REMARK   23  A    between atoms: C21_29  and  O5_30
DOCKED: REMARK   24  A    between atoms: C21_29  and  C22_31
DOCKED: REMARK   25  A    between atoms: C22_31  and  C23_32
DOCKED: REMARK   26  A    between atoms: N4_34  and  C24_35
DOCKED: REMARK   27  A    between atoms: C24_35  and  C25_36
DOCKED: REMARK   28  A    between atoms: C24_35  and  C34_49
DOCKED: REMARK   29  A    between atoms: N5_38  and  C26_39
DOCKED: REMARK   30  A    between atoms: C26_39  and  C27_40
DOCKED: REMARK   31  A    between atoms: C34_49  and  C35_50
DOCKED: REMARK   32  A    between atoms: C34_49  and  C36_51
DOCKED: REMARK                            x       y       z     vdW  Elec       q    Type
DOCKED: REMARK                         _______ _______ _______ _____ _____    ______ ____
DOCKED: USER                              x       y       z     vdW  Elec       q    Type
DOCKED: USER                           _______ _______ _______ _____ _____    ______ ____
DOCKED: ROOT
DOCKED: ATOM      1  C16 UNL     1      12.816  -2.552   1.974 +0.00 +0.00    +0.102 C  
DOCKED: ENDROOT
DOCKED: BRANCH   1   4
DOCKED: ATOM      2  C15 UNL     1      12.401  -0.920   3.802 +0.00 +0.00    +0.234 C  
DOCKED: ATOM      3  O4  UNL     1      13.194  -1.474   4.566 +0.00 -0.00    -0.274 OA 
DOCKED: ATOM      4  N3  UNL     1      12.130  -1.393   2.538 +0.00 -0.00    -0.308 N  
DOCKED: ATOM      5  H28 UNL     1      11.542  -0.834   1.921 +0.00 +0.00    +0.149 HD 
DOCKED: BRANCH   2   6
DOCKED: ATOM      6  C4  UNL     1      11.646   0.368   4.204 +0.00 +0.00    +0.160 C  
DOCKED: BRANCH   6   7
DOCKED: ATOM      7  N1  UNL     1      11.568   1.196   3.003 +0.00 -0.00    -0.302 N  
DOCKED: ATOM      8  C5  UNL     1      12.668   1.537   2.253 +0.00 +0.00    +0.234 C  
DOCKED: ATOM      9  O1  UNL     1      13.811   1.200   2.562 +0.00 -0.00    -0.274 OA 
DOCKED: ATOM     10  H9  UNL     1      10.652   1.585   2.785 +0.00 +0.00    +0.150 HD 
DOCKED: BRANCH   8  11
DOCKED: ATOM     11  C6  UNL     1      12.355   2.388   1.004 +0.00 +0.00    +0.165 C  
DOCKED: BRANCH  11  12
DOCKED: ATOM     12  N2  UNL     1      11.993   1.472  -0.069 +0.00 -0.00    -0.270 N  
DOCKED: ATOM     13  C7  UNL     1      10.849   0.735   0.005 +0.00 +0.00    +0.401 C  
DOCKED: ATOM     14  O2  UNL     1      10.170   0.596   1.006 +0.00 -0.00    -0.226 OA 
DOCKED: ATOM     15  H11 UNL     1      12.262   1.712  -1.015 +0.00 +0.00    +0.153 HD 
DOCKED: BRANCH  13  16
DOCKED: ATOM     16  O3  UNL     1      10.584   0.213  -1.214 +0.00 -0.00    -0.445 OA 
DOCKED: BRANCH  16  17
DOCKED: ATOM     17  C8  UNL     1       9.378   0.588  -1.930 +0.00 +0.00    +0.107 C  
DOCKED: ATOM     18  C9  UNL     1       9.222   2.112  -2.023 +0.00 +0.00    +0.055 C  
DOCKED: ATOM     19  C10 UNL     1       8.141  -0.076  -1.312 +0.00 +0.00    +0.055 C  
DOCKED: ATOM     20  C11 UNL     1       9.581   0.033  -3.346 +0.00 +0.00    +0.055 C  
DOCKED: ENDBRANCH  16  17
DOCKED: ENDBRANCH  13  16
DOCKED: ENDBRANCH  11  12
DOCKED: BRANCH  11  21
DOCKED: ATOM     21  C12 UNL     1      11.250   3.440   1.246 +0.00 +0.00    +0.012 C  
DOCKED: ATOM     22  C13 UNL     1      11.492   4.352   2.454 +0.00 +0.00    +0.009 C  
DOCKED: ATOM     23  C14 UNL     1      11.013   4.291  -0.005 +0.00 +0.00    +0.009 C  
DOCKED: ENDBRANCH  11  21
DOCKED: ENDBRANCH   8  11
DOCKED: ENDBRANCH   6   7
DOCKED: BRANCH   6  24
DOCKED: ATOM     24  C3  UNL     1      10.252   0.048   4.773 +0.00 +0.00    +0.042 C  
DOCKED: BRANCH  24  25
DOCKED: ATOM     25  C2  UNL     1       9.232  -0.287   3.684 +0.00 +0.00    +0.071 C  
DOCKED: BRANCH  25  27
DOCKED: ATOM     26  C1  UNL     1       8.807  -2.084   1.630 +0.00 +0.00    +0.084 C  
DOCKED: ATOM     27  S1  UNL     1       9.121  -2.087   3.417 +0.00 -0.00    -0.164 S  
DOCKED: ENDBRANCH  25  27
DOCKED: ENDBRANCH  24  25
DOCKED: ENDBRANCH   6  24
DOCKED: ENDBRANCH   2   6
DOCKED: ENDBRANCH   1   4
DOCKED: BRANCH   1  28
DOCKED: ATOM     28  C21 UNL     1      14.344  -2.278   1.831 +0.00 +0.00    +0.143 C  
DOCKED: BRANCH  28  29
DOCKED: ATOM     29  O5  UNL     1      14.622  -0.908   1.540 +0.00 -0.00    -0.389 OA 
DOCKED: ATOM     30  H40 UNL     1      14.128  -0.362   2.177 +0.00 +0.00    +0.210 HD 
DOCKED: ENDBRANCH  28  29
DOCKED: BRANCH  28  31
DOCKED: ATOM     31  C22 UNL     1      15.253  -2.789   2.954 +0.00 +0.00    +0.129 C  
DOCKED: BRANCH  31  32
DOCKED: ATOM     32  C23 UNL     1      16.294  -1.835   3.514 +0.00 +0.00    +0.216 C  
DOCKED: ATOM     33  O6  UNL     1      17.501  -2.035   3.538 +0.00 -0.00    -0.276 OA 
DOCKED: ATOM     34  N4  UNL     1      15.728  -0.678   4.032 +0.00 -0.00    -0.304 N  
DOCKED: ATOM     35  H43 UNL     1      14.838  -0.414   3.625 +0.00 +0.00    +0.149 HD 
DOCKED: BRANCH  34  36
DOCKED: ATOM     36  C24 UNL     1      16.594   0.435   4.408 +0.00 +0.00    +0.161 C  
DOCKED: BRANCH  36  37
DOCKED: ATOM     37  C25 UNL     1      17.292   0.937   3.128 +0.00 +0.00    +0.234 C  
DOCKED: ATOM     38  O7  UNL     1      18.373   1.532   3.157 +0.00 -0.00    -0.274 OA 
DOCKED: ATOM     39  N5  UNL     1      16.634   0.621   1.958 +0.00 -0.00    -0.310 N  
DOCKED: ATOM     40  H45 UNL     1      15.677   0.298   2.009 +0.00 +0.00    +0.149 HD 
DOCKED: BRANCH  39  41
DOCKED: ATOM     41  C26 UNL     1      17.094   1.120   0.681 +0.00 +0.00    +0.139 C  
DOCKED: BRANCH  41  42
DOCKED: ATOM     42  C27 UNL     1      15.999   1.613  -0.237 +0.00 -0.00    -0.027 A  
DOCKED: ATOM     43  C28 UNL     1      15.786   3.015  -0.317 +0.00 +0.00    +0.009 A  
DOCKED: ATOM     44  C29 UNL     1      14.789   3.553  -1.139 +0.00 +0.00    +0.050 A  
DOCKED: ATOM     45  C30 UNL     1      14.020   2.677  -1.871 +0.00 +0.00    +0.166 A  
DOCKED: ATOM     46  C31 UNL     1      14.217   1.319  -1.804 +0.00 +0.00    +0.167 A  
DOCKED: ATOM     47  C32 UNL     1      15.185   0.755  -0.996 +0.00 +0.00    +0.054 A  
DOCKED: ATOM     48  O8  UNL     1      13.374   0.634  -2.622 +0.00 -0.00    -0.453 OA 
DOCKED: ATOM     49  C33 UNL     1      12.600   1.713  -3.181 +0.00 +0.00    +0.466 C  
DOCKED: ATOM     50  O9  UNL     1      13.020   3.016  -2.727 +0.00 -0.00    -0.453 OA 
DOCKED: ENDBRANCH  41  42
DOCKED: ENDBRANCH  39  41
DOCKED: ENDBRANCH  36  37
DOCKED: BRANCH  36  51
DOCKED: ATOM     51  C34 UNL     1      15.841   1.581   5.118 +0.00 +0.00    +0.012 C  
DOCKED: ATOM     52  C35 UNL     1      15.580   2.792   4.219 +0.00 +0.00    +0.009 C  
DOCKED: ATOM     53  C36 UNL     1      14.521   1.081   5.712 +0.00 +0.00    +0.009 C  
DOCKED: ENDBRANCH  36  51
DOCKED: ENDBRANCH  34  36
DOCKED: ENDBRANCH  31  32
DOCKED: ENDBRANCH  28  31
DOCKED: ENDBRANCH   1  28
DOCKED: BRANCH   1  54
DOCKED: ATOM     54  C17 UNL     1      12.123  -3.052   0.694 +0.00 +0.00    +0.028 C  
DOCKED: BRANCH  54  55
DOCKED: ATOM     55  C18 UNL     1      12.330  -2.214  -0.588 +0.00 -0.00    -0.015 C  
DOCKED: ATOM     56  C19 UNL     1      13.746  -2.319  -1.152 +0.00 +0.00    +0.007 C  
DOCKED: ATOM     57  C20 UNL     1      11.293  -2.490  -1.675 +0.00 +0.00    +0.007 C  
DOCKED: ENDBRANCH  54  55
DOCKED: ENDBRANCH   1  54
DOCKED: TORSDOF 22
DOCKED: TER
DOCKED: ENDMDL
________________________________________________________________________________


    CLUSTERING HISTOGRAM
    ____________________


________________________________________________________________________________
     |           |     |           |     |
Clus | Lowest    | Run | Mean      | Num | Histogram
-ter | Binding   |     | Binding   | in  |
Rank | Energy    |     | Energy    | Clus|    5    10   15   20   25   30   35
_____|___________|_____|___________|_____|____:____|____:____|____:____|____:___
   1 |     +6.56 |   1 |     +6.56 |   1 |#
   2 |     +6.56 |   2 |     +6.56 |   1 |#
   3 |     +6.56 |   3 |     +6.56 |   1 |#
   4 |     +6.56 |   4 |     +6.56 |   1 |#
   5 |     +6.56 |   5 |     +6.56 |   1 |#
   6 |     +6.56 |   6 |     +6.56 |   1 |#
   7 |     +6.56 |   7 |     +6.56 |   1 |#
   8 |     +6.56 |   8 |     +6.56 |   1 |#
   9 |     +6.56 |   9 |     +6.56 |   1 |#
  10 |     +6.56 |  10 |     +6.56 |   1 |#
  11 |     +6.56 |  11 |     +6.56 |   1 |#
  12 |     +6.56 |  12 |     +6.56 |   1 |#
  13 |     +6.56 |  13 |     +6.56 |   1 |#
  14 |     +6.56 |  14 |     +6.56 |   1 |#
  15 |     +6.56 |  15 |     +6.56 |   1 |#
  16 |     +6.56 |  16 |     +6.56 |   1 |#
  17 |     +6.56 |  17 |     +6.56 |   1 |#
  18 |     +6.56 |  18 |     +6.56 |   1 |#
  19 |     +6.56 |  19 |     +6.56 |   1 |#
  20 |     +6.56 |  20 |     +6.56 |   1 |#
_____|___________|_____|___________|_____|______________________________________


    RMSD TABLE
    __________


_______________________________________________________________________
     |      |      |           |         |                 |
Rank | Sub- | Run  | Binding   | Cluster | Reference       | Grep
     | Rank |      | Energy    | RMSD    | RMSD            | Pattern
_____|______|______|___________|_________|_________________|___________
   1      1      1       +6.56      0.00     12.24           RANKING
   2      1      2       +6.56      0.00     14.30           RANKING
   3      1      3       +6.56      0.00     10.48           RANKING
   4      1      4       +6.56      0.00     12.35           RANKING
   5      1      5       +6.56      0.00      9.56           RANKING
   6      1      6       +6.56      0.00      4.49           RANKING
   7      1      7       +6.56      0.00      6.81           RANKING
   8      1      8       +6.56      0.00      8.66           RANKING
   9      1      9       +6.56      0.00      6.16           RANKING
  10      1     10       +6.56      0.00      8.90           RANKING
  11      1     11       +6.56      0.00      7.87           RANKING
  12      1     12       +6.56      0.00      9.94           RANKING
  13      1     13       +6.56      0.00      7.25           RANKING
  14      1     14       +6.56      0.00      6.52           RANKING
  15      1     15       +6.56      0.00      7.48           RANKING
  16      1     16       +6.56      0.00     11.49           RANKING
  17      1     17       +6.56      0.00      7.42           RANKING
  18      1     18       +6.56      0.00     11.25           RANKING
  19      1     19       +6.56      0.00      8.95           RANKING
  20      1     20       +6.56      0.00     11.17           RANKING

Run time 36.476 sec
Idle time 0.295 sec
