REMARK  Name = ligands/ligand_29.pdb
REMARK  30 active torsions:
REMARK  status: ('A' for Active; 'I' for Inactive)
REMARK    1  A    between atoms: C1_1  and  C2_2
REMARK    2  A    between atoms: C2_2  and  C3_3
REMARK    3  A    between atoms: C2_2  and  C4_4
REMARK    4  A    between atoms: C4_4  and  C5_5
REMARK    5  A    between atoms: C5_5  and  N1_6
REMARK    6  A    between atoms: C5_5  and  C14_16
REMARK    7  A    between atoms: C6_7  and  C7_9
REMARK    8  A    between atoms: C7_9  and  C8_10
REMARK    9  A    between atoms: C14_16  and  O2_17
REMARK   10  A    between atoms: C14_16  and  C15_18
REMARK   11  A    between atoms: C15_18  and  C16_19
REMARK   12  A    between atoms: N2_21  and  C17_22
REMARK   13  A    between atoms: C17_22  and  C18_23
REMARK   14  A    between atoms: C17_22  and  C36_51
REMARK   15  A    between atoms: N3_25  and  C19_26
REMARK   16  A    between atoms: C19_26  and  C20_27
REMARK   17  A    between atoms: C19_26  and  C21_28
REMARK   18  A    between atoms: N4_30  and  C22_31
REMARK   19  A    between atoms: C22_31  and  C23_32
REMARK   20  A    between atoms: C22_31  and  C26_37
REMARK   21  A    between atoms: C23_32  and  C24_33
REMARK   22  A    between atoms: C24_33  and  C25_34
REMARK   23  A    between atoms: C25_34  and  O7_36
REMARK   24  A    between atoms: N5_39  and  C27_40
REMARK   25  A    between atoms: C27_40  and  C28_41
REMARK   26  A    between atoms: C27_40  and  C35_48
REMARK   27  A    between atoms: C28_41  and  C29_42
REMARK   28  A    between atoms: C35_48  and  O10_50
REMARK   29  A    between atoms: C36_51  and  C37_52
REMARK   30  A    between atoms: C36_51  and  C38_53
REMARK                            x       y       z     vdW  Elec       q    Type
REMARK                         _______ _______ _______ _____ _____    ______ ____
ROOT
ATOM      1  C18 UNL     1      -1.173  -3.262   0.883  0.00  0.00    +0.234 C 
ATOM      2  O4  UNL     1      -0.340  -4.076   0.488  0.00  0.00    -0.274 OA
ATOM      3  N3  UNL     1      -1.988  -2.555   0.033  0.00  0.00    -0.303 N 
ATOM      4  H25 UNL     1      -2.616  -1.843   0.391  0.00  0.00    +0.149 HD
ENDROOT
BRANCH   3   5
ATOM      5  C19 UNL     1      -1.857  -2.620  -1.418  0.00  0.00    +0.156 C 
ATOM      6  C20 UNL     1      -0.581  -1.914  -1.886  0.00  0.00    +0.038 C 
BRANCH   5   7
ATOM      7  C21 UNL     1      -3.116  -1.949  -2.017  0.00  0.00    +0.234 C 
ATOM      8  O5  UNL     1      -3.965  -1.403  -1.312  0.00  0.00    -0.274 OA
ATOM      9  N4  UNL     1      -3.214  -1.997  -3.399  0.00  0.00    -0.302 N 
ATOM     10  H30 UNL     1      -2.341  -2.121  -3.900  0.00  0.00    +0.150 HD
BRANCH   9  11
ATOM     11  C22 UNL     1      -4.164  -1.106  -4.062  0.00  0.00    +0.159 C 
BRANCH  11  12
ATOM     12  C26 UNL     1      -3.493   0.279  -4.164  0.00  0.00    +0.234 C 
ATOM     13  O8  UNL     1      -2.275   0.413  -4.223  0.00  0.00    -0.274 OA
ATOM     14  N5  UNL     1      -4.372   1.338  -4.223  0.00  0.00    -0.301 N 
ATOM     15  H37 UNL     1      -5.318   1.152  -4.533  0.00  0.00    +0.150 HD
BRANCH  14  16
ATOM     16  C27 UNL     1      -3.878   2.711  -4.403  0.00  0.00    +0.186 C 
BRANCH  16  17
ATOM     17  C35 UNL     1      -3.763   2.949  -5.906  0.00  0.00    +0.326 C 
ATOM     18  O9  UNL     1      -4.573   2.582  -6.749  0.00  0.00    -0.249 OA
BRANCH  17  19
ATOM     19  O10 UNL     1      -2.657   3.625  -6.261  0.00  0.00    -0.479 OA
ATOM     20  H46 UNL     1      -2.701   3.696  -7.238  0.00  0.00    +0.295 HD
ENDBRANCH  17  19
ENDBRANCH  16  17
BRANCH  16  21
ATOM     21  C28 UNL     1      -4.873   3.702  -3.787  0.00  0.00    +0.069 C 
BRANCH  21  22
ATOM     22  C29 UNL     1      -4.348   5.112  -3.662  0.00  0.00    -0.045 A 
ATOM     23  C30 UNL     1      -4.833   6.129  -4.498  0.00  0.00    +0.004 A 
ATOM     24  C31 UNL     1      -4.346   7.433  -4.382  0.00  0.00    +0.000 A 
ATOM     25  C32 UNL     1      -3.372   7.733  -3.430  0.00  0.00    +0.000 A 
ATOM     26  C33 UNL     1      -2.886   6.733  -2.592  0.00  0.00    +0.000 A 
ATOM     27  C34 UNL     1      -3.370   5.428  -2.707  0.00  0.00    +0.004 A 
ENDBRANCH  21  22
ENDBRANCH  16  21
ENDBRANCH  14  16
ENDBRANCH  11  12
BRANCH  11  28
ATOM     28  C23 UNL     1      -4.525  -1.592  -5.469  0.00  0.00    +0.043 C 
BRANCH  28  29
ATOM     29  C24 UNL     1      -5.420  -2.829  -5.435  0.00  0.00    +0.123 C 
BRANCH  29  30
ATOM     30  C25 UNL     1      -5.833  -3.232  -6.825  0.00  0.00    +0.305 C 
ATOM     31  O6  UNL     1      -5.483  -2.717  -7.875  0.00  0.00    -0.251 OA
BRANCH  30  32
ATOM     32  O7  UNL     1      -6.674  -4.278  -6.816  0.00  0.00    -0.481 OA
ATOM     33  H36 UNL     1      -6.862  -4.434  -7.765  0.00  0.00    +0.295 HD
ENDBRANCH  30  32
ENDBRANCH  29  30
ENDBRANCH  28  29
ENDBRANCH  11  28
ENDBRANCH   9  11
ENDBRANCH   5   7
ENDBRANCH   3   5
BRANCH   1  34
ATOM     34  C17 UNL     1      -1.429  -3.006   2.385  0.00  0.00    +0.161 C 
BRANCH  34  37
ATOM     35  C16 UNL     1       0.531  -2.108   3.572  0.00  0.00    +0.216 C 
ATOM     36  O3  UNL     1       0.063  -0.973   3.627  0.00  0.00    -0.276 OA
ATOM     37  N2  UNL     1      -0.171  -3.197   3.100  0.00  0.00    -0.304 N 
ATOM     38  H23 UNL     1       0.409  -3.957   2.746  0.00  0.00    +0.149 HD
BRANCH  35  39
ATOM     39  C15 UNL     1       1.963  -2.404   3.960  0.00  0.00    +0.129 C 
BRANCH  39  40
ATOM     40  C14 UNL     1       2.838  -2.286   2.708  0.00  0.00    +0.143 C 
BRANCH  40  41
ATOM     41  O2  UNL     1       2.650  -3.481   1.941  0.00  0.00    -0.389 OA
ATOM     42  H20 UNL     1       2.848  -3.258   1.013  0.00  0.00    +0.210 HD
ENDBRANCH  40  41
BRANCH  40  43
ATOM     43  C5  UNL     1       4.346  -2.053   3.015  0.00  0.00    +0.102 C 
BRANCH  43  44
ATOM     44  N1  UNL     1       4.540  -0.786   3.729  0.00  0.00    -0.310 N 
ATOM     45  C6  UNL     1       4.449   0.442   3.090  0.00  0.00    +0.218 C 
ATOM     46  O1  UNL     1       4.256   0.544   1.881  0.00  0.00    -0.275 OA
ATOM     47  H11 UNL     1       4.495  -0.795   4.740  0.00  0.00    +0.149 HD
BRANCH  45  48
ATOM     48  C7  UNL     1       4.570   1.613   4.053  0.00  0.00    +0.130 C 
BRANCH  48  49
ATOM     49  C8  UNL     1       4.937   2.932   3.417  0.00  0.00    -0.039 A 
ATOM     50  C9  UNL     1       6.277   3.342   3.328  0.00  0.00    +0.004 A 
ATOM     51  C10 UNL     1       6.599   4.572   2.747  0.00  0.00    +0.000 A 
ATOM     52  C11 UNL     1       5.592   5.395   2.240  0.00  0.00    +0.000 A 
ATOM     53  C12 UNL     1       4.261   4.988   2.317  0.00  0.00    +0.000 A 
ATOM     54  C13 UNL     1       3.932   3.763   2.900  0.00  0.00    +0.004 A 
ENDBRANCH  48  49
ENDBRANCH  45  48
ENDBRANCH  43  44
BRANCH  43  55
ATOM     55  C4  UNL     1       5.064  -3.182   3.798  0.00  0.00    +0.028 C 
BRANCH  55  57
ATOM     56  C1  UNL     1       4.608  -5.660   3.564  0.00  0.00    +0.007 C 
ATOM     57  C2  UNL     1       5.328  -4.451   2.958  0.00  0.00    -0.015 C 
ATOM     58  C3  UNL     1       6.836  -4.749   2.859  0.00  0.00    +0.007 C 
ENDBRANCH  55  57
ENDBRANCH  43  55
ENDBRANCH  40  43
ENDBRANCH  39  40
ENDBRANCH  35  39
ENDBRANCH  34  37
BRANCH  34  59
ATOM     59  C36 UNL     1      -2.569  -3.901   2.908  0.00  0.00    +0.012 C 
ATOM     60  C37 UNL     1      -3.042  -3.415   4.282  0.00  0.00    +0.009 C 
ATOM     61  C38 UNL     1      -2.191  -5.386   2.981  0.00  0.00    +0.009 C 
ENDBRANCH  34  59
ENDBRANCH   1  34
TORSDOF 25
