REMARK  Name = ligands/ligand_10.pdb
REMARK  43 active torsions:
REMARK  status: ('A' for Active; 'I' for Inactive)
REMARK    1  A    between atoms: C1_1  and  C2_2
REMARK    2  A    between atoms: C2_2  and  C3_3
REMARK    3  A    between atoms: C2_2  and  C4_4
REMARK    4  A    between atoms: C4_4  and  C5_5
REMARK    5  A    between atoms: C5_5  and  N1_6
REMARK    6  A    between atoms: C5_5  and  C20_31
REMARK    7  A    between atoms: C6_7  and  C7_9
REMARK    8  A    between atoms: C7_9  and  C8_10
REMARK    9  A    between atoms: C7_9  and  N3_14
REMARK   10  A    between atoms: C8_10  and  C9_11
REMARK   11  A    between atoms: C10_15  and  C11_17
REMARK   12  A    between atoms: C11_17  and  N4_18
REMARK   13  A    between atoms: C11_17  and  C17_28
REMARK   14  A    between atoms: C12_19  and  C13_21
REMARK   15  A    between atoms: C13_21  and  N5_22
REMARK   16  A    between atoms: C13_21  and  C14_23
REMARK   17  A    between atoms: C14_23  and  C15_24
REMARK   18  A    between atoms: C15_24  and  C16_25
REMARK   19  A    between atoms: C16_25  and  O6_27
REMARK   20  A    between atoms: C17_28  and  C18_29
REMARK   21  A    between atoms: C17_28  and  C19_30
REMARK   22  A    between atoms: C20_31  and  O7_32
REMARK   23  A    between atoms: C20_31  and  C21_33
REMARK   24  A    between atoms: C21_33  and  C22_34
REMARK   25  A    between atoms: N6_36  and  C23_37
REMARK   26  A    between atoms: C23_37  and  C24_38
REMARK   27  A    between atoms: C23_37  and  C42_66
REMARK   28  A    between atoms: N7_40  and  C25_41
REMARK   29  A    between atoms: C25_41  and  C26_42
REMARK   30  A    between atoms: C25_41  and  C27_43
REMARK   31  A    between atoms: N8_45  and  C28_46
REMARK   32  A    between atoms: C28_46  and  C29_47
REMARK   33  A    between atoms: C28_46  and  C32_52
REMARK   34  A    between atoms: C29_47  and  C30_48
REMARK   35  A    between atoms: C30_48  and  C31_49
REMARK   36  A    between atoms: C31_49  and  O12_51
REMARK   37  A    between atoms: N9_54  and  C33_55
REMARK   38  A    between atoms: C33_55  and  C34_56
REMARK   39  A    between atoms: C33_55  and  C41_63
REMARK   40  A    between atoms: C34_56  and  C35_57
REMARK   41  A    between atoms: C41_63  and  O15_65
REMARK   42  A    between atoms: C42_66  and  C43_67
REMARK   43  A    between atoms: C42_66  and  C44_68
REMARK                            x       y       z     vdW  Elec       q    Type
REMARK                         _______ _______ _______ _____ _____    ______ ____
ROOT
ATOM      1  C21 UNL     1       4.693   1.050   0.788  0.00  0.00    +0.129 C 
ENDROOT
BRANCH   1   2
ATOM      2  C22 UNL     1       4.037   0.237   1.887  0.00  0.00    +0.216 C 
ATOM      3  O8  UNL     1       4.059  -0.991   1.915  0.00  0.00    -0.276 OA
ATOM      4  N6  UNL     1       3.466   1.008   2.875  0.00  0.00    -0.304 N 
ATOM      5  H39 UNL     1       3.230   1.962   2.620  0.00  0.00    +0.149 HD
BRANCH   4   6
ATOM      6  C23 UNL     1       2.557   0.404   3.853  0.00  0.00    +0.161 C 
BRANCH   6   7
ATOM      7  C24 UNL     1       1.143   0.577   3.249  0.00  0.00    +0.234 C 
ATOM      8  O9  UNL     1       0.843   1.541   2.543  0.00  0.00    -0.274 OA
ATOM      9  N7  UNL     1       0.248  -0.406   3.586  0.00  0.00    -0.303 N 
ATOM     10  H41 UNL     1       0.532  -1.182   4.178  0.00  0.00    +0.149 HD
BRANCH   9  11
ATOM     11  C25 UNL     1      -1.130  -0.423   3.114  0.00  0.00    +0.156 C 
ATOM     12  C26 UNL     1      -1.212  -0.988   1.702  0.00  0.00    +0.038 C 
BRANCH  11  13
ATOM     13  C27 UNL     1      -1.945  -1.279   4.106  0.00  0.00    +0.234 C 
ATOM     14  O10 UNL     1      -1.405  -1.938   4.998  0.00  0.00    -0.274 OA
ATOM     15  N8  UNL     1      -3.315  -1.230   3.934  0.00  0.00    -0.302 N 
ATOM     16  H46 UNL     1      -3.654  -0.929   3.026  0.00  0.00    +0.150 HD
BRANCH  15  17
ATOM     17  C28 UNL     1      -4.182  -2.174   4.631  0.00  0.00    +0.159 C 
BRANCH  17  18
ATOM     18  C32 UNL     1      -4.617  -3.268   3.631  0.00  0.00    +0.234 C 
ATOM     19  O13 UNL     1      -4.627  -3.072   2.417  0.00  0.00    -0.274 OA
ATOM     20  N9  UNL     1      -5.040  -4.438   4.214  0.00  0.00    -0.301 N 
ATOM     21  H53 UNL     1      -5.154  -4.471   5.219  0.00  0.00    +0.150 HD
BRANCH  20  22
ATOM     22  C33 UNL     1      -5.756  -5.464   3.445  0.00  0.00    +0.186 C 
BRANCH  22  23
ATOM     23  C41 UNL     1      -7.202  -5.409   3.923  0.00  0.00    +0.326 C 
ATOM     24  O14 UNL     1      -7.557  -5.233   5.079  0.00  0.00    -0.249 OA
BRANCH  23  25
ATOM     25  O15 UNL     1      -8.104  -5.619   2.945  0.00  0.00    -0.479 OA
ATOM     26  H62 UNL     1      -8.967  -5.486   3.389  0.00  0.00    +0.295 HD
ENDBRANCH  23  25
ENDBRANCH  22  23
BRANCH  22  27
ATOM     27  C34 UNL     1      -5.215  -6.874   3.709  0.00  0.00    +0.069 C 
BRANCH  27  28
ATOM     28  C35 UNL     1      -3.793  -7.071   3.240  0.00  0.00    -0.045 A 
ATOM     29  C36 UNL     1      -3.497  -7.150   1.872  0.00  0.00    +0.004 A 
ATOM     30  C37 UNL     1      -2.180  -7.330   1.443  0.00  0.00    +0.000 A 
ATOM     31  C38 UNL     1      -1.149  -7.436   2.374  0.00  0.00    +0.000 A 
ATOM     32  C39 UNL     1      -1.431  -7.358   3.736  0.00  0.00    +0.000 A 
ATOM     33  C40 UNL     1      -2.747  -7.178   4.168  0.00  0.00    +0.004 A 
ENDBRANCH  27  28
ENDBRANCH  22  27
ENDBRANCH  20  22
ENDBRANCH  17  18
BRANCH  17  34
ATOM     34  C29 UNL     1      -5.384  -1.483   5.301  0.00  0.00    +0.043 C 
BRANCH  34  35
ATOM     35  C30 UNL     1      -6.156  -0.481   4.440  0.00  0.00    +0.123 C 
BRANCH  35  36
ATOM     36  C31 UNL     1      -6.829  -1.137   3.270  0.00  0.00    +0.305 C 
ATOM     37  O11 UNL     1      -7.690  -1.997   3.329  0.00  0.00    -0.251 OA
BRANCH  36  38
ATOM     38  O12 UNL     1      -6.327  -0.716   2.095  0.00  0.00    -0.481 OA
ATOM     39  H52 UNL     1      -6.707  -1.331   1.433  0.00  0.00    +0.295 HD
ENDBRANCH  36  38
ENDBRANCH  35  36
ENDBRANCH  34  35
ENDBRANCH  17  34
ENDBRANCH  15  17
ENDBRANCH  11  13
ENDBRANCH   9  11
ENDBRANCH   6   7
BRANCH   6  40
ATOM     40  C42 UNL     1       2.698   1.102   5.225  0.00  0.00    +0.012 C 
ATOM     41  C43 UNL     1       4.116   0.913   5.782  0.00  0.00    +0.009 C 
ATOM     42  C44 UNL     1       1.681   0.608   6.253  0.00  0.00    +0.009 C 
ENDBRANCH   6  40
ENDBRANCH   4   6
ENDBRANCH   1   2
BRANCH   1  43
ATOM     43  C20 UNL     1       4.844   0.207  -0.478  0.00  0.00    +0.143 C 
BRANCH  43  44
ATOM     44  O7  UNL     1       5.858  -0.778  -0.287  0.00  0.00    -0.389 OA
ATOM     45  H36 UNL     1       5.522  -1.375   0.414  0.00  0.00    +0.210 HD
ENDBRANCH  43  44
BRANCH  43  46
ATOM     46  C5  UNL     1       5.142   1.055  -1.749  0.00  0.00    +0.102 C 
BRANCH  46  47
ATOM     47  N1  UNL     1       4.008   1.939  -2.112  0.00  0.00    -0.308 N 
ATOM     48  C6  UNL     1       2.718   1.522  -2.355  0.00  0.00    +0.234 C 
ATOM     49  O1  UNL     1       2.324   0.385  -2.116  0.00  0.00    -0.274 OA
ATOM     50  H11 UNL     1       4.254   2.890  -2.396  0.00  0.00    +0.149 HD
BRANCH  48  51
ATOM     51  C7  UNL     1       1.774   2.600  -2.960  0.00  0.00    +0.168 C 
BRANCH  51  52
ATOM     52  N3  UNL     1       0.434   2.012  -3.068  0.00  0.00    -0.302 N 
ATOM     53  C10 UNL     1      -0.062   1.578  -4.279  0.00  0.00    +0.234 C 
ATOM     54  O3  UNL     1       0.503   1.817  -5.350  0.00  0.00    -0.274 OA
ATOM     55  H17 UNL     1       0.099   1.538  -2.236  0.00  0.00    +0.150 HD
BRANCH  53  56
ATOM     56  C11 UNL     1      -1.394   0.787  -4.207  0.00  0.00    +0.161 C 
BRANCH  56  57
ATOM     57  N4  UNL     1      -2.031   0.862  -5.528  0.00  0.00    -0.302 N 
ATOM     58  C12 UNL     1      -2.886   1.895  -5.842  0.00  0.00    +0.230 C 
ATOM     59  O4  UNL     1      -3.250   2.747  -5.027  0.00  0.00    -0.274 OA
ATOM     60  H19 UNL     1      -1.507   0.442  -6.291  0.00  0.00    +0.150 HD
BRANCH  58  61
ATOM     61  C13 UNL     1      -3.426   1.876  -7.293  0.00  0.00    +0.138 C 
BRANCH  61  62
ATOM     62  N5  UNL     1      -4.831   2.349  -7.270  0.00  0.00    -0.320 NA
ATOM     63  H21 UNL     1      -4.835   3.251  -6.784  0.00  0.00    +0.119 HD
ATOM     64  H22 UNL     1      -5.362   1.735  -6.649  0.00  0.00    +0.119 HD
ENDBRANCH  61  62
BRANCH  61  65
ATOM     65  C14 UNL     1      -2.619   2.795  -8.221  0.00  0.00    +0.039 C 
BRANCH  65  66
ATOM     66  C15 UNL     1      -1.223   2.280  -8.567  0.00  0.00    +0.122 C 
BRANCH  66  67
ATOM     67  C16 UNL     1      -1.234   0.903  -9.167  0.00  0.00    +0.305 C 
ATOM     68  O5  UNL     1      -0.566  -0.045  -8.781  0.00  0.00    -0.251 OA
BRANCH  67  69
ATOM     69  O6  UNL     1      -2.066   0.778 -10.219  0.00  0.00    -0.481 OA
ATOM     70  H27 UNL     1      -1.950  -0.144 -10.526  0.00  0.00    +0.295 HD
ENDBRANCH  67  69
ENDBRANCH  66  67
ENDBRANCH  65  66
ENDBRANCH  61  65
ENDBRANCH  58  61
ENDBRANCH  56  57
BRANCH  56  71
ATOM     71  C17 UNL     1      -1.251  -0.693  -3.786  0.00  0.00    +0.012 C 
ATOM     72  C18 UNL     1      -1.133  -0.865  -2.269  0.00  0.00    +0.009 C 
ATOM     73  C19 UNL     1      -0.109  -1.426  -4.491  0.00  0.00    +0.009 C 
ENDBRANCH  56  71
ENDBRANCH  53  56
ENDBRANCH  51  52
BRANCH  51  74
ATOM     74  C8  UNL     1       1.708   3.861  -2.102  0.00  0.00    +0.127 C 
BRANCH  74  75
ATOM     75  C9  UNL     1       2.728   4.835  -2.626  0.00  0.00    +0.213 C 
ATOM     76  N2  UNL     1       2.261   5.822  -3.441  0.00  0.00    -0.329 N 
ATOM     77  O2  UNL     1       3.929   4.708  -2.406  0.00  0.00    -0.276 OA
ATOM     78  H15 UNL     1       2.945   6.430  -3.877  0.00  0.00    +0.145 HD
ATOM     79  H16 UNL     1       1.312   5.848  -3.792  0.00  0.00    +0.145 HD
ENDBRANCH  74  75
ENDBRANCH  51  74
ENDBRANCH  48  51
ENDBRANCH  46  47
BRANCH  46  80
ATOM     80  C4  UNL     1       6.412   1.949  -1.681  0.00  0.00    +0.028 C 
BRANCH  80  82
ATOM     81  C1  UNL     1       7.953   0.135  -2.671  0.00  0.00    +0.007 C 
ATOM     82  C2  UNL     1       7.826   1.331  -1.733  0.00  0.00    -0.015 C 
ATOM     83  C3  UNL     1       8.425   1.041  -0.358  0.00  0.00    +0.007 C 
ENDBRANCH  80  82
ENDBRANCH  46  80
ENDBRANCH  43  46
ENDBRANCH   1  43
TORSDOF 36
