AutoDock-GPU version: v1.6

**********************************************************
**    AutoDock-GPU AUTODOCKTOOLS-COMPATIBLE DLG FILE    **
**********************************************************


    DOCKING PARAMETERS
    ________________________


Ligand file:                               ligands/ligand_4.pdbqt
Grid fld file:                             protein.maps.fld

Random seed:                               1770973405, 31368
Number of runs:                            20
Number of energy evaluations:              11212687
Number of generations:                     42000
Size of population:                        150
Rate of crossover:                         80.000000%
Tournament selection probability limit:    60.000000%
Rate of mutation:                          2.000000%
Maximal allowed delta movement:            +/- 6.000000A
Maximal allowed delta angle:               +/- 90.000000

Rate of local search:                      100.000000%
Maximal number of local search iterations: 300
Rho lower bound:                           0.010000
Spread of local search delta movement:     2.000000A
Spread of local search delta angle:        74.999999
Limit of consecutive successes/failures:   4

Handle symmetry during clustering:         YES
RMSD tolerance:                            2.000000A

Program call in command line was:          ./autodock-gpu --ffile protein.maps.fld --lfile ligands/ligand_4.pdbqt --nrun 20 


    GRID PARAMETERS
    ________________________


Receptor name:                             #MACROMOLECULE
Number of grid points (x, y, z):           61, 61, 61
Grid center (x, y, z):                     10.261000, -3.492000, -0.127000A
Grid size (x, y, z):                       22.500000, 22.500000, 22.500000A
Grid spacing:                              0.375000A


    LIGAND PARAMETERS
    ________________________


Ligand name:                               ligands/ligand_4
Number of atoms:                           63
Number of rotatable bonds:                 26
Number of atom types:                      5


    DUMMY DATA (only for ADT-compatibility)
    ________________________


DPF> outlev 1
DPF> ga_run 20
DPF> fld protein.maps.fld
DPF> move ligands/ligand_4.pdbqt


    COUNTER STATES
    ________________________


Number of energy evaluations performed:    10067073
Number of generations used:                385


    INPUT LIGAND PDBQT FILE:
    ________________________


INPUT-LIGAND-PDBQT: REMARK  Name = ligands/ligand_4.pdb
INPUT-LIGAND-PDBQT: REMARK  33 active torsions:
INPUT-LIGAND-PDBQT: REMARK  status: ('A' for Active; 'I' for Inactive)
INPUT-LIGAND-PDBQT: REMARK    1  A    between atoms: C1_1  and  C2_2
INPUT-LIGAND-PDBQT: REMARK    2  A    between atoms: C2_2  and  C3_3
INPUT-LIGAND-PDBQT: REMARK    3  A    between atoms: C3_3  and  C4_4
INPUT-LIGAND-PDBQT: REMARK    4  A    between atoms: C3_3  and  C5_5
INPUT-LIGAND-PDBQT: REMARK    5  A    between atoms: C5_5  and  C6_6
INPUT-LIGAND-PDBQT: REMARK    6  A    between atoms: C6_6  and  N1_7
INPUT-LIGAND-PDBQT: REMARK    7  A    between atoms: C6_6  and  C15_19
INPUT-LIGAND-PDBQT: REMARK    8  A    between atoms: C7_8  and  C8_10
INPUT-LIGAND-PDBQT: REMARK    9  A    between atoms: C8_10  and  C9_11
INPUT-LIGAND-PDBQT: REMARK   10  A    between atoms: C8_10  and  N2_15
INPUT-LIGAND-PDBQT: REMARK   11  A    between atoms: C9_11  and  C10_12
INPUT-LIGAND-PDBQT: REMARK   12  A    between atoms: C10_12  and  C11_13
INPUT-LIGAND-PDBQT: REMARK   13  A    between atoms: C10_12  and  C12_14
INPUT-LIGAND-PDBQT: REMARK   14  A    between atoms: C13_16  and  C14_17
INPUT-LIGAND-PDBQT: REMARK   15  A    between atoms: C15_19  and  O3_20
INPUT-LIGAND-PDBQT: REMARK   16  A    between atoms: C15_19  and  C16_21
INPUT-LIGAND-PDBQT: REMARK   17  A    between atoms: C16_21  and  C17_22
INPUT-LIGAND-PDBQT: REMARK   18  A    between atoms: N3_24  and  C18_25
INPUT-LIGAND-PDBQT: REMARK   19  A    between atoms: C18_25  and  C19_26
INPUT-LIGAND-PDBQT: REMARK   20  A    between atoms: C18_25  and  C26_33
INPUT-LIGAND-PDBQT: REMARK   21  A    between atoms: C19_26  and  C20_27
INPUT-LIGAND-PDBQT: REMARK   22  A    between atoms: C26_33  and  O5_34
INPUT-LIGAND-PDBQT: REMARK   23  A    between atoms: C26_33  and  C27_35
INPUT-LIGAND-PDBQT: REMARK   24  A    between atoms: C27_35  and  C28_36
INPUT-LIGAND-PDBQT: REMARK   25  A    between atoms: N4_38  and  C29_39
INPUT-LIGAND-PDBQT: REMARK   26  A    between atoms: C29_39  and  C30_40
INPUT-LIGAND-PDBQT: REMARK   27  A    between atoms: C29_39  and  C39_53
INPUT-LIGAND-PDBQT: REMARK   28  A    between atoms: N5_42  and  C31_43
INPUT-LIGAND-PDBQT: REMARK   29  A    between atoms: C31_43  and  C32_44
INPUT-LIGAND-PDBQT: REMARK   30  A    between atoms: C35_47  and  C36_48
INPUT-LIGAND-PDBQT: REMARK   31  A    between atoms: C36_48  and  O9_50
INPUT-LIGAND-PDBQT: REMARK   32  A    between atoms: C39_53  and  C40_54
INPUT-LIGAND-PDBQT: REMARK   33  A    between atoms: C39_53  and  C41_55
INPUT-LIGAND-PDBQT: REMARK                            x       y       z     vdW  Elec       q    Type
INPUT-LIGAND-PDBQT: REMARK                         _______ _______ _______ _____ _____    ______ ____
INPUT-LIGAND-PDBQT: ROOT
INPUT-LIGAND-PDBQT: ATOM      1  C18 UNL     1       2.014  -1.669  -0.977  0.00  0.00    +0.106 C 
INPUT-LIGAND-PDBQT: ENDROOT
INPUT-LIGAND-PDBQT: BRANCH   1   4
INPUT-LIGAND-PDBQT: ATOM      2  C17 UNL     1      -0.203  -2.766  -1.348  0.00  0.00    +0.216 C 
INPUT-LIGAND-PDBQT: ATOM      3  O4  UNL     1       0.289  -3.846  -1.665  0.00  0.00    -0.276 OA
INPUT-LIGAND-PDBQT: ATOM      4  N3  UNL     1       0.546  -1.668  -1.012  0.00  0.00    -0.310 N 
INPUT-LIGAND-PDBQT: ATOM      5  H32 UNL     1       0.114  -0.779  -0.795  0.00  0.00    +0.149 HD
INPUT-LIGAND-PDBQT: BRANCH   2   6
INPUT-LIGAND-PDBQT: ATOM      6  C16 UNL     1      -1.701  -2.570  -1.285  0.00  0.00    +0.129 C 
INPUT-LIGAND-PDBQT: BRANCH   6   7
INPUT-LIGAND-PDBQT: ATOM      7  C15 UNL     1      -2.325  -2.002  -2.561  0.00  0.00    +0.143 C 
INPUT-LIGAND-PDBQT: BRANCH   7   8
INPUT-LIGAND-PDBQT: ATOM      8  O3  UNL     1      -2.050  -2.901  -3.653  0.00  0.00    -0.389 OA
INPUT-LIGAND-PDBQT: ATOM      9  H29 UNL     1      -1.080  -2.921  -3.790  0.00  0.00    +0.210 HD
INPUT-LIGAND-PDBQT: ENDBRANCH   7   8
INPUT-LIGAND-PDBQT: BRANCH   7  10
INPUT-LIGAND-PDBQT: ATOM     10  C6  UNL     1      -1.945  -0.547  -2.962  0.00  0.00    +0.102 C 
INPUT-LIGAND-PDBQT: BRANCH  10  11
INPUT-LIGAND-PDBQT: ATOM     11  N1  UNL     1      -2.106  -0.404  -4.416  0.00  0.00    -0.308 N 
INPUT-LIGAND-PDBQT: ATOM     12  C7  UNL     1      -1.460   0.552  -5.164  0.00  0.00    +0.234 C 
INPUT-LIGAND-PDBQT: ATOM     13  O1  UNL     1      -0.614   1.317  -4.697  0.00  0.00    -0.274 OA
INPUT-LIGAND-PDBQT: ATOM     14  H13 UNL     1      -2.770  -1.028  -4.863  0.00  0.00    +0.149 HD
INPUT-LIGAND-PDBQT: BRANCH  12  15
INPUT-LIGAND-PDBQT: ATOM     15  C8  UNL     1      -1.870   0.574  -6.658  0.00  0.00    +0.159 C 
INPUT-LIGAND-PDBQT: BRANCH  15  16
INPUT-LIGAND-PDBQT: ATOM     16  N2  UNL     1      -1.338   1.811  -7.216  0.00  0.00    -0.304 N 
INPUT-LIGAND-PDBQT: ATOM     17  C13 UNL     1      -2.138   2.931  -7.286  0.00  0.00    +0.211 C 
INPUT-LIGAND-PDBQT: ATOM     18  C14 UNL     1      -1.385   4.191  -7.614  0.00  0.00    +0.109 C 
INPUT-LIGAND-PDBQT: ATOM     19  O2  UNL     1      -3.352   2.917  -7.094  0.00  0.00    -0.276 OA
INPUT-LIGAND-PDBQT: ATOM     20  H24 UNL     1      -0.362   1.988  -6.999  0.00  0.00    +0.149 HD
INPUT-LIGAND-PDBQT: ENDBRANCH  15  16
INPUT-LIGAND-PDBQT: BRANCH  15  21
INPUT-LIGAND-PDBQT: ATOM     21  C9  UNL     1      -1.321  -0.664  -7.383  0.00  0.00    +0.034 C 
INPUT-LIGAND-PDBQT: BRANCH  21  22
INPUT-LIGAND-PDBQT: ATOM     22  C10 UNL     1      -1.849  -0.931  -8.808  0.00  0.00    -0.015 C 
INPUT-LIGAND-PDBQT: ATOM     23  C11 UNL     1      -1.344   0.078  -9.842  0.00  0.00    +0.007 C 
INPUT-LIGAND-PDBQT: ATOM     24  C12 UNL     1      -3.373  -1.034  -8.866  0.00  0.00    +0.007 C 
INPUT-LIGAND-PDBQT: ENDBRANCH  21  22
INPUT-LIGAND-PDBQT: ENDBRANCH  15  21
INPUT-LIGAND-PDBQT: ENDBRANCH  12  15
INPUT-LIGAND-PDBQT: ENDBRANCH  10  11
INPUT-LIGAND-PDBQT: BRANCH  10  25
INPUT-LIGAND-PDBQT: ATOM     25  C5  UNL     1      -2.816   0.543  -2.290  0.00  0.00    +0.028 C 
INPUT-LIGAND-PDBQT: BRANCH  25  26
INPUT-LIGAND-PDBQT: ATOM     26  C3  UNL     1      -2.651   0.718  -0.770  0.00  0.00    -0.013 C 
INPUT-LIGAND-PDBQT: ATOM     27  C4  UNL     1      -2.472   2.198  -0.419  0.00  0.00    +0.007 C 
INPUT-LIGAND-PDBQT: BRANCH  26  29
INPUT-LIGAND-PDBQT: ATOM     28  C1  UNL     1      -5.140   0.824  -0.011  0.00  0.00    +0.004 C 
INPUT-LIGAND-PDBQT: ATOM     29  C2  UNL     1      -3.808   0.082   0.033  0.00  0.00    -0.000 C 
INPUT-LIGAND-PDBQT: ENDBRANCH  26  29
INPUT-LIGAND-PDBQT: ENDBRANCH  25  26
INPUT-LIGAND-PDBQT: ENDBRANCH  10  25
INPUT-LIGAND-PDBQT: ENDBRANCH   7  10
INPUT-LIGAND-PDBQT: ENDBRANCH   6   7
INPUT-LIGAND-PDBQT: ENDBRANCH   2   6
INPUT-LIGAND-PDBQT: ENDBRANCH   1   4
INPUT-LIGAND-PDBQT: BRANCH   1  30
INPUT-LIGAND-PDBQT: ATOM     30  C19 UNL     1       2.598  -0.945  -2.217  0.00  0.00    +0.060 C 
INPUT-LIGAND-PDBQT: BRANCH  30  31
INPUT-LIGAND-PDBQT: ATOM     31  C20 UNL     1       2.418  -1.599  -3.572  0.00  0.00    -0.046 A 
INPUT-LIGAND-PDBQT: ATOM     32  C21 UNL     1       2.243  -0.787  -4.705  0.00  0.00    +0.004 A 
INPUT-LIGAND-PDBQT: ATOM     33  C22 UNL     1       2.164  -1.344  -5.983  0.00  0.00    +0.000 A 
INPUT-LIGAND-PDBQT: ATOM     34  C23 UNL     1       2.227  -2.725  -6.149  0.00  0.00    +0.000 A 
INPUT-LIGAND-PDBQT: ATOM     35  C24 UNL     1       2.404  -3.541  -5.037  0.00  0.00    +0.000 A 
INPUT-LIGAND-PDBQT: ATOM     36  C25 UNL     1       2.526  -2.981  -3.762  0.00  0.00    +0.004 A 
INPUT-LIGAND-PDBQT: ENDBRANCH  30  31
INPUT-LIGAND-PDBQT: ENDBRANCH   1  30
INPUT-LIGAND-PDBQT: BRANCH   1  37
INPUT-LIGAND-PDBQT: ATOM     37  C26 UNL     1       2.491  -0.967   0.323  0.00  0.00    +0.144 C 
INPUT-LIGAND-PDBQT: BRANCH  37  38
INPUT-LIGAND-PDBQT: ATOM     38  O5  UNL     1       1.986   0.380   0.326  0.00  0.00    -0.389 OA
INPUT-LIGAND-PDBQT: ATOM     39  H42 UNL     1       2.535   0.868   0.974  0.00  0.00    +0.210 HD
INPUT-LIGAND-PDBQT: ENDBRANCH  37  38
INPUT-LIGAND-PDBQT: BRANCH  37  40
INPUT-LIGAND-PDBQT: ATOM     40  C27 UNL     1       1.986  -1.684   1.579  0.00  0.00    +0.129 C 
INPUT-LIGAND-PDBQT: BRANCH  40  41
INPUT-LIGAND-PDBQT: ATOM     41  C28 UNL     1       2.608  -1.085   2.822  0.00  0.00    +0.216 C 
INPUT-LIGAND-PDBQT: ATOM     42  O6  UNL     1       3.697  -0.518   2.822  0.00  0.00    -0.276 OA
INPUT-LIGAND-PDBQT: ATOM     43  N4  UNL     1       1.827  -1.235   3.941  0.00  0.00    -0.304 N 
INPUT-LIGAND-PDBQT: ATOM     44  H45 UNL     1       0.970  -1.780   3.898  0.00  0.00    +0.149 HD
INPUT-LIGAND-PDBQT: BRANCH  43  45
INPUT-LIGAND-PDBQT: ATOM     45  C29 UNL     1       2.188  -0.713   5.260  0.00  0.00    +0.161 C 
INPUT-LIGAND-PDBQT: BRANCH  45  46
INPUT-LIGAND-PDBQT: ATOM     46  C30 UNL     1       1.608  -1.742   6.253  0.00  0.00    +0.234 C 
INPUT-LIGAND-PDBQT: ATOM     47  O7  UNL     1       0.603  -2.399   5.985  0.00  0.00    -0.274 OA
INPUT-LIGAND-PDBQT: ATOM     48  N5  UNL     1       2.276  -1.849   7.451  0.00  0.00    -0.310 N 
INPUT-LIGAND-PDBQT: ATOM     49  H47 UNL     1       3.015  -1.193   7.659  0.00  0.00    +0.149 HD
INPUT-LIGAND-PDBQT: BRANCH  48  50
INPUT-LIGAND-PDBQT: ATOM     50  C31 UNL     1       1.727  -2.606   8.552  0.00  0.00    +0.139 C 
INPUT-LIGAND-PDBQT: BRANCH  50  51
INPUT-LIGAND-PDBQT: ATOM     51  C32 UNL     1       0.880  -1.719   9.432  0.00  0.00    -0.030 A 
INPUT-LIGAND-PDBQT: ATOM     52  C33 UNL     1      -0.468  -1.492   9.114  0.00  0.00    +0.006 A 
INPUT-LIGAND-PDBQT: ATOM     53  C34 UNL     1      -1.248  -0.625   9.883  0.00  0.00    +0.015 A 
INPUT-LIGAND-PDBQT: ATOM     54  C35 UNL     1      -0.690   0.026  10.989  0.00  0.00    +0.059 A 
INPUT-LIGAND-PDBQT: ATOM     55  C37 UNL     1       0.653  -0.194  11.316  0.00  0.00    +0.015 A 
INPUT-LIGAND-PDBQT: ATOM     56  C38 UNL     1       1.434  -1.058  10.539  0.00  0.00    +0.006 A 
INPUT-LIGAND-PDBQT: BRANCH  54  57
INPUT-LIGAND-PDBQT: ATOM     57  C36 UNL     1      -1.552   0.941  11.780  0.00  0.00    +0.337 C 
INPUT-LIGAND-PDBQT: ATOM     58  O8  UNL     1      -2.735   1.156  11.583  0.00  0.00    -0.245 OA
INPUT-LIGAND-PDBQT: BRANCH  57  59
INPUT-LIGAND-PDBQT: ATOM     59  O9  UNL     1      -0.889   1.556  12.773  0.00  0.00    -0.477 OA
INPUT-LIGAND-PDBQT: ATOM     60  H52 UNL     1      -1.571   2.135  13.179  0.00  0.00    +0.295 HD
INPUT-LIGAND-PDBQT: ENDBRANCH  57  59
INPUT-LIGAND-PDBQT: ENDBRANCH  54  57
INPUT-LIGAND-PDBQT: ENDBRANCH  50  51
INPUT-LIGAND-PDBQT: ENDBRANCH  48  50
INPUT-LIGAND-PDBQT: ENDBRANCH  45  46
INPUT-LIGAND-PDBQT: BRANCH  45  61
INPUT-LIGAND-PDBQT: ATOM     61  C39 UNL     1       1.591   0.696   5.492  0.00  0.00    +0.012 C 
INPUT-LIGAND-PDBQT: ATOM     62  C40 UNL     1       1.996   1.686   4.396  0.00  0.00    +0.009 C 
INPUT-LIGAND-PDBQT: ATOM     63  C41 UNL     1       2.008   1.279   6.847  0.00  0.00    +0.009 C 
INPUT-LIGAND-PDBQT: ENDBRANCH  45  61
INPUT-LIGAND-PDBQT: ENDBRANCH  43  45
INPUT-LIGAND-PDBQT: ENDBRANCH  40  41
INPUT-LIGAND-PDBQT: ENDBRANCH  37  40
INPUT-LIGAND-PDBQT: ENDBRANCH   1  37
INPUT-LIGAND-PDBQT: TORSDOF 26


    FINAL DOCKED STATE:
    ________________________


Run:   1 / 20
Time taken for this run:   3.577s

DOCKED: MODEL        1
DOCKED: USER    Run = 1
DOCKED: USER
DOCKED: USER    Estimated Free Energy of Binding    =  +7.76 kcal/mol  [=(1)+(2)+(3)-(4)]
DOCKED: USER
DOCKED: USER    (1) Final Intermolecular Energy     =  +0.00 kcal/mol
DOCKED: USER        vdW + Hbond + desolv Energy     =  +0.00 kcal/mol
DOCKED: USER        Electrostatic Energy            =  +0.00 kcal/mol
DOCKED: USER        Moving Ligand-Fixed Receptor    =  +0.00 kcal/mol
DOCKED: USER        Moving Ligand-Moving Receptor   =  +0.00 kcal/mol
DOCKED: USER    (2) Final Total Internal Energy     = -16.88 kcal/mol
DOCKED: USER    (3) Torsional Free Energy           =  +7.76 kcal/mol
DOCKED: USER    (4) Unbound System's Energy         = -16.88 kcal/mol
DOCKED: USER
DOCKED: USER
DOCKED: REMARK  Name = ligands/ligand_4.pdb
DOCKED: REMARK  33 active torsions:
DOCKED: REMARK  status: ('A' for Active; 'I' for Inactive)
DOCKED: REMARK    1  A    between atoms: C1_1  and  C2_2
DOCKED: REMARK    2  A    between atoms: C2_2  and  C3_3
DOCKED: REMARK    3  A    between atoms: C3_3  and  C4_4
DOCKED: REMARK    4  A    between atoms: C3_3  and  C5_5
DOCKED: REMARK    5  A    between atoms: C5_5  and  C6_6
DOCKED: REMARK    6  A    between atoms: C6_6  and  N1_7
DOCKED: REMARK    7  A    between atoms: C6_6  and  C15_19
DOCKED: REMARK    8  A    between atoms: C7_8  and  C8_10
DOCKED: REMARK    9  A    between atoms: C8_10  and  C9_11
DOCKED: REMARK   10  A    between atoms: C8_10  and  N2_15
DOCKED: REMARK   11  A    between atoms: C9_11  and  C10_12
DOCKED: REMARK   12  A    between atoms: C10_12  and  C11_13
DOCKED: REMARK   13  A    between atoms: C10_12  and  C12_14
DOCKED: REMARK   14  A    between atoms: C13_16  and  C14_17
DOCKED: REMARK   15  A    between atoms: C15_19  and  O3_20
DOCKED: REMARK   16  A    between atoms: C15_19  and  C16_21
DOCKED: REMARK   17  A    between atoms: C16_21  and  C17_22
DOCKED: REMARK   18  A    between atoms: N3_24  and  C18_25
DOCKED: REMARK   19  A    between atoms: C18_25  and  C19_26
DOCKED: REMARK   20  A    between atoms: C18_25  and  C26_33
DOCKED: REMARK   21  A    between atoms: C19_26  and  C20_27
DOCKED: REMARK   22  A    between atoms: C26_33  and  O5_34
DOCKED: REMARK   23  A    between atoms: C26_33  and  C27_35
DOCKED: REMARK   24  A    between atoms: C27_35  and  C28_36
DOCKED: REMARK   25  A    between atoms: N4_38  and  C29_39
DOCKED: REMARK   26  A    between atoms: C29_39  and  C30_40
DOCKED: REMARK   27  A    between atoms: C29_39  and  C39_53
DOCKED: REMARK   28  A    between atoms: N5_42  and  C31_43
DOCKED: REMARK   29  A    between atoms: C31_43  and  C32_44
DOCKED: REMARK   30  A    between atoms: C35_47  and  C36_48
DOCKED: REMARK   31  A    between atoms: C36_48  and  O9_50
DOCKED: REMARK   32  A    between atoms: C39_53  and  C40_54
DOCKED: REMARK   33  A    between atoms: C39_53  and  C41_55
DOCKED: REMARK                            x       y       z     vdW  Elec       q    Type
DOCKED: REMARK                         _______ _______ _______ _____ _____    ______ ____
DOCKED: USER                              x       y       z     vdW  Elec       q    Type
DOCKED: USER                           _______ _______ _______ _____ _____    ______ ____
DOCKED: ROOT
DOCKED: ATOM      1  C18 UNL     1       6.905  -2.896  -4.087 +0.00 +0.00    +0.106 C  
DOCKED: ENDROOT
DOCKED: BRANCH   1   4
DOCKED: ATOM      2  C17 UNL     1       8.442  -4.061  -5.679 +0.00 +0.00    +0.216 C  
DOCKED: ATOM      3  O4  UNL     1       7.759  -3.796  -6.665 +0.00 -0.00    -0.276 OA 
DOCKED: ATOM      4  N3  UNL     1       8.106  -3.678  -4.407 +0.00 -0.00    -0.310 N  
DOCKED: ATOM      5  H32 UNL     1       8.667  -3.946  -3.608 +0.00 +0.00    +0.149 HD 
DOCKED: BRANCH   2   6
DOCKED: ATOM      6  C16 UNL     1       9.740  -4.827  -5.802 +0.00 +0.00    +0.129 C  
DOCKED: BRANCH   6   7
DOCKED: ATOM      7  C15 UNL     1      10.972  -4.083  -5.283 +0.00 +0.00    +0.143 C  
DOCKED: BRANCH   7   8
DOCKED: ATOM      8  O3  UNL     1      10.559  -3.156  -4.260 +0.00 -0.00    -0.389 OA 
DOCKED: ATOM      9  H29 UNL     1       9.982  -2.484  -4.678 +0.00 +0.00    +0.210 HD 
DOCKED: ENDBRANCH   7   8
DOCKED: BRANCH   7  10
DOCKED: ATOM     10  C6  UNL     1      11.868  -3.356  -6.328 +0.00 +0.00    +0.102 C  
DOCKED: BRANCH  10  11
DOCKED: ATOM     11  N1  UNL     1      11.253  -2.061  -6.653 +0.00 -0.00    -0.308 N  
DOCKED: ATOM     12  C7  UNL     1      11.500  -1.370  -7.816 +0.00 +0.00    +0.234 C  
DOCKED: ATOM     13  O1  UNL     1      12.189  -1.819  -8.735 +0.00 -0.00    -0.274 OA 
DOCKED: ATOM     14  H13 UNL     1      10.651  -1.654  -5.945 +0.00 +0.00    +0.149 HD 
DOCKED: BRANCH  12  15
DOCKED: ATOM     15  C8  UNL     1      10.820   0.020  -7.886 +0.00 +0.00    +0.159 C  
DOCKED: BRANCH  15  16
DOCKED: ATOM     16  N2  UNL     1       9.388  -0.224  -8.005 +0.00 -0.00    -0.304 N  
DOCKED: ATOM     17  C13 UNL     1       8.651  -0.541  -6.885 +0.00 +0.00    +0.211 C  
DOCKED: ATOM     18  C14 UNL     1       7.164  -0.487  -7.105 +0.00 +0.00    +0.109 C  
DOCKED: ATOM     19  O2  UNL     1       9.149  -0.835  -5.800 +0.00 -0.00    -0.276 OA 
DOCKED: ATOM     20  H24 UNL     1       8.914   0.362  -8.685 +0.00 +0.00    +0.149 HD 
DOCKED: ENDBRANCH  15  16
DOCKED: BRANCH  15  21
DOCKED: ATOM     21  C9  UNL     1      11.158   0.846  -6.635 +0.00 +0.00    +0.034 C  
DOCKED: BRANCH  21  22
DOCKED: ATOM     22  C10 UNL     1      11.396   2.357  -6.839 +0.00 -0.00    -0.015 C  
DOCKED: ATOM     23  C11 UNL     1      12.164   3.011  -5.688 +0.00 +0.00    +0.007 C  
DOCKED: ATOM     24  C12 UNL     1      10.106   3.127  -7.123 +0.00 +0.00    +0.007 C  
DOCKED: ENDBRANCH  21  22
DOCKED: ENDBRANCH  15  21
DOCKED: ENDBRANCH  12  15
DOCKED: ENDBRANCH  10  11
DOCKED: BRANCH  10  25
DOCKED: ATOM     25  C5  UNL     1      13.310  -3.075  -5.840 +0.00 +0.00    +0.028 C  
DOCKED: BRANCH  25  26
DOCKED: ATOM     26  C3  UNL     1      13.459  -2.509  -4.417 +0.00 -0.00    -0.013 C  
DOCKED: ATOM     27  C4  UNL     1      14.921  -2.577  -3.965 +0.00 +0.00    +0.007 C  
DOCKED: BRANCH  26  29
DOCKED: ATOM     28  C1  UNL     1      13.877   0.059  -4.528 +0.00 +0.00    +0.004 C  
DOCKED: ATOM     29  C2  UNL     1      12.891  -1.078  -4.282 +0.00 -0.00    -0.000 C  
DOCKED: ENDBRANCH  26  29
DOCKED: ENDBRANCH  25  26
DOCKED: ENDBRANCH  10  25
DOCKED: ENDBRANCH   7  10
DOCKED: ENDBRANCH   6   7
DOCKED: ENDBRANCH   2   6
DOCKED: ENDBRANCH   1   4
DOCKED: BRANCH   1  30
DOCKED: ATOM     30  C19 UNL     1       5.859  -3.767  -3.346 +0.00 +0.00    +0.060 C  
DOCKED: BRANCH  30  31
DOCKED: ATOM     31  C20 UNL     1       6.267  -4.404  -2.033 +0.00 -0.00    -0.046 A  
DOCKED: ATOM     32  C21 UNL     1       6.815  -5.698  -2.043 +0.00 +0.00    +0.004 A  
DOCKED: ATOM     33  C22 UNL     1       7.288  -6.287  -0.868 +0.00 +0.00    +0.000 A  
DOCKED: ATOM     34  C23 UNL     1       7.191  -5.607   0.343 +0.00 +0.00    +0.000 A  
DOCKED: ATOM     35  C24 UNL     1       6.654  -4.324   0.367 +0.00 +0.00    +0.000 A  
DOCKED: ATOM     36  C25 UNL     1       6.221  -3.717  -0.815 +0.00 +0.00    +0.004 A  
DOCKED: ENDBRANCH  30  31
DOCKED: ENDBRANCH   1  30
DOCKED: BRANCH   1  37
DOCKED: ATOM     37  C26 UNL     1       7.309  -1.683  -3.206 +0.00 +0.00    +0.144 C  
DOCKED: BRANCH  37  38
DOCKED: ATOM     38  O5  UNL     1       8.743  -1.648  -3.108 +0.00 -0.00    -0.389 OA 
DOCKED: ATOM     39  H42 UNL     1       9.071  -1.595  -4.030 +0.00 +0.00    +0.210 HD 
DOCKED: ENDBRANCH  37  38
DOCKED: BRANCH  37  40
DOCKED: ATOM     40  C27 UNL     1       6.824  -0.357  -3.801 +0.00 +0.00    +0.129 C  
DOCKED: BRANCH  40  41
DOCKED: ATOM     41  C28 UNL     1       7.634   0.800  -3.257 +0.00 +0.00    +0.216 C  
DOCKED: ATOM     42  O6  UNL     1       7.585   1.162  -2.085 +0.00 -0.00    -0.276 OA 
DOCKED: ATOM     43  N4  UNL     1       8.430   1.392  -4.205 +0.00 -0.00    -0.304 N  
DOCKED: ATOM     44  H45 UNL     1       8.373   1.100  -5.177 +0.00 +0.00    +0.149 HD 
DOCKED: BRANCH  43  45
DOCKED: ATOM     45  C29 UNL     1       9.335   2.509  -3.925 +0.00 +0.00    +0.161 C  
DOCKED: BRANCH  45  46
DOCKED: ATOM     46  C30 UNL     1      10.308   1.957  -2.862 +0.00 +0.00    +0.234 C  
DOCKED: ATOM     47  O7  UNL     1      11.317   1.329  -3.178 +0.00 -0.00    -0.274 OA 
DOCKED: ATOM     48  N5  UNL     1       9.954   2.197  -1.554 +0.00 -0.00    -0.310 N  
DOCKED: ATOM     49  H47 UNL     1       9.051   2.606  -1.360 +0.00 +0.00    +0.149 HD 
DOCKED: BRANCH  48  50
DOCKED: ATOM     50  C31 UNL     1      10.648   1.560  -0.459 +0.00 +0.00    +0.139 C  
DOCKED: BRANCH  50  51
DOCKED: ATOM     51  C32 UNL     1      10.523   0.059  -0.557 +0.00 -0.00    -0.030 A  
DOCKED: ATOM     52  C33 UNL     1      11.541  -0.695  -1.161 +0.00 +0.00    +0.006 A  
DOCKED: ATOM     53  C34 UNL     1      11.412  -2.077  -1.314 +0.00 +0.00    +0.015 A  
DOCKED: ATOM     54  C35 UNL     1      10.261  -2.729  -0.860 +0.00 +0.00    +0.059 A  
DOCKED: ATOM     55  C37 UNL     1       9.239  -1.987  -0.255 +0.00 +0.00    +0.015 A  
DOCKED: ATOM     56  C38 UNL     1       9.368  -0.601  -0.109 +0.00 +0.00    +0.006 A  
DOCKED: BRANCH  54  57
DOCKED: ATOM     57  C36 UNL     1      10.162  -4.200  -1.043 +0.00 +0.00    +0.337 C  
DOCKED: ATOM     58  O8  UNL     1      10.476  -5.044  -0.223 +0.00 -0.00    -0.245 OA 
DOCKED: BRANCH  57  59
DOCKED: ATOM     59  O9  UNL     1       9.686  -4.545  -2.251 +0.00 -0.00    -0.477 OA 
DOCKED: ATOM     60  H52 UNL     1       9.606  -3.685  -2.719 +0.00 +0.00    +0.295 HD 
DOCKED: ENDBRANCH  57  59
DOCKED: ENDBRANCH  54  57
DOCKED: ENDBRANCH  50  51
DOCKED: ENDBRANCH  48  50
DOCKED: ENDBRANCH  45  46
DOCKED: BRANCH  45  61
DOCKED: ATOM     61  C39 UNL     1       8.562   3.742  -3.399 +0.00 +0.00    +0.012 C  
DOCKED: ATOM     62  C40 UNL     1       7.403   4.137  -4.318 +0.00 +0.00    +0.009 C  
DOCKED: ATOM     63  C41 UNL     1       9.477   4.960  -3.226 +0.00 +0.00    +0.009 C  
DOCKED: ENDBRANCH  45  61
DOCKED: ENDBRANCH  43  45
DOCKED: ENDBRANCH  40  41
DOCKED: ENDBRANCH  37  40
DOCKED: ENDBRANCH   1  37
DOCKED: TORSDOF 26
DOCKED: TER
DOCKED: ENDMDL
________________________________________________________________________________


    FINAL DOCKED STATE:
    ________________________


Run:   2 / 20
Time taken for this run:   3.577s

DOCKED: MODEL        2
DOCKED: USER    Run = 2
DOCKED: USER
DOCKED: USER    Estimated Free Energy of Binding    =  +7.76 kcal/mol  [=(1)+(2)+(3)-(4)]
DOCKED: USER
DOCKED: USER    (1) Final Intermolecular Energy     =  +0.00 kcal/mol
DOCKED: USER        vdW + Hbond + desolv Energy     =  +0.00 kcal/mol
DOCKED: USER        Electrostatic Energy            =  +0.00 kcal/mol
DOCKED: USER        Moving Ligand-Fixed Receptor    =  +0.00 kcal/mol
DOCKED: USER        Moving Ligand-Moving Receptor   =  +0.00 kcal/mol
DOCKED: USER    (2) Final Total Internal Energy     = -17.43 kcal/mol
DOCKED: USER    (3) Torsional Free Energy           =  +7.76 kcal/mol
DOCKED: USER    (4) Unbound System's Energy         = -17.43 kcal/mol
DOCKED: USER
DOCKED: USER
DOCKED: REMARK  Name = ligands/ligand_4.pdb
DOCKED: REMARK  33 active torsions:
DOCKED: REMARK  status: ('A' for Active; 'I' for Inactive)
DOCKED: REMARK    1  A    between atoms: C1_1  and  C2_2
DOCKED: REMARK    2  A    between atoms: C2_2  and  C3_3
DOCKED: REMARK    3  A    between atoms: C3_3  and  C4_4
DOCKED: REMARK    4  A    between atoms: C3_3  and  C5_5
DOCKED: REMARK    5  A    between atoms: C5_5  and  C6_6
DOCKED: REMARK    6  A    between atoms: C6_6  and  N1_7
DOCKED: REMARK    7  A    between atoms: C6_6  and  C15_19
DOCKED: REMARK    8  A    between atoms: C7_8  and  C8_10
DOCKED: REMARK    9  A    between atoms: C8_10  and  C9_11
DOCKED: REMARK   10  A    between atoms: C8_10  and  N2_15
DOCKED: REMARK   11  A    between atoms: C9_11  and  C10_12
DOCKED: REMARK   12  A    between atoms: C10_12  and  C11_13
DOCKED: REMARK   13  A    between atoms: C10_12  and  C12_14
DOCKED: REMARK   14  A    between atoms: C13_16  and  C14_17
DOCKED: REMARK   15  A    between atoms: C15_19  and  O3_20
DOCKED: REMARK   16  A    between atoms: C15_19  and  C16_21
DOCKED: REMARK   17  A    between atoms: C16_21  and  C17_22
DOCKED: REMARK   18  A    between atoms: N3_24  and  C18_25
DOCKED: REMARK   19  A    between atoms: C18_25  and  C19_26
DOCKED: REMARK   20  A    between atoms: C18_25  and  C26_33
DOCKED: REMARK   21  A    between atoms: C19_26  and  C20_27
DOCKED: REMARK   22  A    between atoms: C26_33  and  O5_34
DOCKED: REMARK   23  A    between atoms: C26_33  and  C27_35
DOCKED: REMARK   24  A    between atoms: C27_35  and  C28_36
DOCKED: REMARK   25  A    between atoms: N4_38  and  C29_39
DOCKED: REMARK   26  A    between atoms: C29_39  and  C30_40
DOCKED: REMARK   27  A    between atoms: C29_39  and  C39_53
DOCKED: REMARK   28  A    between atoms: N5_42  and  C31_43
DOCKED: REMARK   29  A    between atoms: C31_43  and  C32_44
DOCKED: REMARK   30  A    between atoms: C35_47  and  C36_48
DOCKED: REMARK   31  A    between atoms: C36_48  and  O9_50
DOCKED: REMARK   32  A    between atoms: C39_53  and  C40_54
DOCKED: REMARK   33  A    between atoms: C39_53  and  C41_55
DOCKED: REMARK                            x       y       z     vdW  Elec       q    Type
DOCKED: REMARK                         _______ _______ _______ _____ _____    ______ ____
DOCKED: USER                              x       y       z     vdW  Elec       q    Type
DOCKED: USER                           _______ _______ _______ _____ _____    ______ ____
DOCKED: ROOT
DOCKED: ATOM      1  C18 UNL     1      12.932 -10.148  -1.021 +0.00 +0.00    +0.106 C  
DOCKED: ENDROOT
DOCKED: BRANCH   1   4
DOCKED: ATOM      2  C17 UNL     1      13.441  -7.954   0.067 +0.00 +0.00    +0.216 C  
DOCKED: ATOM      3  O4  UNL     1      12.376  -7.443  -0.271 +0.00 -0.00    -0.276 OA 
DOCKED: ATOM      4  N3  UNL     1      13.794  -9.239  -0.254 +0.00 -0.00    -0.310 N  
DOCKED: ATOM      5  H32 UNL     1      14.696  -9.620   0.003 +0.00 +0.00    +0.149 HD 
DOCKED: BRANCH   2   6
DOCKED: ATOM      6  C16 UNL     1      14.452  -7.194   0.897 +0.00 +0.00    +0.129 C  
DOCKED: BRANCH   6   7
DOCKED: ATOM      7  C15 UNL     1      15.856  -7.134   0.293 +0.00 +0.00    +0.143 C  
DOCKED: BRANCH   7   8
DOCKED: ATOM      8  O3  UNL     1      16.013  -8.227  -0.631 +0.00 -0.00    -0.389 OA 
DOCKED: ATOM      9  H29 UNL     1      15.957  -9.063  -0.122 +0.00 +0.00    +0.210 HD 
DOCKED: ENDBRANCH   7   8
DOCKED: BRANCH   7  10
DOCKED: ATOM     10  C6  UNL     1      17.061  -7.093   1.278 +0.00 +0.00    +0.102 C  
DOCKED: BRANCH  10  11
DOCKED: ATOM     11  N1  UNL     1      17.582  -8.459   1.437 +0.00 -0.00    -0.308 N  
DOCKED: ATOM     12  C7  UNL     1      18.834  -8.744   1.928 +0.00 +0.00    +0.234 C  
DOCKED: ATOM     13  O1  UNL     1      19.600  -7.884   2.368 +0.00 -0.00    -0.274 OA 
DOCKED: ATOM     14  H13 UNL     1      16.983  -9.213   1.119 +0.00 +0.00    +0.149 HD 
DOCKED: BRANCH  12  15
DOCKED: ATOM     15  C8  UNL     1      19.199 -10.250   1.904 +0.00 +0.00    +0.159 C  
DOCKED: BRANCH  15  16
DOCKED: ATOM     16  N2  UNL     1      19.199 -10.654   0.503 +0.00 -0.00    -0.304 N  
DOCKED: ATOM     17  C13 UNL     1      18.008 -10.755  -0.182 +0.00 +0.00    +0.211 C  
DOCKED: ATOM     18  C14 UNL     1      18.177 -10.901  -1.669 +0.00 +0.00    +0.109 C  
DOCKED: ATOM     19  O2  UNL     1      16.904 -10.723   0.359 +0.00 -0.00    -0.276 OA 
DOCKED: ATOM     20  H24 UNL     1      19.982 -10.301  -0.038 +0.00 +0.00    +0.149 HD 
DOCKED: ENDBRANCH  15  16
DOCKED: BRANCH  15  21
DOCKED: ATOM     21  C9  UNL     1      20.564 -10.482   2.568 +0.00 +0.00    +0.034 C  
DOCKED: BRANCH  21  22
DOCKED: ATOM     22  C10 UNL     1      20.823 -11.882   3.163 +0.00 -0.00    -0.015 C  
DOCKED: ATOM     23  C11 UNL     1      19.937 -12.973   2.558 +0.00 +0.00    +0.007 C  
DOCKED: ATOM     24  C12 UNL     1      20.726 -11.904   4.689 +0.00 +0.00    +0.007 C  
DOCKED: ENDBRANCH  21  22
DOCKED: ENDBRANCH  15  21
DOCKED: ENDBRANCH  12  15
DOCKED: ENDBRANCH  10  11
DOCKED: BRANCH  10  25
DOCKED: ATOM     25  C5  UNL     1      18.236  -6.202   0.805 +0.00 +0.00    +0.028 C  
DOCKED: BRANCH  25  26
DOCKED: ATOM     26  C3  UNL     1      18.455  -6.099  -0.715 +0.00 -0.00    -0.013 C  
DOCKED: ATOM     27  C4  UNL     1      19.340  -4.893  -1.046 +0.00 +0.00    +0.007 C  
DOCKED: BRANCH  26  29
DOCKED: ATOM     28  C1  UNL     1      18.535  -7.747  -2.730 +0.00 +0.00    +0.004 C  
DOCKED: ATOM     29  C2  UNL     1      19.021  -7.401  -1.326 +0.00 -0.00    -0.000 C  
DOCKED: ENDBRANCH  26  29
DOCKED: ENDBRANCH  25  26
DOCKED: ENDBRANCH  10  25
DOCKED: ENDBRANCH   7  10
DOCKED: ENDBRANCH   6   7
DOCKED: ENDBRANCH   2   6
DOCKED: ENDBRANCH   1   4
DOCKED: BRANCH   1  30
DOCKED: ATOM     30  C19 UNL     1      12.356  -9.440  -2.273 +0.00 +0.00    +0.060 C  
DOCKED: BRANCH  30  31
DOCKED: ATOM     31  C20 UNL     1      13.277  -8.534  -3.065 +0.00 -0.00    -0.046 A  
DOCKED: ATOM     32  C21 UNL     1      12.857  -7.229  -3.370 +0.00 +0.00    +0.004 A  
DOCKED: ATOM     33  C22 UNL     1      13.709  -6.333  -4.018 +0.00 +0.00    +0.000 A  
DOCKED: ATOM     34  C23 UNL     1      14.986  -6.735  -4.402 +0.00 +0.00    +0.000 A  
DOCKED: ATOM     35  C24 UNL     1      15.417  -8.023  -4.104 +0.00 +0.00    +0.000 A  
DOCKED: ATOM     36  C25 UNL     1      14.580  -8.906  -3.417 +0.00 +0.00    +0.004 A  
DOCKED: ENDBRANCH  30  31
DOCKED: ENDBRANCH   1  30
DOCKED: BRANCH   1  37
DOCKED: ATOM     37  C26 UNL     1      13.758 -11.392  -1.445 +0.00 +0.00    +0.144 C  
DOCKED: BRANCH  37  38
DOCKED: ATOM     38  O5  UNL     1      15.129 -11.181  -1.065 +0.00 -0.00    -0.389 OA 
DOCKED: ATOM     39  H42 UNL     1      15.277 -10.215  -1.128 +0.00 +0.00    +0.210 HD 
DOCKED: ENDBRANCH  37  38
DOCKED: BRANCH  37  40
DOCKED: ATOM     40  C27 UNL     1      13.253 -12.672  -0.772 +0.00 +0.00    +0.129 C  
DOCKED: BRANCH  40  41
DOCKED: ATOM     41  C28 UNL     1      13.059 -12.452   0.713 +0.00 +0.00    +0.216 C  
DOCKED: ATOM     42  O6  UNL     1      12.038 -12.777   1.312 +0.00 -0.00    -0.276 OA 
DOCKED: ATOM     43  N4  UNL     1      14.142 -11.864   1.316 +0.00 -0.00    -0.304 N  
DOCKED: ATOM     44  H45 UNL     1      14.930 -11.547   0.758 +0.00 +0.00    +0.149 HD 
DOCKED: BRANCH  43  45
DOCKED: ATOM     45  C29 UNL     1      14.218 -11.578   2.750 +0.00 +0.00    +0.161 C  
DOCKED: BRANCH  45  46
DOCKED: ATOM     46  C30 UNL     1      14.687 -10.109   2.825 +0.00 +0.00    +0.234 C  
DOCKED: ATOM     47  O7  UNL     1      15.334  -9.593   1.915 +0.00 -0.00    -0.274 OA 
DOCKED: ATOM     48  N5  UNL     1      14.352  -9.440   3.980 +0.00 -0.00    -0.310 N  
DOCKED: ATOM     49  H47 UNL     1      13.932  -9.956   4.740 +0.00 +0.00    +0.149 HD 
DOCKED: BRANCH  48  50
DOCKED: ATOM     50  C31 UNL     1      14.904  -8.140   4.281 +0.00 +0.00    +0.139 C  
DOCKED: BRANCH  50  51
DOCKED: ATOM     51  C32 UNL     1      16.353  -8.263   4.686 +0.00 -0.00    -0.030 A  
DOCKED: ATOM     52  C33 UNL     1      17.171  -7.124   4.731 +0.00 +0.00    +0.006 A  
DOCKED: ATOM     53  C34 UNL     1      18.529  -7.230   5.043 +0.00 +0.00    +0.015 A  
DOCKED: ATOM     54  C35 UNL     1      19.089  -8.482   5.321 +0.00 +0.00    +0.059 A  
DOCKED: ATOM     55  C37 UNL     1      18.282  -9.625   5.281 +0.00 +0.00    +0.015 A  
DOCKED: ATOM     56  C38 UNL     1      16.923  -9.516   4.960 +0.00 +0.00    +0.006 A  
DOCKED: BRANCH  54  57
DOCKED: ATOM     57  C36 UNL     1      20.536  -8.552   5.647 +0.00 +0.00    +0.337 C  
DOCKED: ATOM     58  O8  UNL     1      21.014  -8.967   6.688 +0.00 -0.00    -0.245 OA 
DOCKED: BRANCH  57  59
DOCKED: ATOM     59  O9  UNL     1      21.318  -8.087   4.659 +0.00 -0.00    -0.477 OA 
DOCKED: ATOM     60  H52 UNL     1      20.694  -7.972   3.909 +0.00 +0.00    +0.295 HD 
DOCKED: ENDBRANCH  57  59
DOCKED: ENDBRANCH  54  57
DOCKED: ENDBRANCH  50  51
DOCKED: ENDBRANCH  48  50
DOCKED: ENDBRANCH  45  46
DOCKED: BRANCH  45  61
DOCKED: ATOM     61  C39 UNL     1      15.212 -12.526   3.463 +0.00 +0.00    +0.012 C  
DOCKED: ATOM     62  C40 UNL     1      15.145 -12.398   4.987 +0.00 +0.00    +0.009 C  
DOCKED: ATOM     63  C41 UNL     1      16.659 -12.277   3.020 +0.00 +0.00    +0.009 C  
DOCKED: ENDBRANCH  45  61
DOCKED: ENDBRANCH  43  45
DOCKED: ENDBRANCH  40  41
DOCKED: ENDBRANCH  37  40
DOCKED: ENDBRANCH   1  37
DOCKED: TORSDOF 26
DOCKED: TER
DOCKED: ENDMDL
________________________________________________________________________________


    FINAL DOCKED STATE:
    ________________________


Run:   3 / 20
Time taken for this run:   3.577s

DOCKED: MODEL        3
DOCKED: USER    Run = 3
DOCKED: USER
DOCKED: USER    Estimated Free Energy of Binding    =  +7.76 kcal/mol  [=(1)+(2)+(3)-(4)]
DOCKED: USER
DOCKED: USER    (1) Final Intermolecular Energy     =  +0.00 kcal/mol
DOCKED: USER        vdW + Hbond + desolv Energy     =  +0.00 kcal/mol
DOCKED: USER        Electrostatic Energy            =  +0.00 kcal/mol
DOCKED: USER        Moving Ligand-Fixed Receptor    =  +0.00 kcal/mol
DOCKED: USER        Moving Ligand-Moving Receptor   =  +0.00 kcal/mol
DOCKED: USER    (2) Final Total Internal Energy     = -17.44 kcal/mol
DOCKED: USER    (3) Torsional Free Energy           =  +7.76 kcal/mol
DOCKED: USER    (4) Unbound System's Energy         = -17.44 kcal/mol
DOCKED: USER
DOCKED: USER
DOCKED: REMARK  Name = ligands/ligand_4.pdb
DOCKED: REMARK  33 active torsions:
DOCKED: REMARK  status: ('A' for Active; 'I' for Inactive)
DOCKED: REMARK    1  A    between atoms: C1_1  and  C2_2
DOCKED: REMARK    2  A    between atoms: C2_2  and  C3_3
DOCKED: REMARK    3  A    between atoms: C3_3  and  C4_4
DOCKED: REMARK    4  A    between atoms: C3_3  and  C5_5
DOCKED: REMARK    5  A    between atoms: C5_5  and  C6_6
DOCKED: REMARK    6  A    between atoms: C6_6  and  N1_7
DOCKED: REMARK    7  A    between atoms: C6_6  and  C15_19
DOCKED: REMARK    8  A    between atoms: C7_8  and  C8_10
DOCKED: REMARK    9  A    between atoms: C8_10  and  C9_11
DOCKED: REMARK   10  A    between atoms: C8_10  and  N2_15
DOCKED: REMARK   11  A    between atoms: C9_11  and  C10_12
DOCKED: REMARK   12  A    between atoms: C10_12  and  C11_13
DOCKED: REMARK   13  A    between atoms: C10_12  and  C12_14
DOCKED: REMARK   14  A    between atoms: C13_16  and  C14_17
DOCKED: REMARK   15  A    between atoms: C15_19  and  O3_20
DOCKED: REMARK   16  A    between atoms: C15_19  and  C16_21
DOCKED: REMARK   17  A    between atoms: C16_21  and  C17_22
DOCKED: REMARK   18  A    between atoms: N3_24  and  C18_25
DOCKED: REMARK   19  A    between atoms: C18_25  and  C19_26
DOCKED: REMARK   20  A    between atoms: C18_25  and  C26_33
DOCKED: REMARK   21  A    between atoms: C19_26  and  C20_27
DOCKED: REMARK   22  A    between atoms: C26_33  and  O5_34
DOCKED: REMARK   23  A    between atoms: C26_33  and  C27_35
DOCKED: REMARK   24  A    between atoms: C27_35  and  C28_36
DOCKED: REMARK   25  A    between atoms: N4_38  and  C29_39
DOCKED: REMARK   26  A    between atoms: C29_39  and  C30_40
DOCKED: REMARK   27  A    between atoms: C29_39  and  C39_53
DOCKED: REMARK   28  A    between atoms: N5_42  and  C31_43
DOCKED: REMARK   29  A    between atoms: C31_43  and  C32_44
DOCKED: REMARK   30  A    between atoms: C35_47  and  C36_48
DOCKED: REMARK   31  A    between atoms: C36_48  and  O9_50
DOCKED: REMARK   32  A    between atoms: C39_53  and  C40_54
DOCKED: REMARK   33  A    between atoms: C39_53  and  C41_55
DOCKED: REMARK                            x       y       z     vdW  Elec       q    Type
DOCKED: REMARK                         _______ _______ _______ _____ _____    ______ ____
DOCKED: USER                              x       y       z     vdW  Elec       q    Type
DOCKED: USER                           _______ _______ _______ _____ _____    ______ ____
DOCKED: ROOT
DOCKED: ATOM      1  C18 UNL     1      12.969  -7.410  -1.078 +0.00 +0.00    +0.106 C  
DOCKED: ENDROOT
DOCKED: BRANCH   1   4
DOCKED: ATOM      2  C17 UNL     1      13.449  -5.518   0.486 +0.00 +0.00    +0.216 C  
DOCKED: ATOM      3  O4  UNL     1      14.611  -5.390   0.109 +0.00 -0.00    -0.276 OA 
DOCKED: ATOM      4  N3  UNL     1      12.595  -6.463  -0.020 +0.00 -0.00    -0.310 N  
DOCKED: ATOM      5  H32 UNL     1      11.655  -6.573   0.339 +0.00 +0.00    +0.149 HD 
DOCKED: BRANCH   2   6
DOCKED: ATOM      6  C16 UNL     1      12.859  -4.613   1.544 +0.00 +0.00    +0.129 C  
DOCKED: BRANCH   6   7
DOCKED: ATOM      7  C15 UNL     1      12.250  -5.344   2.742 +0.00 +0.00    +0.143 C  
DOCKED: BRANCH   7   8
DOCKED: ATOM      8  O3  UNL     1      11.920  -6.690   2.347 +0.00 -0.00    -0.389 OA 
DOCKED: ATOM      9  H29 UNL     1      11.236  -6.640   1.647 +0.00 +0.00    +0.210 HD 
DOCKED: ENDBRANCH   7   8
DOCKED: BRANCH   7  10
DOCKED: ATOM     10  C6  UNL     1      11.028  -4.682   3.444 +0.00 +0.00    +0.102 C  
DOCKED: BRANCH  10  11
DOCKED: ATOM     11  N1  UNL     1       9.798  -5.286   2.913 +0.00 -0.00    -0.308 N  
DOCKED: ATOM     12  C7  UNL     1       8.579  -5.213   3.545 +0.00 +0.00    +0.234 C  
DOCKED: ATOM     13  O1  UNL     1       8.388  -4.554   4.569 +0.00 -0.00    -0.274 OA 
DOCKED: ATOM     14  H13 UNL     1       9.888  -5.819   2.054 +0.00 +0.00    +0.149 HD 
DOCKED: BRANCH  12  15
DOCKED: ATOM     15  C8  UNL     1       7.453  -6.016   2.847 +0.00 +0.00    +0.159 C  
DOCKED: BRANCH  15  16
DOCKED: ATOM     16  N2  UNL     1       7.852  -7.417   2.894 +0.00 -0.00    -0.304 N  
DOCKED: ATOM     17  C13 UNL     1       8.894  -7.860   2.108 +0.00 +0.00    +0.211 C  
DOCKED: ATOM     18  C14 UNL     1       9.374  -9.240   2.464 +0.00 +0.00    +0.109 C  
DOCKED: ATOM     19  O2  UNL     1       9.397  -7.197   1.204 +0.00 -0.00    -0.276 OA 
DOCKED: ATOM     20  H24 UNL     1       7.790  -7.845   3.813 +0.00 +0.00    +0.149 HD 
DOCKED: ENDBRANCH  15  16
DOCKED: BRANCH  15  21
DOCKED: ATOM     21  C9  UNL     1       6.109  -5.780   3.553 +0.00 +0.00    +0.034 C  
DOCKED: BRANCH  21  22
DOCKED: ATOM     22  C10 UNL     1       4.832  -5.962   2.706 +0.00 -0.00    -0.015 C  
DOCKED: ATOM     23  C11 UNL     1       5.021  -6.910   1.520 +0.00 +0.00    +0.007 C  
DOCKED: ATOM     24  C12 UNL     1       4.238  -4.634   2.236 +0.00 +0.00    +0.007 C  
DOCKED: ENDBRANCH  21  22
DOCKED: ENDBRANCH  15  21
DOCKED: ENDBRANCH  12  15
DOCKED: ENDBRANCH  10  11
DOCKED: BRANCH  10  25
DOCKED: ATOM     25  C5  UNL     1      11.007  -4.863   4.982 +0.00 +0.00    +0.028 C  
DOCKED: BRANCH  25  26
DOCKED: ATOM     26  C3  UNL     1      11.639  -6.153   5.533 +0.00 -0.00    -0.013 C  
DOCKED: ATOM     27  C4  UNL     1      11.923  -6.010   7.032 +0.00 +0.00    +0.007 C  
DOCKED: BRANCH  26  29
DOCKED: ATOM     28  C1  UNL     1      11.566  -8.687   4.936 +0.00 +0.00    +0.004 C  
DOCKED: ATOM     29  C2  UNL     1      10.789  -7.408   5.236 +0.00 -0.00    -0.000 C  
DOCKED: ENDBRANCH  26  29
DOCKED: ENDBRANCH  25  26
DOCKED: ENDBRANCH  10  25
DOCKED: ENDBRANCH   7  10
DOCKED: ENDBRANCH   6   7
DOCKED: ENDBRANCH   2   6
DOCKED: ENDBRANCH   1   4
DOCKED: BRANCH   1  30
DOCKED: ATOM     30  C19 UNL     1      14.362  -8.029  -0.800 +0.00 +0.00    +0.060 C  
DOCKED: BRANCH  30  31
DOCKED: ATOM     31  C20 UNL     1      14.688  -8.434   0.624 +0.00 -0.00    -0.046 A  
DOCKED: ATOM     32  C21 UNL     1      15.901  -8.013   1.193 +0.00 +0.00    +0.004 A  
DOCKED: ATOM     33  C22 UNL     1      16.201  -8.286   2.529 +0.00 +0.00    +0.000 A  
DOCKED: ATOM     34  C23 UNL     1      15.308  -9.014   3.312 +0.00 +0.00    +0.000 A  
DOCKED: ATOM     35  C24 UNL     1      14.101  -9.434   2.762 +0.00 +0.00    +0.000 A  
DOCKED: ATOM     36  C25 UNL     1      13.782  -9.124   1.437 +0.00 +0.00    +0.004 A  
DOCKED: ENDBRANCH  30  31
DOCKED: ENDBRANCH   1  30
DOCKED: BRANCH   1  37
DOCKED: ATOM     37  C26 UNL     1      11.896  -8.528  -1.161 +0.00 +0.00    +0.144 C  
DOCKED: BRANCH  37  38
DOCKED: ATOM     38  O5  UNL     1      10.956  -8.339  -0.089 +0.00 -0.00    -0.389 OA 
DOCKED: ATOM     39  H42 UNL     1      11.466  -7.939   0.645 +0.00 +0.00    +0.210 HD 
DOCKED: ENDBRANCH  37  38
DOCKED: BRANCH  37  40
DOCKED: ATOM     40  C27 UNL     1      11.137  -8.496  -2.492 +0.00 +0.00    +0.129 C  
DOCKED: BRANCH  40  41
DOCKED: ATOM     41  C28 UNL     1      10.694  -7.086  -2.819 +0.00 +0.00    +0.216 C  
DOCKED: ATOM     42  O6  UNL     1      10.869  -6.564  -3.917 +0.00 -0.00    -0.276 OA 
DOCKED: ATOM     43  N4  UNL     1      10.073  -6.458  -1.768 +0.00 -0.00    -0.304 N  
DOCKED: ATOM     44  H45 UNL     1      10.023  -6.910  -0.858 +0.00 +0.00    +0.149 HD 
DOCKED: BRANCH  43  45
DOCKED: ATOM     45  C29 UNL     1       9.522  -5.104  -1.840 +0.00 +0.00    +0.161 C  
DOCKED: BRANCH  45  46
DOCKED: ATOM     46  C30 UNL     1      10.065  -4.400  -0.579 +0.00 +0.00    +0.234 C  
DOCKED: ATOM     47  O7  UNL     1      10.364  -5.033   0.433 +0.00 -0.00    -0.274 OA 
DOCKED: ATOM     48  N5  UNL     1      10.166  -3.030  -0.663 +0.00 -0.00    -0.310 N  
DOCKED: ATOM     49  H47 UNL     1       9.786  -2.561  -1.473 +0.00 +0.00    +0.149 HD 
DOCKED: BRANCH  48  50
DOCKED: ATOM     50  C31 UNL     1      10.450  -2.225   0.502 +0.00 +0.00    +0.139 C  
DOCKED: BRANCH  50  51
DOCKED: ATOM     51  C32 UNL     1       9.248  -2.174   1.414 +0.00 -0.00    -0.030 A  
DOCKED: ATOM     52  C33 UNL     1       9.390  -1.742   2.742 +0.00 +0.00    +0.006 A  
DOCKED: ATOM     53  C34 UNL     1       8.300  -1.747   3.616 +0.00 +0.00    +0.015 A  
DOCKED: ATOM     54  C35 UNL     1       7.047  -2.182   3.171 +0.00 +0.00    +0.059 A  
DOCKED: ATOM     55  C37 UNL     1       6.894  -2.614   1.848 +0.00 +0.00    +0.015 A  
DOCKED: ATOM     56  C38 UNL     1       7.990  -2.614   0.977 +0.00 +0.00    +0.006 A  
DOCKED: BRANCH  54  57
DOCKED: ATOM     57  C36 UNL     1       5.914  -2.174   4.131 +0.00 +0.00    +0.337 C  
DOCKED: ATOM     58  O8  UNL     1       4.889  -1.525   4.022 +0.00 -0.00    -0.245 OA 
DOCKED: BRANCH  57  59
DOCKED: ATOM     59  O9  UNL     1       6.123  -2.970   5.193 +0.00 -0.00    -0.477 OA 
DOCKED: ATOM     60  H52 UNL     1       6.968  -3.422   4.977 +0.00 +0.00    +0.295 HD 
DOCKED: ENDBRANCH  57  59
DOCKED: ENDBRANCH  54  57
DOCKED: ENDBRANCH  50  51
DOCKED: ENDBRANCH  48  50
DOCKED: ENDBRANCH  45  46
DOCKED: BRANCH  45  61
DOCKED: ATOM     61  C39 UNL     1       7.974  -5.124  -1.854 +0.00 +0.00    +0.012 C  
DOCKED: ATOM     62  C40 UNL     1       7.379  -3.749  -2.167 +0.00 +0.00    +0.009 C  
DOCKED: ATOM     63  C41 UNL     1       7.395  -5.609  -0.520 +0.00 +0.00    +0.009 C  
DOCKED: ENDBRANCH  45  61
DOCKED: ENDBRANCH  43  45
DOCKED: ENDBRANCH  40  41
DOCKED: ENDBRANCH  37  40
DOCKED: ENDBRANCH   1  37
DOCKED: TORSDOF 26
DOCKED: TER
DOCKED: ENDMDL
________________________________________________________________________________


    FINAL DOCKED STATE:
    ________________________


Run:   4 / 20
Time taken for this run:   3.577s

DOCKED: MODEL        4
DOCKED: USER    Run = 4
DOCKED: USER
DOCKED: USER    Estimated Free Energy of Binding    =  +7.76 kcal/mol  [=(1)+(2)+(3)-(4)]
DOCKED: USER
DOCKED: USER    (1) Final Intermolecular Energy     =  +0.00 kcal/mol
DOCKED: USER        vdW + Hbond + desolv Energy     =  +0.00 kcal/mol
DOCKED: USER        Electrostatic Energy            =  +0.00 kcal/mol
DOCKED: USER        Moving Ligand-Fixed Receptor    =  +0.00 kcal/mol
DOCKED: USER        Moving Ligand-Moving Receptor   =  +0.00 kcal/mol
DOCKED: USER    (2) Final Total Internal Energy     = -17.81 kcal/mol
DOCKED: USER    (3) Torsional Free Energy           =  +7.76 kcal/mol
DOCKED: USER    (4) Unbound System's Energy         = -17.81 kcal/mol
DOCKED: USER
DOCKED: USER
DOCKED: REMARK  Name = ligands/ligand_4.pdb
DOCKED: REMARK  33 active torsions:
DOCKED: REMARK  status: ('A' for Active; 'I' for Inactive)
DOCKED: REMARK    1  A    between atoms: C1_1  and  C2_2
DOCKED: REMARK    2  A    between atoms: C2_2  and  C3_3
DOCKED: REMARK    3  A    between atoms: C3_3  and  C4_4
DOCKED: REMARK    4  A    between atoms: C3_3  and  C5_5
DOCKED: REMARK    5  A    between atoms: C5_5  and  C6_6
DOCKED: REMARK    6  A    between atoms: C6_6  and  N1_7
DOCKED: REMARK    7  A    between atoms: C6_6  and  C15_19
DOCKED: REMARK    8  A    between atoms: C7_8  and  C8_10
DOCKED: REMARK    9  A    between atoms: C8_10  and  C9_11
DOCKED: REMARK   10  A    between atoms: C8_10  and  N2_15
DOCKED: REMARK   11  A    between atoms: C9_11  and  C10_12
DOCKED: REMARK   12  A    between atoms: C10_12  and  C11_13
DOCKED: REMARK   13  A    between atoms: C10_12  and  C12_14
DOCKED: REMARK   14  A    between atoms: C13_16  and  C14_17
DOCKED: REMARK   15  A    between atoms: C15_19  and  O3_20
DOCKED: REMARK   16  A    between atoms: C15_19  and  C16_21
DOCKED: REMARK   17  A    between atoms: C16_21  and  C17_22
DOCKED: REMARK   18  A    between atoms: N3_24  and  C18_25
DOCKED: REMARK   19  A    between atoms: C18_25  and  C19_26
DOCKED: REMARK   20  A    between atoms: C18_25  and  C26_33
DOCKED: REMARK   21  A    between atoms: C19_26  and  C20_27
DOCKED: REMARK   22  A    between atoms: C26_33  and  O5_34
DOCKED: REMARK   23  A    between atoms: C26_33  and  C27_35
DOCKED: REMARK   24  A    between atoms: C27_35  and  C28_36
DOCKED: REMARK   25  A    between atoms: N4_38  and  C29_39
DOCKED: REMARK   26  A    between atoms: C29_39  and  C30_40
DOCKED: REMARK   27  A    between atoms: C29_39  and  C39_53
DOCKED: REMARK   28  A    between atoms: N5_42  and  C31_43
DOCKED: REMARK   29  A    between atoms: C31_43  and  C32_44
DOCKED: REMARK   30  A    between atoms: C35_47  and  C36_48
DOCKED: REMARK   31  A    between atoms: C36_48  and  O9_50
DOCKED: REMARK   32  A    between atoms: C39_53  and  C40_54
DOCKED: REMARK   33  A    between atoms: C39_53  and  C41_55
DOCKED: REMARK                            x       y       z     vdW  Elec       q    Type
DOCKED: REMARK                         _______ _______ _______ _____ _____    ______ ____
DOCKED: USER                              x       y       z     vdW  Elec       q    Type
DOCKED: USER                           _______ _______ _______ _____ _____    ______ ____
DOCKED: ROOT
DOCKED: ATOM      1  C18 UNL     1      10.930  -0.436  -6.055 +0.00 +0.00    +0.106 C  
DOCKED: ENDROOT
DOCKED: BRANCH   1   4
DOCKED: ATOM      2  C17 UNL     1      10.532  -0.173  -8.510 +0.00 +0.00    +0.216 C  
DOCKED: ATOM      3  O4  UNL     1       9.309  -0.221  -8.403 +0.00 -0.00    -0.276 OA 
DOCKED: ATOM      4  N3  UNL     1      11.385  -0.276  -7.441 +0.00 -0.00    -0.310 N  
DOCKED: ATOM      5  H32 UNL     1      12.389  -0.275  -7.564 +0.00 +0.00    +0.149 HD 
DOCKED: BRANCH   2   6
DOCKED: ATOM      6  C16 UNL     1      11.199   0.027  -9.852 +0.00 +0.00    +0.129 C  
DOCKED: BRANCH   6   7
DOCKED: ATOM      7  C15 UNL     1      12.376   1.003  -9.841 +0.00 +0.00    +0.143 C  
DOCKED: BRANCH   7   8
DOCKED: ATOM      8  O3  UNL     1      13.395   0.494  -8.958 +0.00 -0.00    -0.389 OA 
DOCKED: ATOM      9  H29 UNL     1      13.193   0.807  -8.052 +0.00 +0.00    +0.210 HD 
DOCKED: ENDBRANCH   7   8
DOCKED: BRANCH   7  10
DOCKED: ATOM     10  C6  UNL     1      12.074   2.491  -9.500 +0.00 +0.00    +0.102 C  
DOCKED: BRANCH  10  11
DOCKED: ATOM     11  N1  UNL     1      12.569   2.772  -8.145 +0.00 -0.00    -0.308 N  
DOCKED: ATOM     12  C7  UNL     1      12.402   3.979  -7.507 +0.00 +0.00    +0.234 C  
DOCKED: ATOM     13  O1  UNL     1      11.739   4.905  -7.977 +0.00 -0.00    -0.274 OA 
DOCKED: ATOM     14  H13 UNL     1      13.100   2.034  -7.693 +0.00 +0.00    +0.149 HD 
DOCKED: BRANCH  12  15
DOCKED: ATOM     15  C8  UNL     1      13.103   4.071  -6.128 +0.00 +0.00    +0.159 C  
DOCKED: BRANCH  15  16
DOCKED: ATOM     16  N2  UNL     1      14.532   4.175  -6.395 +0.00 -0.00    -0.304 N  
DOCKED: ATOM     17  C13 UNL     1      15.207   3.105  -6.941 +0.00 +0.00    +0.211 C  
DOCKED: ATOM     18  C14 UNL     1      16.592   3.445  -7.419 +0.00 +0.00    +0.109 C  
DOCKED: ATOM     19  O2  UNL     1      14.732   1.975  -7.040 +0.00 -0.00    -0.276 OA 
DOCKED: ATOM     20  H24 UNL     1      14.838   5.089  -6.714 +0.00 +0.00    +0.149 HD 
DOCKED: ENDBRANCH  15  16
DOCKED: BRANCH  15  21
DOCKED: ATOM     21  C9  UNL     1      12.578   5.280  -5.339 +0.00 +0.00    +0.034 C  
DOCKED: BRANCH  21  22
DOCKED: ATOM     22  C10 UNL     1      12.775   5.255  -3.809 +0.00 -0.00    -0.015 C  
DOCKED: ATOM     23  C11 UNL     1      13.727   4.154  -3.337 +0.00 +0.00    +0.007 C  
DOCKED: ATOM     24  C12 UNL     1      11.454   5.182  -3.043 +0.00 +0.00    +0.007 C  
DOCKED: ENDBRANCH  21  22
DOCKED: ENDBRANCH  15  21
DOCKED: ENDBRANCH  12  15
DOCKED: ENDBRANCH  10  11
DOCKED: BRANCH  10  25
DOCKED: ATOM     25  C5  UNL     1      12.742   3.509 -10.457 +0.00 +0.00    +0.028 C  
DOCKED: BRANCH  25  26
DOCKED: ATOM     26  C3  UNL     1      14.253   3.736 -10.277 +0.00 -0.00    -0.013 C  
DOCKED: ATOM     27  C4  UNL     1      15.046   2.823 -11.218 +0.00 +0.00    +0.007 C  
DOCKED: BRANCH  26  29
DOCKED: ATOM     28  C1  UNL     1      14.691   6.055  -9.177 +0.00 +0.00    +0.004 C  
DOCKED: ATOM     29  C2  UNL     1      14.659   5.217 -10.451 +0.00 -0.00    -0.000 C  
DOCKED: ENDBRANCH  26  29
DOCKED: ENDBRANCH  25  26
DOCKED: ENDBRANCH  10  25
DOCKED: ENDBRANCH   7  10
DOCKED: ENDBRANCH   6   7
DOCKED: ENDBRANCH   2   6
DOCKED: ENDBRANCH   1   4
DOCKED: BRANCH   1  30
DOCKED: ATOM     30  C19 UNL     1      10.874  -1.934  -5.660 +0.00 +0.00    +0.060 C  
DOCKED: BRANCH  30  31
DOCKED: ATOM     31  C20 UNL     1      11.041  -2.290  -4.196 +0.00 -0.00    -0.046 A  
DOCKED: ATOM     32  C21 UNL     1      12.260  -2.836  -3.760 +0.00 +0.00    +0.004 A  
DOCKED: ATOM     33  C22 UNL     1      12.489  -3.094  -2.407 +0.00 +0.00    +0.000 A  
DOCKED: ATOM     34  C23 UNL     1      11.492  -2.840  -1.469 +0.00 +0.00    +0.000 A  
DOCKED: ATOM     35  C24 UNL     1      10.282  -2.296  -1.885 +0.00 +0.00    +0.000 A  
DOCKED: ATOM     36  C25 UNL     1      10.068  -1.998  -3.234 +0.00 +0.00    +0.004 A  
DOCKED: ENDBRANCH  30  31
DOCKED: ENDBRANCH   1  30
DOCKED: BRANCH   1  37
DOCKED: ATOM     37  C26 UNL     1      11.898   0.327  -5.111 +0.00 +0.00    +0.144 C  
DOCKED: BRANCH  37  38
DOCKED: ATOM     38  O5  UNL     1      12.746   1.169  -5.912 +0.00 -0.00    -0.389 OA 
DOCKED: ATOM     39  H42 UNL     1      13.078   0.599  -6.637 +0.00 +0.00    +0.210 HD 
DOCKED: ENDBRANCH  37  38
DOCKED: BRANCH  37  40
DOCKED: ATOM     40  C27 UNL     1      11.144   1.204  -4.106 +0.00 +0.00    +0.129 C  
DOCKED: BRANCH  40  41
DOCKED: ATOM     41  C28 UNL     1      11.707   1.021  -2.712 +0.00 +0.00    +0.216 C  
DOCKED: ATOM     42  O6  UNL     1      12.297   0.006  -2.354 +0.00 -0.00    -0.276 OA 
DOCKED: ATOM     43  N4  UNL     1      11.494   2.106  -1.899 +0.00 -0.00    -0.304 N  
DOCKED: ATOM     44  H45 UNL     1      10.933   2.888  -2.225 +0.00 +0.00    +0.149 HD 
DOCKED: BRANCH  43  45
DOCKED: ATOM     45  C29 UNL     1      11.971   2.192  -0.518 +0.00 +0.00    +0.161 C  
DOCKED: BRANCH  45  46
DOCKED: ATOM     46  C30 UNL     1      13.481   1.888  -0.612 +0.00 +0.00    +0.234 C  
DOCKED: ATOM     47  O7  UNL     1      14.302   2.774  -0.842 +0.00 -0.00    -0.274 OA 
DOCKED: ATOM     48  N5  UNL     1      13.829   0.568  -0.446 +0.00 -0.00    -0.310 N  
DOCKED: ATOM     49  H47 UNL     1      13.099  -0.127  -0.387 +0.00 +0.00    +0.149 HD 
DOCKED: BRANCH  48  50
DOCKED: ATOM     50  C31 UNL     1      15.170   0.105  -0.720 +0.00 +0.00    +0.139 C  
DOCKED: BRANCH  50  51
DOCKED: ATOM     51  C32 UNL     1      15.342  -0.168  -2.195 +0.00 -0.00    -0.030 A  
DOCKED: ATOM     52  C33 UNL     1      15.379   0.896  -3.108 +0.00 +0.00    +0.006 A  
DOCKED: ATOM     53  C34 UNL     1      15.476   0.657  -4.481 +0.00 +0.00    +0.015 A  
DOCKED: ATOM     54  C35 UNL     1      15.543  -0.655  -4.962 +0.00 +0.00    +0.059 A  
DOCKED: ATOM     55  C37 UNL     1      15.509  -1.725  -4.059 +0.00 +0.00    +0.015 A  
DOCKED: ATOM     56  C38 UNL     1      15.404  -1.482  -2.684 +0.00 +0.00    +0.006 A  
DOCKED: BRANCH  54  57
DOCKED: ATOM     57  C36 UNL     1      15.644  -0.867  -6.428 +0.00 +0.00    +0.337 C  
DOCKED: ATOM     58  O8  UNL     1      16.645  -1.210  -7.033 +0.00 -0.00    -0.245 OA 
DOCKED: BRANCH  57  59
DOCKED: ATOM     59  O9  UNL     1      14.490  -0.627  -7.072 +0.00 -0.00    -0.477 OA 
DOCKED: ATOM     60  H52 UNL     1      14.421   0.353  -7.058 +0.00 +0.00    +0.295 HD 
DOCKED: ENDBRANCH  57  59
DOCKED: ENDBRANCH  54  57
DOCKED: ENDBRANCH  50  51
DOCKED: ENDBRANCH  48  50
DOCKED: ENDBRANCH  45  46
DOCKED: BRANCH  45  61
DOCKED: ATOM     61  C39 UNL     1      11.244   1.174   0.394 +0.00 +0.00    +0.012 C  
DOCKED: ATOM     62  C40 UNL     1       9.741   1.109   0.109 +0.00 +0.00    +0.009 C  
DOCKED: ATOM     63  C41 UNL     1      11.440   1.494   1.880 +0.00 +0.00    +0.009 C  
DOCKED: ENDBRANCH  45  61
DOCKED: ENDBRANCH  43  45
DOCKED: ENDBRANCH  40  41
DOCKED: ENDBRANCH  37  40
DOCKED: ENDBRANCH   1  37
DOCKED: TORSDOF 26
DOCKED: TER
DOCKED: ENDMDL
________________________________________________________________________________


    FINAL DOCKED STATE:
    ________________________


Run:   5 / 20
Time taken for this run:   3.577s

DOCKED: MODEL        5
DOCKED: USER    Run = 5
DOCKED: USER
DOCKED: USER    Estimated Free Energy of Binding    =  +7.76 kcal/mol  [=(1)+(2)+(3)-(4)]
DOCKED: USER
DOCKED: USER    (1) Final Intermolecular Energy     =  +0.00 kcal/mol
DOCKED: USER        vdW + Hbond + desolv Energy     =  +0.00 kcal/mol
DOCKED: USER        Electrostatic Energy            =  +0.00 kcal/mol
DOCKED: USER        Moving Ligand-Fixed Receptor    =  +0.00 kcal/mol
DOCKED: USER        Moving Ligand-Moving Receptor   =  +0.00 kcal/mol
DOCKED: USER    (2) Final Total Internal Energy     = -17.83 kcal/mol
DOCKED: USER    (3) Torsional Free Energy           =  +7.76 kcal/mol
DOCKED: USER    (4) Unbound System's Energy         = -17.83 kcal/mol
DOCKED: USER
DOCKED: USER
DOCKED: REMARK  Name = ligands/ligand_4.pdb
DOCKED: REMARK  33 active torsions:
DOCKED: REMARK  status: ('A' for Active; 'I' for Inactive)
DOCKED: REMARK    1  A    between atoms: C1_1  and  C2_2
DOCKED: REMARK    2  A    between atoms: C2_2  and  C3_3
DOCKED: REMARK    3  A    between atoms: C3_3  and  C4_4
DOCKED: REMARK    4  A    between atoms: C3_3  and  C5_5
DOCKED: REMARK    5  A    between atoms: C5_5  and  C6_6
DOCKED: REMARK    6  A    between atoms: C6_6  and  N1_7
DOCKED: REMARK    7  A    between atoms: C6_6  and  C15_19
DOCKED: REMARK    8  A    between atoms: C7_8  and  C8_10
DOCKED: REMARK    9  A    between atoms: C8_10  and  C9_11
DOCKED: REMARK   10  A    between atoms: C8_10  and  N2_15
DOCKED: REMARK   11  A    between atoms: C9_11  and  C10_12
DOCKED: REMARK   12  A    between atoms: C10_12  and  C11_13
DOCKED: REMARK   13  A    between atoms: C10_12  and  C12_14
DOCKED: REMARK   14  A    between atoms: C13_16  and  C14_17
DOCKED: REMARK   15  A    between atoms: C15_19  and  O3_20
DOCKED: REMARK   16  A    between atoms: C15_19  and  C16_21
DOCKED: REMARK   17  A    between atoms: C16_21  and  C17_22
DOCKED: REMARK   18  A    between atoms: N3_24  and  C18_25
DOCKED: REMARK   19  A    between atoms: C18_25  and  C19_26
DOCKED: REMARK   20  A    between atoms: C18_25  and  C26_33
DOCKED: REMARK   21  A    between atoms: C19_26  and  C20_27
DOCKED: REMARK   22  A    between atoms: C26_33  and  O5_34
DOCKED: REMARK   23  A    between atoms: C26_33  and  C27_35
DOCKED: REMARK   24  A    between atoms: C27_35  and  C28_36
DOCKED: REMARK   25  A    between atoms: N4_38  and  C29_39
DOCKED: REMARK   26  A    between atoms: C29_39  and  C30_40
DOCKED: REMARK   27  A    between atoms: C29_39  and  C39_53
DOCKED: REMARK   28  A    between atoms: N5_42  and  C31_43
DOCKED: REMARK   29  A    between atoms: C31_43  and  C32_44
DOCKED: REMARK   30  A    between atoms: C35_47  and  C36_48
DOCKED: REMARK   31  A    between atoms: C36_48  and  O9_50
DOCKED: REMARK   32  A    between atoms: C39_53  and  C40_54
DOCKED: REMARK   33  A    between atoms: C39_53  and  C41_55
DOCKED: REMARK                            x       y       z     vdW  Elec       q    Type
DOCKED: REMARK                         _______ _______ _______ _____ _____    ______ ____
DOCKED: USER                              x       y       z     vdW  Elec       q    Type
DOCKED: USER                           _______ _______ _______ _____ _____    ______ ____
DOCKED: ROOT
DOCKED: ATOM      1  C18 UNL     1      12.169  -4.901  -9.208 +0.00 +0.00    +0.106 C  
DOCKED: ENDROOT
DOCKED: BRANCH   1   4
DOCKED: ATOM      2  C17 UNL     1      10.882  -2.769  -9.440 +0.00 +0.00    +0.216 C  
DOCKED: ATOM      3  O4  UNL     1      10.055  -3.252 -10.209 +0.00 -0.00    -0.276 OA 
DOCKED: ATOM      4  N3  UNL     1      11.931  -3.481  -8.918 +0.00 -0.00    -0.310 N  
DOCKED: ATOM      5  H32 UNL     1      12.620  -3.046  -8.319 +0.00 +0.00    +0.149 HD 
DOCKED: BRANCH   2   6
DOCKED: ATOM      6  C16 UNL     1      10.790  -1.329  -8.987 +0.00 +0.00    +0.129 C  
DOCKED: BRANCH   6   7
DOCKED: ATOM      7  C15 UNL     1      11.063  -1.109  -7.498 +0.00 +0.00    +0.143 C  
DOCKED: BRANCH   7   8
DOCKED: ATOM      8  O3  UNL     1      12.411  -1.524  -7.206 +0.00 -0.00    -0.389 OA 
DOCKED: ATOM      9  H29 UNL     1      12.397  -2.485  -7.017 +0.00 +0.00    +0.210 HD 
DOCKED: ENDBRANCH   7   8
DOCKED: BRANCH   7  10
DOCKED: ATOM     10  C6  UNL     1      10.076  -1.756  -6.483 +0.00 +0.00    +0.102 C  
DOCKED: BRANCH  10  11
DOCKED: ATOM     11  N1  UNL     1      10.748  -2.890  -5.833 +0.00 -0.00    -0.308 N  
DOCKED: ATOM     12  C7  UNL     1      10.131  -3.730  -4.937 +0.00 +0.00    +0.234 C  
DOCKED: ATOM     13  O1  UNL     1       8.930  -3.665  -4.668 +0.00 -0.00    -0.274 OA 
DOCKED: ATOM     14  H13 UNL     1      11.734  -3.013  -6.040 +0.00 +0.00    +0.149 HD 
DOCKED: BRANCH  12  15
DOCKED: ATOM     15  C8  UNL     1      11.071  -4.787  -4.305 +0.00 +0.00    +0.159 C  
DOCKED: BRANCH  15  16
DOCKED: ATOM     16  N2  UNL     1      11.950  -4.068  -3.392 +0.00 -0.00    -0.304 N  
DOCKED: ATOM     17  C13 UNL     1      12.886  -3.189  -3.892 +0.00 +0.00    +0.211 C  
DOCKED: ATOM     18  C14 UNL     1      13.519  -2.319  -2.841 +0.00 +0.00    +0.109 C  
DOCKED: ATOM     19  O2  UNL     1      13.181  -3.109  -5.083 +0.00 -0.00    -0.276 OA 
DOCKED: ATOM     20  H24 UNL     1      11.515  -3.787  -2.519 +0.00 +0.00    +0.149 HD 
DOCKED: ENDBRANCH  15  16
DOCKED: BRANCH  15  21
DOCKED: ATOM     21  C9  UNL     1      10.253  -5.868  -3.581 +0.00 +0.00    +0.034 C  
DOCKED: BRANCH  21  22
DOCKED: ATOM     22  C10 UNL     1      10.950  -7.222  -3.332 +0.00 -0.00    -0.015 C  
DOCKED: ATOM     23  C11 UNL     1      12.451  -7.196  -3.628 +0.00 +0.00    +0.007 C  
DOCKED: ATOM     24  C12 UNL     1      10.281  -8.378  -4.075 +0.00 +0.00    +0.007 C  
DOCKED: ENDBRANCH  21  22
DOCKED: ENDBRANCH  15  21
DOCKED: ENDBRANCH  12  15
DOCKED: ENDBRANCH  10  11
DOCKED: BRANCH  10  25
DOCKED: ATOM     25  C5  UNL     1       9.600  -0.797  -5.364 +0.00 +0.00    +0.028 C  
DOCKED: BRANCH  25  26
DOCKED: ATOM     26  C3  UNL     1      10.601  -0.508  -4.231 +0.00 -0.00    -0.013 C  
DOCKED: ATOM     27  C4  UNL     1      11.389   0.771  -4.527 +0.00 +0.00    +0.007 C  
DOCKED: BRANCH  26  29
DOCKED: ATOM     28  C1  UNL     1       9.974  -1.734  -2.020 +0.00 +0.00    +0.004 C  
DOCKED: ATOM     29  C2  UNL     1       9.928  -0.449  -2.841 +0.00 -0.00    -0.000 C  
DOCKED: ENDBRANCH  26  29
DOCKED: ENDBRANCH  25  26
DOCKED: ENDBRANCH  10  25
DOCKED: ENDBRANCH   7  10
DOCKED: ENDBRANCH   6   7
DOCKED: ENDBRANCH   2   6
DOCKED: ENDBRANCH   1   4
DOCKED: BRANCH   1  30
DOCKED: ATOM     30  C19 UNL     1      13.167  -5.067 -10.382 +0.00 +0.00    +0.060 C  
DOCKED: BRANCH  30  31
DOCKED: ATOM     31  C20 UNL     1      13.967  -6.352 -10.457 +0.00 -0.00    -0.046 A  
DOCKED: ATOM     32  C21 UNL     1      15.327  -6.332 -10.106 +0.00 +0.00    +0.004 A  
DOCKED: ATOM     33  C22 UNL     1      16.079  -7.508 -10.075 +0.00 +0.00    +0.000 A  
DOCKED: ATOM     34  C23 UNL     1      15.493  -8.722 -10.425 +0.00 +0.00    +0.000 A  
DOCKED: ATOM     35  C24 UNL     1      14.147  -8.758 -10.771 +0.00 +0.00    +0.000 A  
DOCKED: ATOM     36  C25 UNL     1      13.383  -7.587 -10.761 +0.00 +0.00    +0.004 A  
DOCKED: ENDBRANCH  30  31
DOCKED: ENDBRANCH   1  30
DOCKED: BRANCH   1  37
DOCKED: ATOM     37  C26 UNL     1      12.725  -5.592  -7.934 +0.00 +0.00    +0.144 C  
DOCKED: BRANCH  37  38
DOCKED: ATOM     38  O5  UNL     1      12.582  -4.688  -6.824 +0.00 -0.00    -0.389 OA 
DOCKED: ATOM     39  H42 UNL     1      12.922  -3.825  -7.139 +0.00 +0.00    +0.210 HD 
DOCKED: ENDBRANCH  37  38
DOCKED: BRANCH  37  40
DOCKED: ATOM     40  C27 UNL     1      11.975  -6.888  -7.611 +0.00 +0.00    +0.129 C  
DOCKED: BRANCH  40  41
DOCKED: ATOM     41  C28 UNL     1      12.948  -8.010  -7.319 +0.00 +0.00    +0.216 C  
DOCKED: ATOM     42  O6  UNL     1      14.085  -8.050  -7.780 +0.00 -0.00    -0.276 OA 
DOCKED: ATOM     43  N4  UNL     1      12.430  -8.967  -6.482 +0.00 -0.00    -0.304 N  
DOCKED: ATOM     44  H45 UNL     1      11.457  -8.922  -6.192 +0.00 +0.00    +0.149 HD 
DOCKED: BRANCH  43  45
DOCKED: ATOM     45  C29 UNL     1      13.182 -10.135  -6.020 +0.00 +0.00    +0.161 C  
DOCKED: BRANCH  45  46
DOCKED: ATOM     46  C30 UNL     1      14.451  -9.543  -5.371 +0.00 +0.00    +0.234 C  
DOCKED: ATOM     47  O7  UNL     1      14.479  -9.231  -4.181 +0.00 -0.00    -0.274 OA 
DOCKED: ATOM     48  N5  UNL     1      15.523  -9.373  -6.216 +0.00 -0.00    -0.310 N  
DOCKED: ATOM     49  H47 UNL     1      15.395  -9.530  -7.205 +0.00 +0.00    +0.149 HD 
DOCKED: BRANCH  48  50
DOCKED: ATOM     50  C31 UNL     1      16.695  -8.636  -5.803 +0.00 +0.00    +0.139 C  
DOCKED: BRANCH  50  51
DOCKED: ATOM     51  C32 UNL     1      16.495  -7.157  -6.031 +0.00 -0.00    -0.030 A  
DOCKED: ATOM     52  C33 UNL     1      15.575  -6.442  -5.250 +0.00 +0.00    +0.006 A  
DOCKED: ATOM     53  C34 UNL     1      15.334  -5.087  -5.490 +0.00 +0.00    +0.015 A  
DOCKED: ATOM     54  C35 UNL     1      16.017  -4.424  -6.516 +0.00 +0.00    +0.059 A  
DOCKED: ATOM     55  C37 UNL     1      16.939  -5.127  -7.300 +0.00 +0.00    +0.015 A  
DOCKED: ATOM     56  C38 UNL     1      17.172  -6.487  -7.061 +0.00 +0.00    +0.006 A  
DOCKED: BRANCH  54  57
DOCKED: ATOM     57  C36 UNL     1      15.732  -2.983  -6.740 +0.00 +0.00    +0.337 C  
DOCKED: ATOM     58  O8  UNL     1      16.472  -2.057  -6.460 +0.00 -0.00    -0.245 OA 
DOCKED: BRANCH  57  59
DOCKED: ATOM     59  O9  UNL     1      14.526  -2.769  -7.291 +0.00 -0.00    -0.477 OA 
DOCKED: ATOM     60  H52 UNL     1      13.902  -2.958  -6.556 +0.00 +0.00    +0.295 HD 
DOCKED: ENDBRANCH  57  59
DOCKED: ENDBRANCH  54  57
DOCKED: ENDBRANCH  50  51
DOCKED: ENDBRANCH  48  50
DOCKED: ENDBRANCH  45  46
DOCKED: BRANCH  45  61
DOCKED: ATOM     61  C39 UNL     1      13.535 -11.080  -7.194 +0.00 +0.00    +0.012 C  
DOCKED: ATOM     62  C40 UNL     1      12.343 -11.322  -8.124 +0.00 +0.00    +0.009 C  
DOCKED: ATOM     63  C41 UNL     1      14.047 -12.438  -6.702 +0.00 +0.00    +0.009 C  
DOCKED: ENDBRANCH  45  61
DOCKED: ENDBRANCH  43  45
DOCKED: ENDBRANCH  40  41
DOCKED: ENDBRANCH  37  40
DOCKED: ENDBRANCH   1  37
DOCKED: TORSDOF 26
DOCKED: TER
DOCKED: ENDMDL
________________________________________________________________________________


    FINAL DOCKED STATE:
    ________________________


Run:   6 / 20
Time taken for this run:   3.577s

DOCKED: MODEL        6
DOCKED: USER    Run = 6
DOCKED: USER
DOCKED: USER    Estimated Free Energy of Binding    =  +7.76 kcal/mol  [=(1)+(2)+(3)-(4)]
DOCKED: USER
DOCKED: USER    (1) Final Intermolecular Energy     =  +0.00 kcal/mol
DOCKED: USER        vdW + Hbond + desolv Energy     =  +0.00 kcal/mol
DOCKED: USER        Electrostatic Energy            =  +0.00 kcal/mol
DOCKED: USER        Moving Ligand-Fixed Receptor    =  +0.00 kcal/mol
DOCKED: USER        Moving Ligand-Moving Receptor   =  +0.00 kcal/mol
DOCKED: USER    (2) Final Total Internal Energy     = -17.84 kcal/mol
DOCKED: USER    (3) Torsional Free Energy           =  +7.76 kcal/mol
DOCKED: USER    (4) Unbound System's Energy         = -17.84 kcal/mol
DOCKED: USER
DOCKED: USER
DOCKED: REMARK  Name = ligands/ligand_4.pdb
DOCKED: REMARK  33 active torsions:
DOCKED: REMARK  status: ('A' for Active; 'I' for Inactive)
DOCKED: REMARK    1  A    between atoms: C1_1  and  C2_2
DOCKED: REMARK    2  A    between atoms: C2_2  and  C3_3
DOCKED: REMARK    3  A    between atoms: C3_3  and  C4_4
DOCKED: REMARK    4  A    between atoms: C3_3  and  C5_5
DOCKED: REMARK    5  A    between atoms: C5_5  and  C6_6
DOCKED: REMARK    6  A    between atoms: C6_6  and  N1_7
DOCKED: REMARK    7  A    between atoms: C6_6  and  C15_19
DOCKED: REMARK    8  A    between atoms: C7_8  and  C8_10
DOCKED: REMARK    9  A    between atoms: C8_10  and  C9_11
DOCKED: REMARK   10  A    between atoms: C8_10  and  N2_15
DOCKED: REMARK   11  A    between atoms: C9_11  and  C10_12
DOCKED: REMARK   12  A    between atoms: C10_12  and  C11_13
DOCKED: REMARK   13  A    between atoms: C10_12  and  C12_14
DOCKED: REMARK   14  A    between atoms: C13_16  and  C14_17
DOCKED: REMARK   15  A    between atoms: C15_19  and  O3_20
DOCKED: REMARK   16  A    between atoms: C15_19  and  C16_21
DOCKED: REMARK   17  A    between atoms: C16_21  and  C17_22
DOCKED: REMARK   18  A    between atoms: N3_24  and  C18_25
DOCKED: REMARK   19  A    between atoms: C18_25  and  C19_26
DOCKED: REMARK   20  A    between atoms: C18_25  and  C26_33
DOCKED: REMARK   21  A    between atoms: C19_26  and  C20_27
DOCKED: REMARK   22  A    between atoms: C26_33  and  O5_34
DOCKED: REMARK   23  A    between atoms: C26_33  and  C27_35
DOCKED: REMARK   24  A    between atoms: C27_35  and  C28_36
DOCKED: REMARK   25  A    between atoms: N4_38  and  C29_39
DOCKED: REMARK   26  A    between atoms: C29_39  and  C30_40
DOCKED: REMARK   27  A    between atoms: C29_39  and  C39_53
DOCKED: REMARK   28  A    between atoms: N5_42  and  C31_43
DOCKED: REMARK   29  A    between atoms: C31_43  and  C32_44
DOCKED: REMARK   30  A    between atoms: C35_47  and  C36_48
DOCKED: REMARK   31  A    between atoms: C36_48  and  O9_50
DOCKED: REMARK   32  A    between atoms: C39_53  and  C40_54
DOCKED: REMARK   33  A    between atoms: C39_53  and  C41_55
DOCKED: REMARK                            x       y       z     vdW  Elec       q    Type
DOCKED: REMARK                         _______ _______ _______ _____ _____    ______ ____
DOCKED: USER                              x       y       z     vdW  Elec       q    Type
DOCKED: USER                           _______ _______ _______ _____ _____    ______ ____
DOCKED: ROOT
DOCKED: ATOM      1  C18 UNL     1       9.420  -0.438   2.034 +0.00 +0.00    +0.106 C  
DOCKED: ENDROOT
DOCKED: BRANCH   1   4
DOCKED: ATOM      2  C17 UNL     1      11.574   0.142   0.902 +0.00 +0.00    +0.216 C  
DOCKED: ATOM      3  O4  UNL     1      11.396   1.353   0.997 +0.00 -0.00    -0.276 OA 
DOCKED: ATOM      4  N3  UNL     1      10.678  -0.788   1.362 +0.00 -0.00    -0.310 N  
DOCKED: ATOM      5  H32 UNL     1      10.831  -1.780   1.233 +0.00 +0.00    +0.149 HD 
DOCKED: BRANCH   2   6
DOCKED: ATOM      6  C16 UNL     1      12.828  -0.424   0.274 +0.00 +0.00    +0.129 C  
DOCKED: BRANCH   6   7
DOCKED: ATOM      7  C15 UNL     1      13.428  -1.621   1.015 +0.00 +0.00    +0.143 C  
DOCKED: BRANCH   7   8
DOCKED: ATOM      8  O3  UNL     1      12.462  -2.689   1.032 +0.00 -0.00    -0.389 OA 
DOCKED: ATOM      9  H29 UNL     1      11.881  -2.557   1.810 +0.00 +0.00    +0.210 HD 
DOCKED: ENDBRANCH   7   8
DOCKED: BRANCH   7  10
DOCKED: ATOM     10  C6  UNL     1      13.977  -1.377   2.451 +0.00 +0.00    +0.102 C  
DOCKED: BRANCH  10  11
DOCKED: ATOM     11  N1  UNL     1      13.043  -1.971   3.417 +0.00 -0.00    -0.308 N  
DOCKED: ATOM     12  C7  UNL     1      13.229  -1.934   4.779 +0.00 +0.00    +0.234 C  
DOCKED: ATOM     13  O1  UNL     1      14.149  -1.316   5.318 +0.00 -0.00    -0.274 OA 
DOCKED: ATOM     14  H13 UNL     1      12.247  -2.470   3.032 +0.00 +0.00    +0.149 HD 
DOCKED: BRANCH  12  15
DOCKED: ATOM     15  C8  UNL     1      12.166  -2.720   5.587 +0.00 +0.00    +0.159 C  
DOCKED: BRANCH  15  16
DOCKED: ATOM     16  N2  UNL     1      12.486  -4.133   5.428 +0.00 -0.00    -0.304 N  
DOCKED: ATOM     17  C13 UNL     1      12.360  -4.730   4.192 +0.00 +0.00    +0.211 C  
DOCKED: ATOM     18  C14 UNL     1      12.986  -6.095   4.115 +0.00 +0.00    +0.109 C  
DOCKED: ATOM     19  O2  UNL     1      11.799  -4.204   3.233 +0.00 -0.00    -0.276 OA 
DOCKED: ATOM     20  H24 UNL     1      13.269  -4.456   5.988 +0.00 +0.00    +0.149 HD 
DOCKED: ENDBRANCH  15  16
DOCKED: BRANCH  15  21
DOCKED: ATOM     21  C9  UNL     1      12.187  -2.290   7.062 +0.00 +0.00    +0.034 C  
DOCKED: BRANCH  21  22
DOCKED: ATOM     22  C10 UNL     1      10.907  -2.547   7.883 +0.00 -0.00    -0.015 C  
DOCKED: ATOM     23  C11 UNL     1       9.909  -3.470   7.181 +0.00 +0.00    +0.007 C  
DOCKED: ATOM     24  C12 UNL     1      10.216  -1.256   8.324 +0.00 +0.00    +0.007 C  
DOCKED: ENDBRANCH  21  22
DOCKED: ENDBRANCH  15  21
DOCKED: ENDBRANCH  12  15
DOCKED: ENDBRANCH  10  11
DOCKED: BRANCH  10  25
DOCKED: ATOM     25  C5  UNL     1      15.371  -2.000   2.710 +0.00 +0.00    +0.028 C  
DOCKED: BRANCH  25  26
DOCKED: ATOM     26  C3  UNL     1      15.427  -3.531   2.849 +0.00 -0.00    -0.013 C  
DOCKED: ATOM     27  C4  UNL     1      15.723  -4.180   1.494 +0.00 +0.00    +0.007 C  
DOCKED: BRANCH  26  29
DOCKED: ATOM     28  C1  UNL     1      15.865  -4.164   5.337 +0.00 +0.00    +0.004 C  
DOCKED: ATOM     29  C2  UNL     1      16.429  -3.996   3.930 +0.00 -0.00    -0.000 C  
DOCKED: ENDBRANCH  26  29
DOCKED: ENDBRANCH  25  26
DOCKED: ENDBRANCH  10  25
DOCKED: ENDBRANCH   7  10
DOCKED: ENDBRANCH   6   7
DOCKED: ENDBRANCH   2   6
DOCKED: ENDBRANCH   1   4
DOCKED: BRANCH   1  30
DOCKED: ATOM     30  C19 UNL     1       8.244  -0.406   1.025 +0.00 +0.00    +0.060 C  
DOCKED: BRANCH  30  31
DOCKED: ATOM     31  C20 UNL     1       6.844  -0.633   1.559 +0.00 -0.00    -0.046 A  
DOCKED: ATOM     32  C21 UNL     1       6.207  -1.860   1.308 +0.00 +0.00    +0.004 A  
DOCKED: ATOM     33  C22 UNL     1       4.955  -2.146   1.856 +0.00 +0.00    +0.000 A  
DOCKED: ATOM     34  C23 UNL     1       4.302  -1.198   2.640 +0.00 +0.00    +0.000 A  
DOCKED: ATOM     35  C24 UNL     1       4.922   0.020   2.900 +0.00 +0.00    +0.000 A  
DOCKED: ATOM     36  C25 UNL     1       6.194   0.289   2.386 +0.00 +0.00    +0.004 A  
DOCKED: ENDBRANCH  30  31
DOCKED: ENDBRANCH   1  30
DOCKED: BRANCH   1  37
DOCKED: ATOM     37  C26 UNL     1       9.135  -1.478   3.151 +0.00 +0.00    +0.144 C  
DOCKED: BRANCH  37  38
DOCKED: ATOM     38  O5  UNL     1      10.314  -2.280   3.340 +0.00 -0.00    -0.389 OA 
DOCKED: ATOM     39  H42 UNL     1      10.595  -2.554   2.443 +0.00 +0.00    +0.210 HD 
DOCKED: ENDBRANCH  37  38
DOCKED: BRANCH  37  40
DOCKED: ATOM     40  C27 UNL     1       8.780  -0.806   4.481 +0.00 +0.00    +0.129 C  
DOCKED: BRANCH  40  41
DOCKED: ATOM     41  C28 UNL     1       7.549  -1.443   5.089 +0.00 +0.00    +0.216 C  
DOCKED: ATOM     42  O6  UNL     1       6.683  -2.002   4.422 +0.00 -0.00    -0.276 OA 
DOCKED: ATOM     43  N4  UNL     1       7.507  -1.337   6.457 +0.00 -0.00    -0.304 N  
DOCKED: ATOM     44  H45 UNL     1       8.213  -0.797   6.951 +0.00 +0.00    +0.149 HD 
DOCKED: BRANCH  43  45
DOCKED: ATOM     45  C29 UNL     1       6.439  -1.901   7.284 +0.00 +0.00    +0.161 C  
DOCKED: BRANCH  45  46
DOCKED: ATOM     46  C30 UNL     1       6.393  -3.392   6.887 +0.00 +0.00    +0.234 C  
DOCKED: ATOM     47  O7  UNL     1       7.099  -4.229   7.448 +0.00 -0.00    -0.274 OA 
DOCKED: ATOM     48  N5  UNL     1       5.533  -3.703   5.859 +0.00 -0.00    -0.310 N  
DOCKED: ATOM     49  H47 UNL     1       5.079  -2.954   5.358 +0.00 +0.00    +0.149 HD 
DOCKED: BRANCH  48  50
DOCKED: ATOM     50  C31 UNL     1       5.544  -5.009   5.241 +0.00 +0.00    +0.139 C  
DOCKED: BRANCH  50  51
DOCKED: ATOM     51  C32 UNL     1       6.612  -5.080   4.176 +0.00 -0.00    -0.030 A  
DOCKED: ATOM     52  C33 UNL     1       7.968  -5.075   4.537 +0.00 +0.00    +0.006 A  
DOCKED: ATOM     53  C34 UNL     1       8.968  -5.078   3.562 +0.00 +0.00    +0.015 A  
DOCKED: ATOM     54  C35 UNL     1       8.624  -5.091   2.205 +0.00 +0.00    +0.059 A  
DOCKED: ATOM     55  C37 UNL     1       7.275  -5.098   1.834 +0.00 +0.00    +0.015 A  
DOCKED: ATOM     56  C38 UNL     1       6.275  -5.087   2.814 +0.00 +0.00    +0.006 A  
DOCKED: BRANCH  54  57
DOCKED: ATOM     57  C36 UNL     1       9.717  -5.092   1.199 +0.00 +0.00    +0.337 C  
DOCKED: ATOM     58  O8  UNL     1      10.062  -6.044   0.521 +0.00 -0.00    -0.245 OA 
DOCKED: BRANCH  57  59
DOCKED: ATOM     59  O9  UNL     1      10.337  -3.905   1.099 +0.00 -0.00    -0.477 OA 
DOCKED: ATOM     60  H52 UNL     1      10.870  -3.855   1.923 +0.00 +0.00    +0.295 HD 
DOCKED: ENDBRANCH  57  59
DOCKED: ENDBRANCH  54  57
DOCKED: ENDBRANCH  50  51
DOCKED: ENDBRANCH  48  50
DOCKED: ENDBRANCH  45  46
DOCKED: BRANCH  45  61
DOCKED: ATOM     61  C39 UNL     1       5.086  -1.201   7.013 +0.00 +0.00    +0.012 C  
DOCKED: ATOM     62  C40 UNL     1       5.231   0.319   6.902 +0.00 +0.00    +0.009 C  
DOCKED: ATOM     63  C41 UNL     1       4.053  -1.509   8.104 +0.00 +0.00    +0.009 C  
DOCKED: ENDBRANCH  45  61
DOCKED: ENDBRANCH  43  45
DOCKED: ENDBRANCH  40  41
DOCKED: ENDBRANCH  37  40
DOCKED: ENDBRANCH   1  37
DOCKED: TORSDOF 26
DOCKED: TER
DOCKED: ENDMDL
________________________________________________________________________________


    FINAL DOCKED STATE:
    ________________________


Run:   7 / 20
Time taken for this run:   3.577s

DOCKED: MODEL        7
DOCKED: USER    Run = 7
DOCKED: USER
DOCKED: USER    Estimated Free Energy of Binding    =  +7.76 kcal/mol  [=(1)+(2)+(3)-(4)]
DOCKED: USER
DOCKED: USER    (1) Final Intermolecular Energy     =  +0.00 kcal/mol
DOCKED: USER        vdW + Hbond + desolv Energy     =  +0.00 kcal/mol
DOCKED: USER        Electrostatic Energy            =  +0.00 kcal/mol
DOCKED: USER        Moving Ligand-Fixed Receptor    =  +0.00 kcal/mol
DOCKED: USER        Moving Ligand-Moving Receptor   =  +0.00 kcal/mol
DOCKED: USER    (2) Final Total Internal Energy     = -16.54 kcal/mol
DOCKED: USER    (3) Torsional Free Energy           =  +7.76 kcal/mol
DOCKED: USER    (4) Unbound System's Energy         = -16.54 kcal/mol
DOCKED: USER
DOCKED: USER
DOCKED: REMARK  Name = ligands/ligand_4.pdb
DOCKED: REMARK  33 active torsions:
DOCKED: REMARK  status: ('A' for Active; 'I' for Inactive)
DOCKED: REMARK    1  A    between atoms: C1_1  and  C2_2
DOCKED: REMARK    2  A    between atoms: C2_2  and  C3_3
DOCKED: REMARK    3  A    between atoms: C3_3  and  C4_4
DOCKED: REMARK    4  A    between atoms: C3_3  and  C5_5
DOCKED: REMARK    5  A    between atoms: C5_5  and  C6_6
DOCKED: REMARK    6  A    between atoms: C6_6  and  N1_7
DOCKED: REMARK    7  A    between atoms: C6_6  and  C15_19
DOCKED: REMARK    8  A    between atoms: C7_8  and  C8_10
DOCKED: REMARK    9  A    between atoms: C8_10  and  C9_11
DOCKED: REMARK   10  A    between atoms: C8_10  and  N2_15
DOCKED: REMARK   11  A    between atoms: C9_11  and  C10_12
DOCKED: REMARK   12  A    between atoms: C10_12  and  C11_13
DOCKED: REMARK   13  A    between atoms: C10_12  and  C12_14
DOCKED: REMARK   14  A    between atoms: C13_16  and  C14_17
DOCKED: REMARK   15  A    between atoms: C15_19  and  O3_20
DOCKED: REMARK   16  A    between atoms: C15_19  and  C16_21
DOCKED: REMARK   17  A    between atoms: C16_21  and  C17_22
DOCKED: REMARK   18  A    between atoms: N3_24  and  C18_25
DOCKED: REMARK   19  A    between atoms: C18_25  and  C19_26
DOCKED: REMARK   20  A    between atoms: C18_25  and  C26_33
DOCKED: REMARK   21  A    between atoms: C19_26  and  C20_27
DOCKED: REMARK   22  A    between atoms: C26_33  and  O5_34
DOCKED: REMARK   23  A    between atoms: C26_33  and  C27_35
DOCKED: REMARK   24  A    between atoms: C27_35  and  C28_36
DOCKED: REMARK   25  A    between atoms: N4_38  and  C29_39
DOCKED: REMARK   26  A    between atoms: C29_39  and  C30_40
DOCKED: REMARK   27  A    between atoms: C29_39  and  C39_53
DOCKED: REMARK   28  A    between atoms: N5_42  and  C31_43
DOCKED: REMARK   29  A    between atoms: C31_43  and  C32_44
DOCKED: REMARK   30  A    between atoms: C35_47  and  C36_48
DOCKED: REMARK   31  A    between atoms: C36_48  and  O9_50
DOCKED: REMARK   32  A    between atoms: C39_53  and  C40_54
DOCKED: REMARK   33  A    between atoms: C39_53  and  C41_55
DOCKED: REMARK                            x       y       z     vdW  Elec       q    Type
DOCKED: REMARK                         _______ _______ _______ _____ _____    ______ ____
DOCKED: USER                              x       y       z     vdW  Elec       q    Type
DOCKED: USER                           _______ _______ _______ _____ _____    ______ ____
DOCKED: ROOT
DOCKED: ATOM      1  C18 UNL     1       7.106  -6.208   2.098 +0.00 +0.00    +0.106 C  
DOCKED: ENDROOT
DOCKED: BRANCH   1   4
DOCKED: ATOM      2  C17 UNL     1       4.708  -6.542   1.469 +0.00 +0.00    +0.216 C  
DOCKED: ATOM      3  O4  UNL     1       4.918  -7.610   0.899 +0.00 -0.00    -0.276 OA 
DOCKED: ATOM      4  N3  UNL     1       5.695  -5.799   2.063 +0.00 -0.00    -0.310 N  
DOCKED: ATOM      5  H32 UNL     1       5.499  -4.903   2.489 +0.00 +0.00    +0.149 HD 
DOCKED: BRANCH   2   6
DOCKED: ATOM      6  C16 UNL     1       3.314  -5.967   1.575 +0.00 +0.00    +0.129 C  
DOCKED: BRANCH   6   7
DOCKED: ATOM      7  C15 UNL     1       3.262  -4.480   1.933 +0.00 +0.00    +0.143 C  
DOCKED: BRANCH   7   8
DOCKED: ATOM      8  O3  UNL     1       4.232  -3.776   1.134 +0.00 -0.00    -0.389 OA 
DOCKED: ATOM      9  H29 UNL     1       5.045  -3.669   1.670 +0.00 +0.00    +0.210 HD 
DOCKED: ENDBRANCH   7   8
DOCKED: BRANCH   7  10
DOCKED: ATOM     10  C6  UNL     1       3.428  -4.094   3.432 +0.00 +0.00    +0.102 C  
DOCKED: BRANCH  10  11
DOCKED: ATOM     11  N1  UNL     1       4.373  -2.972   3.526 +0.00 -0.00    -0.308 N  
DOCKED: ATOM     12  C7  UNL     1       5.174  -2.739   4.619 +0.00 +0.00    +0.234 C  
DOCKED: ATOM     13  O1  UNL     1       5.240  -3.505   5.582 +0.00 -0.00    -0.274 OA 
DOCKED: ATOM     14  H13 UNL     1       4.384  -2.322   2.747 +0.00 +0.00    +0.149 HD 
DOCKED: BRANCH  12  15
DOCKED: ATOM     15  C8  UNL     1       6.008  -1.436   4.529 +0.00 +0.00    +0.159 C  
DOCKED: BRANCH  15  16
DOCKED: ATOM     16  N2  UNL     1       7.328  -1.822   4.048 +0.00 -0.00    -0.304 N  
DOCKED: ATOM     17  C13 UNL     1       7.451  -2.507   2.859 +0.00 +0.00    +0.211 C  
DOCKED: ATOM     18  C14 UNL     1       8.865  -2.588   2.352 +0.00 +0.00    +0.109 C  
DOCKED: ATOM     19  O2  UNL     1       6.503  -3.005   2.255 +0.00 -0.00    -0.276 OA 
DOCKED: ATOM     20  H24 UNL     1       8.062  -1.145   4.237 +0.00 +0.00    +0.149 HD 
DOCKED: ENDBRANCH  15  16
DOCKED: BRANCH  15  21
DOCKED: ATOM     21  C9  UNL     1       5.328  -0.428   3.591 +0.00 +0.00    +0.034 C  
DOCKED: BRANCH  21  22
DOCKED: ATOM     22  C10 UNL     1       4.164   0.398   4.177 +0.00 -0.00    -0.015 C  
DOCKED: ATOM     23  C11 UNL     1       3.999   0.227   5.689 +0.00 +0.00    +0.007 C  
DOCKED: ATOM     24  C12 UNL     1       2.836   0.140   3.465 +0.00 +0.00    +0.007 C  
DOCKED: ENDBRANCH  21  22
DOCKED: ENDBRANCH  15  21
DOCKED: ENDBRANCH  12  15
DOCKED: ENDBRANCH  10  11
DOCKED: BRANCH  10  25
DOCKED: ATOM     25  C5  UNL     1       2.114  -3.653   4.121 +0.00 +0.00    +0.028 C  
DOCKED: BRANCH  25  26
DOCKED: ATOM     26  C3  UNL     1       2.256  -2.818   5.407 +0.00 -0.00    -0.013 C  
DOCKED: ATOM     27  C4  UNL     1       1.071  -1.858   5.554 +0.00 +0.00    +0.007 C  
DOCKED: BRANCH  26  29
DOCKED: ATOM     28  C1  UNL     1       3.204  -3.053   7.821 +0.00 +0.00    +0.004 C  
DOCKED: ATOM     29  C2  UNL     1       2.436  -3.692   6.669 +0.00 -0.00    -0.000 C  
DOCKED: ENDBRANCH  26  29
DOCKED: ENDBRANCH  25  26
DOCKED: ENDBRANCH  10  25
DOCKED: ENDBRANCH   7  10
DOCKED: ENDBRANCH   6   7
DOCKED: ENDBRANCH   2   6
DOCKED: ENDBRANCH   1   4
DOCKED: BRANCH   1  30
DOCKED: ATOM     30  C19 UNL     1       7.867  -5.677   0.857 +0.00 +0.00    +0.060 C  
DOCKED: BRANCH  30  31
DOCKED: ATOM     31  C20 UNL     1       7.051  -5.166  -0.313 +0.00 -0.00    -0.046 A  
DOCKED: ATOM     32  C21 UNL     1       6.479  -6.089  -1.204 +0.00 +0.00    +0.004 A  
DOCKED: ATOM     33  C22 UNL     1       5.646  -5.666  -2.241 +0.00 +0.00    +0.000 A  
DOCKED: ATOM     34  C23 UNL     1       5.394  -4.309  -2.426 +0.00 +0.00    +0.000 A  
DOCKED: ATOM     35  C24 UNL     1       5.950  -3.384  -1.550 +0.00 +0.00    +0.000 A  
DOCKED: ATOM     36  C25 UNL     1       6.749  -3.810  -0.486 +0.00 +0.00    +0.004 A  
DOCKED: ENDBRANCH  30  31
DOCKED: ENDBRANCH   1  30
DOCKED: BRANCH   1  37
DOCKED: ATOM     37  C26 UNL     1       7.759  -5.662   3.397 +0.00 +0.00    +0.144 C  
DOCKED: BRANCH  37  38
DOCKED: ATOM     38  O5  UNL     1       6.714  -5.252   4.296 +0.00 -0.00    -0.389 OA 
DOCKED: ATOM     39  H42 UNL     1       6.368  -4.409   3.934 +0.00 +0.00    +0.210 HD 
DOCKED: ENDBRANCH  37  38
DOCKED: BRANCH  37  40
DOCKED: ATOM     40  C27 UNL     1       8.619  -6.722   4.093 +0.00 +0.00    +0.129 C  
DOCKED: BRANCH  40  41
DOCKED: ATOM     41  C28 UNL     1       8.602  -6.521   5.593 +0.00 +0.00    +0.216 C  
DOCKED: ATOM     42  O6  UNL     1       8.605  -7.450   6.396 +0.00 -0.00    -0.276 OA 
DOCKED: ATOM     43  N4  UNL     1       8.591  -5.198   5.959 +0.00 -0.00    -0.304 N  
DOCKED: ATOM     44  H45 UNL     1       8.512  -4.471   5.253 +0.00 +0.00    +0.149 HD 
DOCKED: BRANCH  43  45
DOCKED: ATOM     45  C29 UNL     1       8.609  -4.739   7.349 +0.00 +0.00    +0.161 C  
DOCKED: BRANCH  45  46
DOCKED: ATOM     46  C30 UNL     1       7.288  -5.267   7.946 +0.00 +0.00    +0.234 C  
DOCKED: ATOM     47  O7  UNL     1       7.203  -5.597   9.128 +0.00 -0.00    -0.274 OA 
DOCKED: ATOM     48  N5  UNL     1       6.237  -5.363   7.064 +0.00 -0.00    -0.310 N  
DOCKED: ATOM     49  H47 UNL     1       6.407  -5.198   6.082 +0.00 +0.00    +0.149 HD 
DOCKED: BRANCH  48  50
DOCKED: ATOM     50  C31 UNL     1       5.012  -6.038   7.425 +0.00 +0.00    +0.139 C  
DOCKED: BRANCH  50  51
DOCKED: ATOM     51  C32 UNL     1       4.530  -6.901   6.284 +0.00 -0.00    -0.030 A  
DOCKED: ATOM     52  C33 UNL     1       5.415  -7.782   5.643 +0.00 +0.00    +0.006 A  
DOCKED: ATOM     53  C34 UNL     1       4.999  -8.542   4.547 +0.00 +0.00    +0.015 A  
DOCKED: ATOM     54  C35 UNL     1       3.686  -8.434   4.076 +0.00 +0.00    +0.059 A  
DOCKED: ATOM     55  C37 UNL     1       2.794  -7.559   4.708 +0.00 +0.00    +0.015 A  
DOCKED: ATOM     56  C38 UNL     1       3.216  -6.794   5.803 +0.00 +0.00    +0.006 A  
DOCKED: BRANCH  54  57
DOCKED: ATOM     57  C36 UNL     1       3.284  -9.257   2.907 +0.00 +0.00    +0.337 C  
DOCKED: ATOM     58  O8  UNL     1       2.142  -9.448   2.527 +0.00 -0.00    -0.245 OA 
DOCKED: BRANCH  57  59
DOCKED: ATOM     59  O9  UNL     1       4.330  -9.815   2.276 +0.00 -0.00    -0.477 OA 
DOCKED: ATOM     60  H52 UNL     1       4.592  -9.132   1.621 +0.00 +0.00    +0.295 HD 
DOCKED: ENDBRANCH  57  59
DOCKED: ENDBRANCH  54  57
DOCKED: ENDBRANCH  50  51
DOCKED: ENDBRANCH  48  50
DOCKED: ENDBRANCH  45  46
DOCKED: BRANCH  45  61
DOCKED: ATOM     61  C39 UNL     1       8.691  -3.195   7.433 +0.00 +0.00    +0.012 C  
DOCKED: ATOM     62  C40 UNL     1       7.307  -2.545   7.530 +0.00 +0.00    +0.009 C  
DOCKED: ATOM     63  C41 UNL     1       9.423  -2.594   6.228 +0.00 +0.00    +0.009 C  
DOCKED: ENDBRANCH  45  61
DOCKED: ENDBRANCH  43  45
DOCKED: ENDBRANCH  40  41
DOCKED: ENDBRANCH  37  40
DOCKED: ENDBRANCH   1  37
DOCKED: TORSDOF 26
DOCKED: TER
DOCKED: ENDMDL
________________________________________________________________________________


    FINAL DOCKED STATE:
    ________________________


Run:   8 / 20
Time taken for this run:   3.577s

DOCKED: MODEL        8
DOCKED: USER    Run = 8
DOCKED: USER
DOCKED: USER    Estimated Free Energy of Binding    =  +7.76 kcal/mol  [=(1)+(2)+(3)-(4)]
DOCKED: USER
DOCKED: USER    (1) Final Intermolecular Energy     =  +0.00 kcal/mol
DOCKED: USER        vdW + Hbond + desolv Energy     =  +0.00 kcal/mol
DOCKED: USER        Electrostatic Energy            =  +0.00 kcal/mol
DOCKED: USER        Moving Ligand-Fixed Receptor    =  +0.00 kcal/mol
DOCKED: USER        Moving Ligand-Moving Receptor   =  +0.00 kcal/mol
DOCKED: USER    (2) Final Total Internal Energy     = -17.10 kcal/mol
DOCKED: USER    (3) Torsional Free Energy           =  +7.76 kcal/mol
DOCKED: USER    (4) Unbound System's Energy         = -17.10 kcal/mol
DOCKED: USER
DOCKED: USER
DOCKED: REMARK  Name = ligands/ligand_4.pdb
DOCKED: REMARK  33 active torsions:
DOCKED: REMARK  status: ('A' for Active; 'I' for Inactive)
DOCKED: REMARK    1  A    between atoms: C1_1  and  C2_2
DOCKED: REMARK    2  A    between atoms: C2_2  and  C3_3
DOCKED: REMARK    3  A    between atoms: C3_3  and  C4_4
DOCKED: REMARK    4  A    between atoms: C3_3  and  C5_5
DOCKED: REMARK    5  A    between atoms: C5_5  and  C6_6
DOCKED: REMARK    6  A    between atoms: C6_6  and  N1_7
DOCKED: REMARK    7  A    between atoms: C6_6  and  C15_19
DOCKED: REMARK    8  A    between atoms: C7_8  and  C8_10
DOCKED: REMARK    9  A    between atoms: C8_10  and  C9_11
DOCKED: REMARK   10  A    between atoms: C8_10  and  N2_15
DOCKED: REMARK   11  A    between atoms: C9_11  and  C10_12
DOCKED: REMARK   12  A    between atoms: C10_12  and  C11_13
DOCKED: REMARK   13  A    between atoms: C10_12  and  C12_14
DOCKED: REMARK   14  A    between atoms: C13_16  and  C14_17
DOCKED: REMARK   15  A    between atoms: C15_19  and  O3_20
DOCKED: REMARK   16  A    between atoms: C15_19  and  C16_21
DOCKED: REMARK   17  A    between atoms: C16_21  and  C17_22
DOCKED: REMARK   18  A    between atoms: N3_24  and  C18_25
DOCKED: REMARK   19  A    between atoms: C18_25  and  C19_26
DOCKED: REMARK   20  A    between atoms: C18_25  and  C26_33
DOCKED: REMARK   21  A    between atoms: C19_26  and  C20_27
DOCKED: REMARK   22  A    between atoms: C26_33  and  O5_34
DOCKED: REMARK   23  A    between atoms: C26_33  and  C27_35
DOCKED: REMARK   24  A    between atoms: C27_35  and  C28_36
DOCKED: REMARK   25  A    between atoms: N4_38  and  C29_39
DOCKED: REMARK   26  A    between atoms: C29_39  and  C30_40
DOCKED: REMARK   27  A    between atoms: C29_39  and  C39_53
DOCKED: REMARK   28  A    between atoms: N5_42  and  C31_43
DOCKED: REMARK   29  A    between atoms: C31_43  and  C32_44
DOCKED: REMARK   30  A    between atoms: C35_47  and  C36_48
DOCKED: REMARK   31  A    between atoms: C36_48  and  O9_50
DOCKED: REMARK   32  A    between atoms: C39_53  and  C40_54
DOCKED: REMARK   33  A    between atoms: C39_53  and  C41_55
DOCKED: REMARK                            x       y       z     vdW  Elec       q    Type
DOCKED: REMARK                         _______ _______ _______ _____ _____    ______ ____
DOCKED: USER                              x       y       z     vdW  Elec       q    Type
DOCKED: USER                           _______ _______ _______ _____ _____    ______ ____
DOCKED: ROOT
DOCKED: ATOM      1  C18 UNL     1      10.606  -6.773   0.933 +0.00 +0.00    +0.106 C  
DOCKED: ENDROOT
DOCKED: BRANCH   1   4
DOCKED: ATOM      2  C17 UNL     1      10.788  -7.070   3.410 +0.00 +0.00    +0.216 C  
DOCKED: ATOM      3  O4  UNL     1       9.741  -6.472   3.644 +0.00 -0.00    -0.276 OA 
DOCKED: ATOM      4  N3  UNL     1      11.283  -7.254   2.144 +0.00 -0.00    -0.310 N  
DOCKED: ATOM      5  H32 UNL     1      12.169  -7.715   1.984 +0.00 +0.00    +0.149 HD 
DOCKED: BRANCH   2   6
DOCKED: ATOM      6  C16 UNL     1      11.616  -7.676   4.521 +0.00 +0.00    +0.129 C  
DOCKED: BRANCH   6   7
DOCKED: ATOM      7  C15 UNL     1      13.035  -8.077   4.115 +0.00 +0.00    +0.143 C  
DOCKED: BRANCH   7   8
DOCKED: ATOM      8  O3  UNL     1      13.516  -7.145   3.126 +0.00 -0.00    -0.389 OA 
DOCKED: ATOM      9  H29 UNL     1      13.513  -7.599   2.258 +0.00 +0.00    +0.210 HD 
DOCKED: ENDBRANCH   7   8
DOCKED: BRANCH   7  10
DOCKED: ATOM     10  C6  UNL     1      13.258  -9.536   3.623 +0.00 +0.00    +0.102 C  
DOCKED: BRANCH  10  11
DOCKED: ATOM     11  N1  UNL     1      14.503  -9.583   2.843 +0.00 -0.00    -0.308 N  
DOCKED: ATOM     12  C7  UNL     1      15.750  -9.376   3.385 +0.00 +0.00    +0.234 C  
DOCKED: ATOM     13  O1  UNL     1      15.945  -9.224   4.592 +0.00 -0.00    -0.274 OA 
DOCKED: ATOM     14  H13 UNL     1      14.408  -9.735   1.844 +0.00 +0.00    +0.149 HD 
DOCKED: BRANCH  12  15
DOCKED: ATOM     15  C8  UNL     1      16.900  -9.370   2.347 +0.00 +0.00    +0.159 C  
DOCKED: BRANCH  15  16
DOCKED: ATOM     16  N2  UNL     1      17.058  -7.989   1.909 +0.00 -0.00    -0.304 N  
DOCKED: ATOM     17  C13 UNL     1      16.033  -7.363   1.233 +0.00 +0.00    +0.211 C  
DOCKED: ATOM     18  C14 UNL     1      16.219  -5.877   1.096 +0.00 +0.00    +0.109 C  
DOCKED: ATOM     19  O2  UNL     1      15.051  -7.951   0.784 +0.00 -0.00    -0.276 OA 
DOCKED: ATOM     20  H24 UNL     1      17.578  -7.398   2.551 +0.00 +0.00    +0.149 HD 
DOCKED: ENDBRANCH  15  16
DOCKED: BRANCH  15  21
DOCKED: ATOM     21  C9  UNL     1      18.190  -9.923   2.973 +0.00 +0.00    +0.034 C  
DOCKED: BRANCH  21  22
DOCKED: ATOM     22  C10 UNL     1      18.613 -11.347   2.557 +0.00 -0.00    -0.015 C  
DOCKED: ATOM     23  C11 UNL     1      18.733 -11.528   1.042 +0.00 +0.00    +0.007 C  
DOCKED: ATOM     24  C12 UNL     1      17.714 -12.431   3.153 +0.00 +0.00    +0.007 C  
DOCKED: ENDBRANCH  21  22
DOCKED: ENDBRANCH  15  21
DOCKED: ENDBRANCH  12  15
DOCKED: ENDBRANCH  10  11
DOCKED: BRANCH  10  25
DOCKED: ATOM     25  C5  UNL     1      13.386 -10.576   4.763 +0.00 +0.00    +0.028 C  
DOCKED: BRANCH  25  26
DOCKED: ATOM     26  C3  UNL     1      14.148 -11.872   4.433 +0.00 -0.00    -0.013 C  
DOCKED: ATOM     27  C4  UNL     1      15.228 -12.140   5.485 +0.00 +0.00    +0.007 C  
DOCKED: BRANCH  26  29
DOCKED: ATOM     28  C1  UNL     1      13.596 -14.083   3.172 +0.00 +0.00    +0.004 C  
DOCKED: ATOM     29  C2  UNL     1      13.210 -13.088   4.262 +0.00 -0.00    -0.000 C  
DOCKED: ENDBRANCH  26  29
DOCKED: ENDBRANCH  25  26
DOCKED: ENDBRANCH  10  25
DOCKED: ENDBRANCH   7  10
DOCKED: ENDBRANCH   6   7
DOCKED: ENDBRANCH   2   6
DOCKED: ENDBRANCH   1   4
DOCKED: BRANCH   1  30
DOCKED: ATOM     30  C19 UNL     1       9.942  -5.395   1.180 +0.00 +0.00    +0.060 C  
DOCKED: BRANCH  30  31
DOCKED: ATOM     31  C20 UNL     1       8.454  -5.267   0.927 +0.00 -0.00    -0.046 A  
DOCKED: ATOM     32  C21 UNL     1       7.875  -5.993  -0.128 +0.00 +0.00    +0.004 A  
DOCKED: ATOM     33  C22 UNL     1       6.495  -5.975  -0.340 +0.00 +0.00    +0.000 A  
DOCKED: ATOM     34  C23 UNL     1       5.671  -5.208   0.480 +0.00 +0.00    +0.000 A  
DOCKED: ATOM     35  C24 UNL     1       6.230  -4.488   1.530 +0.00 +0.00    +0.000 A  
DOCKED: ATOM     36  C25 UNL     1       7.606  -4.539   1.769 +0.00 +0.00    +0.004 A  
DOCKED: ENDBRANCH  30  31
DOCKED: ENDBRANCH   1  30
DOCKED: BRANCH   1  37
DOCKED: ATOM     37  C26 UNL     1      11.643  -6.667  -0.218 +0.00 +0.00    +0.144 C  
DOCKED: BRANCH  37  38
DOCKED: ATOM     38  O5  UNL     1      12.948  -6.487   0.358 +0.00 -0.00    -0.389 OA 
DOCKED: ATOM     39  H42 UNL     1      13.067  -7.230   0.985 +0.00 +0.00    +0.210 HD 
DOCKED: ENDBRANCH  37  38
DOCKED: BRANCH  37  40
DOCKED: ATOM     40  C27 UNL     1      11.660  -7.926  -1.091 +0.00 +0.00    +0.129 C  
DOCKED: BRANCH  40  41
DOCKED: ATOM     41  C28 UNL     1      12.413  -9.043  -0.401 +0.00 +0.00    +0.216 C  
DOCKED: ATOM     42  O6  UNL     1      12.724  -9.011   0.786 +0.00 -0.00    -0.276 OA 
DOCKED: ATOM     43  N4  UNL     1      12.703 -10.093  -1.236 +0.00 -0.00    -0.304 N  
DOCKED: ATOM     44  H45 UNL     1      12.488 -10.033  -2.228 +0.00 +0.00    +0.149 HD 
DOCKED: BRANCH  43  45
DOCKED: ATOM     45  C29 UNL     1      13.392 -11.310  -0.803 +0.00 +0.00    +0.161 C  
DOCKED: BRANCH  45  46
DOCKED: ATOM     46  C30 UNL     1      12.358 -12.047   0.073 +0.00 +0.00    +0.234 C  
DOCKED: ATOM     47  O7  UNL     1      11.751 -13.034  -0.341 +0.00 -0.00    -0.274 OA 
DOCKED: ATOM     48  N5  UNL     1      12.153 -11.511   1.323 +0.00 -0.00    -0.310 N  
DOCKED: ATOM     49  H47 UNL     1      12.587 -10.629   1.554 +0.00 +0.00    +0.149 HD 
DOCKED: BRANCH  48  50
DOCKED: ATOM     50  C31 UNL     1      11.068 -11.961   2.164 +0.00 +0.00    +0.139 C  
DOCKED: BRANCH  50  51
DOCKED: ATOM     51  C32 UNL     1      10.025 -10.878   2.304 +0.00 -0.00    -0.030 A  
DOCKED: ATOM     52  C33 UNL     1       9.550 -10.518   3.575 +0.00 +0.00    +0.006 A  
DOCKED: ATOM     53  C34 UNL     1       8.540  -9.563   3.716 +0.00 +0.00    +0.015 A  
DOCKED: ATOM     54  C35 UNL     1       7.993  -8.947   2.585 +0.00 +0.00    +0.059 A  
DOCKED: ATOM     55  C37 UNL     1       8.461  -9.298   1.313 +0.00 +0.00    +0.015 A  
DOCKED: ATOM     56  C38 UNL     1       9.467 -10.261   1.174 +0.00 +0.00    +0.006 A  
DOCKED: BRANCH  54  57
DOCKED: ATOM     57  C36 UNL     1       6.921  -7.938   2.778 +0.00 +0.00    +0.337 C  
DOCKED: ATOM     58  O8  UNL     1       5.887  -7.864   2.138 +0.00 -0.00    -0.245 OA 
DOCKED: BRANCH  57  59
DOCKED: ATOM     59  O9  UNL     1       7.200  -7.058   3.753 +0.00 -0.00    -0.477 OA 
DOCKED: ATOM     60  H52 UNL     1       8.130  -6.801   3.570 +0.00 +0.00    +0.295 HD 
DOCKED: ENDBRANCH  57  59
DOCKED: ENDBRANCH  54  57
DOCKED: ENDBRANCH  50  51
DOCKED: ENDBRANCH  48  50
DOCKED: ENDBRANCH  45  46
DOCKED: BRANCH  45  61
DOCKED: ATOM     61  C39 UNL     1      14.676 -10.977  -0.005 +0.00 +0.00    +0.012 C  
DOCKED: ATOM     62  C40 UNL     1      15.798 -10.448  -0.903 +0.00 +0.00    +0.009 C  
DOCKED: ATOM     63  C41 UNL     1      15.205 -12.194   0.762 +0.00 +0.00    +0.009 C  
DOCKED: ENDBRANCH  45  61
DOCKED: ENDBRANCH  43  45
DOCKED: ENDBRANCH  40  41
DOCKED: ENDBRANCH  37  40
DOCKED: ENDBRANCH   1  37
DOCKED: TORSDOF 26
DOCKED: TER
DOCKED: ENDMDL
________________________________________________________________________________


    FINAL DOCKED STATE:
    ________________________


Run:   9 / 20
Time taken for this run:   3.577s

DOCKED: MODEL        9
DOCKED: USER    Run = 9
DOCKED: USER
DOCKED: USER    Estimated Free Energy of Binding    =  +7.76 kcal/mol  [=(1)+(2)+(3)-(4)]
DOCKED: USER
DOCKED: USER    (1) Final Intermolecular Energy     =  +0.00 kcal/mol
DOCKED: USER        vdW + Hbond + desolv Energy     =  +0.00 kcal/mol
DOCKED: USER        Electrostatic Energy            =  +0.00 kcal/mol
DOCKED: USER        Moving Ligand-Fixed Receptor    =  +0.00 kcal/mol
DOCKED: USER        Moving Ligand-Moving Receptor   =  +0.00 kcal/mol
DOCKED: USER    (2) Final Total Internal Energy     = -17.22 kcal/mol
DOCKED: USER    (3) Torsional Free Energy           =  +7.76 kcal/mol
DOCKED: USER    (4) Unbound System's Energy         = -17.22 kcal/mol
DOCKED: USER
DOCKED: USER
DOCKED: REMARK  Name = ligands/ligand_4.pdb
DOCKED: REMARK  33 active torsions:
DOCKED: REMARK  status: ('A' for Active; 'I' for Inactive)
DOCKED: REMARK    1  A    between atoms: C1_1  and  C2_2
DOCKED: REMARK    2  A    between atoms: C2_2  and  C3_3
DOCKED: REMARK    3  A    between atoms: C3_3  and  C4_4
DOCKED: REMARK    4  A    between atoms: C3_3  and  C5_5
DOCKED: REMARK    5  A    between atoms: C5_5  and  C6_6
DOCKED: REMARK    6  A    between atoms: C6_6  and  N1_7
DOCKED: REMARK    7  A    between atoms: C6_6  and  C15_19
DOCKED: REMARK    8  A    between atoms: C7_8  and  C8_10
DOCKED: REMARK    9  A    between atoms: C8_10  and  C9_11
DOCKED: REMARK   10  A    between atoms: C8_10  and  N2_15
DOCKED: REMARK   11  A    between atoms: C9_11  and  C10_12
DOCKED: REMARK   12  A    between atoms: C10_12  and  C11_13
DOCKED: REMARK   13  A    between atoms: C10_12  and  C12_14
DOCKED: REMARK   14  A    between atoms: C13_16  and  C14_17
DOCKED: REMARK   15  A    between atoms: C15_19  and  O3_20
DOCKED: REMARK   16  A    between atoms: C15_19  and  C16_21
DOCKED: REMARK   17  A    between atoms: C16_21  and  C17_22
DOCKED: REMARK   18  A    between atoms: N3_24  and  C18_25
DOCKED: REMARK   19  A    between atoms: C18_25  and  C19_26
DOCKED: REMARK   20  A    between atoms: C18_25  and  C26_33
DOCKED: REMARK   21  A    between atoms: C19_26  and  C20_27
DOCKED: REMARK   22  A    between atoms: C26_33  and  O5_34
DOCKED: REMARK   23  A    between atoms: C26_33  and  C27_35
DOCKED: REMARK   24  A    between atoms: C27_35  and  C28_36
DOCKED: REMARK   25  A    between atoms: N4_38  and  C29_39
DOCKED: REMARK   26  A    between atoms: C29_39  and  C30_40
DOCKED: REMARK   27  A    between atoms: C29_39  and  C39_53
DOCKED: REMARK   28  A    between atoms: N5_42  and  C31_43
DOCKED: REMARK   29  A    between atoms: C31_43  and  C32_44
DOCKED: REMARK   30  A    between atoms: C35_47  and  C36_48
DOCKED: REMARK   31  A    between atoms: C36_48  and  O9_50
DOCKED: REMARK   32  A    between atoms: C39_53  and  C40_54
DOCKED: REMARK   33  A    between atoms: C39_53  and  C41_55
DOCKED: REMARK                            x       y       z     vdW  Elec       q    Type
DOCKED: REMARK                         _______ _______ _______ _____ _____    ______ ____
DOCKED: USER                              x       y       z     vdW  Elec       q    Type
DOCKED: USER                           _______ _______ _______ _____ _____    ______ ____
DOCKED: ROOT
DOCKED: ATOM      1  C18 UNL     1       9.983  -9.951  -4.356 +0.00 +0.00    +0.106 C  
DOCKED: ENDROOT
DOCKED: BRANCH   1   4
DOCKED: ATOM      2  C17 UNL     1      10.305  -7.811  -5.608 +0.00 +0.00    +0.216 C  
DOCKED: ATOM      3  O4  UNL     1      11.042  -8.316  -6.451 +0.00 -0.00    -0.276 OA 
DOCKED: ATOM      4  N3  UNL     1       9.760  -8.516  -4.567 +0.00 -0.00    -0.310 N  
DOCKED: ATOM      5  H32 UNL     1       9.189  -8.064  -3.864 +0.00 +0.00    +0.149 HD 
DOCKED: BRANCH   2   6
DOCKED: ATOM      6  C16 UNL     1       9.921  -6.350  -5.671 +0.00 +0.00    +0.129 C  
DOCKED: BRANCH   6   7
DOCKED: ATOM      7  C15 UNL     1       8.449  -6.063  -5.373 +0.00 +0.00    +0.143 C  
DOCKED: BRANCH   7   8
DOCKED: ATOM      8  O3  UNL     1       8.080  -6.743  -4.157 +0.00 -0.00    -0.389 OA 
DOCKED: ATOM      9  H29 UNL     1       7.475  -7.477  -4.394 +0.00 +0.00    +0.210 HD 
DOCKED: ENDBRANCH   7   8
DOCKED: BRANCH   7  10
DOCKED: ATOM     10  C6  UNL     1       7.413  -6.375  -6.492 +0.00 +0.00    +0.102 C  
DOCKED: BRANCH  10  11
DOCKED: ATOM     11  N1  UNL     1       6.949  -7.760  -6.328 +0.00 -0.00    -0.308 N  
DOCKED: ATOM     12  C7  UNL     1       6.064  -8.374  -7.183 +0.00 +0.00    +0.234 C  
DOCKED: ATOM     13  O1  UNL     1       5.651  -7.848  -8.218 +0.00 -0.00    -0.274 OA 
DOCKED: ATOM     14  H13 UNL     1       7.280  -8.256  -5.506 +0.00 +0.00    +0.149 HD 
DOCKED: BRANCH  12  15
DOCKED: ATOM     15  C8  UNL     1       5.642  -9.799  -6.745 +0.00 +0.00    +0.159 C  
DOCKED: BRANCH  15  16
DOCKED: ATOM     16  N2  UNL     1       4.461  -9.643  -5.905 +0.00 -0.00    -0.304 N  
DOCKED: ATOM     17  C13 UNL     1       4.549  -8.939  -4.724 +0.00 +0.00    +0.211 C  
DOCKED: ATOM     18  C14 UNL     1       3.213  -8.620  -4.111 +0.00 +0.00    +0.109 C  
DOCKED: ATOM     19  O2  UNL     1       5.611  -8.593  -4.211 +0.00 -0.00    -0.276 OA 
DOCKED: ATOM     20  H24 UNL     1       3.591  -9.527  -6.416 +0.00 +0.00    +0.149 HD 
DOCKED: ENDBRANCH  15  16
DOCKED: BRANCH  15  21
DOCKED: ATOM     21  C9  UNL     1       5.359 -10.676  -7.974 +0.00 +0.00    +0.034 C  
DOCKED: BRANCH  21  22
DOCKED: ATOM     22  C10 UNL     1       6.551 -11.457  -8.566 +0.00 -0.00    -0.015 C  
DOCKED: ATOM     23  C11 UNL     1       6.636 -12.902  -8.070 +0.00 +0.00    +0.007 C  
DOCKED: ATOM     24  C12 UNL     1       7.888 -10.745  -8.358 +0.00 +0.00    +0.007 C  
DOCKED: ENDBRANCH  21  22
DOCKED: ENDBRANCH  15  21
DOCKED: ENDBRANCH  12  15
DOCKED: ENDBRANCH  10  11
DOCKED: BRANCH  10  25
DOCKED: ATOM     25  C5  UNL     1       6.163  -5.462  -6.471 +0.00 +0.00    +0.028 C  
DOCKED: BRANCH  25  26
DOCKED: ATOM     26  C3  UNL     1       5.422  -5.338  -5.127 +0.00 -0.00    -0.013 C  
DOCKED: ATOM     27  C4  UNL     1       5.809  -4.034  -4.423 +0.00 +0.00    +0.007 C  
DOCKED: BRANCH  26  29
DOCKED: ATOM     28  C1  UNL     1       3.394  -6.091  -6.577 +0.00 +0.00    +0.004 C  
DOCKED: ATOM     29  C2  UNL     1       3.889  -5.466  -5.277 +0.00 -0.00    -0.000 C  
DOCKED: ENDBRANCH  26  29
DOCKED: ENDBRANCH  25  26
DOCKED: ENDBRANCH  10  25
DOCKED: ENDBRANCH   7  10
DOCKED: ENDBRANCH   6   7
DOCKED: ENDBRANCH   2   6
DOCKED: ENDBRANCH   1   4
DOCKED: BRANCH   1  30
DOCKED: ATOM     30  C19 UNL     1      11.007 -10.191  -3.217 +0.00 +0.00    +0.060 C  
DOCKED: BRANCH  30  31
DOCKED: ATOM     31  C20 UNL     1      11.085  -9.166  -2.104 +0.00 -0.00    -0.046 A  
DOCKED: ATOM     32  C21 UNL     1      10.728  -9.544  -0.799 +0.00 +0.00    +0.004 A  
DOCKED: ATOM     33  C22 UNL     1      10.871  -8.658   0.271 +0.00 +0.00    +0.000 A  
DOCKED: ATOM     34  C23 UNL     1      11.345  -7.367   0.051 +0.00 +0.00    +0.000 A  
DOCKED: ATOM     35  C24 UNL     1      11.706  -6.980  -1.235 +0.00 +0.00    +0.000 A  
DOCKED: ATOM     36  C25 UNL     1      11.603  -7.881  -2.299 +0.00 +0.00    +0.004 A  
DOCKED: ENDBRANCH  30  31
DOCKED: ENDBRANCH   1  30
DOCKED: BRANCH   1  37
DOCKED: ATOM     37  C26 UNL     1       8.630 -10.629  -4.007 +0.00 +0.00    +0.144 C  
DOCKED: BRANCH  37  38
DOCKED: ATOM     38  O5  UNL     1       7.670  -9.602  -3.703 +0.00 -0.00    -0.389 OA 
DOCKED: ATOM     39  H42 UNL     1       7.778  -8.923  -4.400 +0.00 +0.00    +0.210 HD 
DOCKED: ENDBRANCH  37  38
DOCKED: BRANCH  37  40
DOCKED: ATOM     40  C27 UNL     1       8.096 -11.472  -5.170 +0.00 +0.00    +0.129 C  
DOCKED: BRANCH  40  41
DOCKED: ATOM     41  C28 UNL     1       6.981 -12.382  -4.701 +0.00 +0.00    +0.216 C  
DOCKED: ATOM     42  O6  UNL     1       6.978 -13.594  -4.894 +0.00 -0.00    -0.276 OA 
DOCKED: ATOM     43  N4  UNL     1       5.985 -11.713  -4.035 +0.00 -0.00    -0.304 N  
DOCKED: ATOM     44  H45 UNL     1       6.002 -10.699  -3.971 +0.00 +0.00    +0.149 HD 
DOCKED: BRANCH  43  45
DOCKED: ATOM     45  C29 UNL     1       4.814 -12.371  -3.452 +0.00 +0.00    +0.161 C  
DOCKED: BRANCH  45  46
DOCKED: ATOM     46  C30 UNL     1       4.333 -11.399  -2.354 +0.00 +0.00    +0.234 C  
DOCKED: ATOM     47  O7  UNL     1       3.268 -11.571  -1.764 +0.00 -0.00    -0.274 OA 
DOCKED: ATOM     48  N5  UNL     1       5.163 -10.330  -2.106 +0.00 -0.00    -0.310 N  
DOCKED: ATOM     49  H47 UNL     1       5.957 -10.177  -2.711 +0.00 +0.00    +0.149 HD 
DOCKED: BRANCH  48  50
DOCKED: ATOM     50  C31 UNL     1       4.743  -9.232  -1.267 +0.00 +0.00    +0.139 C  
DOCKED: BRANCH  50  51
DOCKED: ATOM     51  C32 UNL     1       5.784  -8.139  -1.268 +0.00 -0.00    -0.030 A  
DOCKED: ATOM     52  C33 UNL     1       5.414  -6.815  -1.551 +0.00 +0.00    +0.006 A  
DOCKED: ATOM     53  C34 UNL     1       6.375  -5.803  -1.617 +0.00 +0.00    +0.015 A  
DOCKED: ATOM     54  C35 UNL     1       7.724  -6.101  -1.394 +0.00 +0.00    +0.059 A  
DOCKED: ATOM     55  C37 UNL     1       8.104  -7.417  -1.110 +0.00 +0.00    +0.015 A  
DOCKED: ATOM     56  C38 UNL     1       7.139  -8.431  -1.052 +0.00 +0.00    +0.006 A  
DOCKED: BRANCH  54  57
DOCKED: ATOM     57  C36 UNL     1       8.715  -4.997  -1.474 +0.00 +0.00    +0.337 C  
DOCKED: ATOM     58  O8  UNL     1       8.870  -4.115  -0.648 +0.00 -0.00    -0.245 OA 
DOCKED: BRANCH  57  59
DOCKED: ATOM     59  O9  UNL     1       9.456  -5.040  -2.594 +0.00 -0.00    -0.477 OA 
DOCKED: ATOM     60  H52 UNL     1       9.054  -5.776  -3.106 +0.00 +0.00    +0.295 HD 
DOCKED: ENDBRANCH  57  59
DOCKED: ENDBRANCH  54  57
DOCKED: ENDBRANCH  50  51
DOCKED: ENDBRANCH  48  50
DOCKED: ENDBRANCH  45  46
DOCKED: BRANCH  45  61
DOCKED: ATOM     61  C39 UNL     1       5.178 -13.755  -2.864 +0.00 +0.00    +0.012 C  
DOCKED: ATOM     62  C40 UNL     1       3.940 -14.612  -2.584 +0.00 +0.00    +0.009 C  
DOCKED: ATOM     63  C41 UNL     1       5.983 -13.631  -1.565 +0.00 +0.00    +0.009 C  
DOCKED: ENDBRANCH  45  61
DOCKED: ENDBRANCH  43  45
DOCKED: ENDBRANCH  40  41
DOCKED: ENDBRANCH  37  40
DOCKED: ENDBRANCH   1  37
DOCKED: TORSDOF 26
DOCKED: TER
DOCKED: ENDMDL
________________________________________________________________________________


    FINAL DOCKED STATE:
    ________________________


Run:   10 / 20
Time taken for this run:   3.577s

DOCKED: MODEL        10
DOCKED: USER    Run = 10
DOCKED: USER
DOCKED: USER    Estimated Free Energy of Binding    =  +7.76 kcal/mol  [=(1)+(2)+(3)-(4)]
DOCKED: USER
DOCKED: USER    (1) Final Intermolecular Energy     =  +0.00 kcal/mol
DOCKED: USER        vdW + Hbond + desolv Energy     =  +0.00 kcal/mol
DOCKED: USER        Electrostatic Energy            =  +0.00 kcal/mol
DOCKED: USER        Moving Ligand-Fixed Receptor    =  +0.00 kcal/mol
DOCKED: USER        Moving Ligand-Moving Receptor   =  +0.00 kcal/mol
DOCKED: USER    (2) Final Total Internal Energy     = -17.44 kcal/mol
DOCKED: USER    (3) Torsional Free Energy           =  +7.76 kcal/mol
DOCKED: USER    (4) Unbound System's Energy         = -17.44 kcal/mol
DOCKED: USER
DOCKED: USER
DOCKED: REMARK  Name = ligands/ligand_4.pdb
DOCKED: REMARK  33 active torsions:
DOCKED: REMARK  status: ('A' for Active; 'I' for Inactive)
DOCKED: REMARK    1  A    between atoms: C1_1  and  C2_2
DOCKED: REMARK    2  A    between atoms: C2_2  and  C3_3
DOCKED: REMARK    3  A    between atoms: C3_3  and  C4_4
DOCKED: REMARK    4  A    between atoms: C3_3  and  C5_5
DOCKED: REMARK    5  A    between atoms: C5_5  and  C6_6
DOCKED: REMARK    6  A    between atoms: C6_6  and  N1_7
DOCKED: REMARK    7  A    between atoms: C6_6  and  C15_19
DOCKED: REMARK    8  A    between atoms: C7_8  and  C8_10
DOCKED: REMARK    9  A    between atoms: C8_10  and  C9_11
DOCKED: REMARK   10  A    between atoms: C8_10  and  N2_15
DOCKED: REMARK   11  A    between atoms: C9_11  and  C10_12
DOCKED: REMARK   12  A    between atoms: C10_12  and  C11_13
DOCKED: REMARK   13  A    between atoms: C10_12  and  C12_14
DOCKED: REMARK   14  A    between atoms: C13_16  and  C14_17
DOCKED: REMARK   15  A    between atoms: C15_19  and  O3_20
DOCKED: REMARK   16  A    between atoms: C15_19  and  C16_21
DOCKED: REMARK   17  A    between atoms: C16_21  and  C17_22
DOCKED: REMARK   18  A    between atoms: N3_24  and  C18_25
DOCKED: REMARK   19  A    between atoms: C18_25  and  C19_26
DOCKED: REMARK   20  A    between atoms: C18_25  and  C26_33
DOCKED: REMARK   21  A    between atoms: C19_26  and  C20_27
DOCKED: REMARK   22  A    between atoms: C26_33  and  O5_34
DOCKED: REMARK   23  A    between atoms: C26_33  and  C27_35
DOCKED: REMARK   24  A    between atoms: C27_35  and  C28_36
DOCKED: REMARK   25  A    between atoms: N4_38  and  C29_39
DOCKED: REMARK   26  A    between atoms: C29_39  and  C30_40
DOCKED: REMARK   27  A    between atoms: C29_39  and  C39_53
DOCKED: REMARK   28  A    between atoms: N5_42  and  C31_43
DOCKED: REMARK   29  A    between atoms: C31_43  and  C32_44
DOCKED: REMARK   30  A    between atoms: C35_47  and  C36_48
DOCKED: REMARK   31  A    between atoms: C36_48  and  O9_50
DOCKED: REMARK   32  A    between atoms: C39_53  and  C40_54
DOCKED: REMARK   33  A    between atoms: C39_53  and  C41_55
DOCKED: REMARK                            x       y       z     vdW  Elec       q    Type
DOCKED: REMARK                         _______ _______ _______ _____ _____    ______ ____
DOCKED: USER                              x       y       z     vdW  Elec       q    Type
DOCKED: USER                           _______ _______ _______ _____ _____    ______ ____
DOCKED: ROOT
DOCKED: ATOM      1  C18 UNL     1       6.218  -3.247   3.506 +0.00 +0.00    +0.106 C  
DOCKED: ENDROOT
DOCKED: BRANCH   1   4
DOCKED: ATOM      2  C17 UNL     1       4.308  -2.285   2.210 +0.00 +0.00    +0.216 C  
DOCKED: ATOM      3  O4  UNL     1       3.457  -2.700   2.992 +0.00 -0.00    -0.276 OA 
DOCKED: ATOM      4  N3  UNL     1       5.651  -2.507   2.372 +0.00 -0.00    -0.310 N  
DOCKED: ATOM      5  H32 UNL     1       6.327  -2.188   1.690 +0.00 +0.00    +0.149 HD 
DOCKED: BRANCH   2   6
DOCKED: ATOM      6  C16 UNL     1       3.931  -1.465   0.996 +0.00 +0.00    +0.129 C  
DOCKED: BRANCH   6   7
DOCKED: ATOM      7  C15 UNL     1       4.471  -2.003  -0.330 +0.00 +0.00    +0.143 C  
DOCKED: BRANCH   7   8
DOCKED: ATOM      8  O3  UNL     1       5.614  -2.838  -0.063 +0.00 -0.00    -0.389 OA 
DOCKED: ATOM      9  H29 UNL     1       6.315  -2.274   0.327 +0.00 +0.00    +0.210 HD 
DOCKED: ENDBRANCH   7   8
DOCKED: BRANCH   7  10
DOCKED: ATOM     10  C6  UNL     1       4.817  -0.968  -1.440 +0.00 +0.00    +0.102 C  
DOCKED: BRANCH  10  11
DOCKED: ATOM     11  N1  UNL     1       6.254  -0.670  -1.372 +0.00 -0.00    -0.308 N  
DOCKED: ATOM     12  C7  UNL     1       6.965  -0.105  -2.404 +0.00 +0.00    +0.234 C  
DOCKED: ATOM     13  O1  UNL     1       6.442   0.290  -3.448 +0.00 -0.00    -0.274 OA 
DOCKED: ATOM     14  H13 UNL     1       6.736  -0.947  -0.522 +0.00 +0.00    +0.149 HD 
DOCKED: BRANCH  12  15
DOCKED: ATOM     15  C8  UNL     1       8.487   0.015  -2.137 +0.00 +0.00    +0.159 C  
DOCKED: BRANCH  15  16
DOCKED: ATOM     16  N2  UNL     1       8.997  -1.346  -2.022 +0.00 -0.00    -0.304 N  
DOCKED: ATOM     17  C13 UNL     1       8.667  -2.112  -0.925 +0.00 +0.00    +0.211 C  
DOCKED: ATOM     18  C14 UNL     1       9.022  -3.566  -1.074 +0.00 +0.00    +0.109 C  
DOCKED: ATOM     19  O2  UNL     1       8.127  -1.663   0.084 +0.00 -0.00    -0.276 OA 
DOCKED: ATOM     20  H24 UNL     1       9.056  -1.851  -2.901 +0.00 +0.00    +0.149 HD 
DOCKED: ENDBRANCH  15  16
DOCKED: BRANCH  15  21
DOCKED: ATOM     21  C9  UNL     1       9.172   0.789  -3.273 +0.00 +0.00    +0.034 C  
DOCKED: BRANCH  21  22
DOCKED: ATOM     22  C10 UNL     1      10.468   1.548  -2.920 +0.00 -0.00    -0.015 C  
DOCKED: ATOM     23  C11 UNL     1      11.261   0.899  -1.784 +0.00 +0.00    +0.007 C  
DOCKED: ATOM     24  C12 UNL     1      10.226   3.027  -2.622 +0.00 +0.00    +0.007 C  
DOCKED: ENDBRANCH  21  22
DOCKED: ENDBRANCH  15  21
DOCKED: ENDBRANCH  12  15
DOCKED: ENDBRANCH  10  11
DOCKED: BRANCH  10  25
DOCKED: ATOM     25  C5  UNL     1       4.512  -1.455  -2.878 +0.00 +0.00    +0.028 C  
DOCKED: BRANCH  25  26
DOCKED: ATOM     26  C3  UNL     1       4.611  -2.970  -3.129 +0.00 -0.00    -0.013 C  
DOCKED: ATOM     27  C4  UNL     1       3.862  -3.349  -4.410 +0.00 +0.00    +0.007 C  
DOCKED: BRANCH  26  29
DOCKED: ATOM     28  C1  UNL     1       6.313  -4.851  -2.541 +0.00 +0.00    +0.004 C  
DOCKED: ATOM     29  C2  UNL     1       6.070  -3.476  -3.155 +0.00 -0.00    -0.000 C  
DOCKED: ENDBRANCH  26  29
DOCKED: ENDBRANCH  25  26
DOCKED: ENDBRANCH  10  25
DOCKED: ENDBRANCH   7  10
DOCKED: ENDBRANCH   6   7
DOCKED: ENDBRANCH   2   6
DOCKED: ENDBRANCH   1   4
DOCKED: BRANCH   1  30
DOCKED: ATOM     30  C19 UNL     1       5.425  -4.553   3.767 +0.00 +0.00    +0.060 C  
DOCKED: BRANCH  30  31
DOCKED: ATOM     31  C20 UNL     1       4.991  -5.373   2.568 +0.00 -0.00    -0.046 A  
DOCKED: ATOM     32  C21 UNL     1       3.653  -5.788   2.472 +0.00 +0.00    +0.004 A  
DOCKED: ATOM     33  C22 UNL     1       3.190  -6.466   1.343 +0.00 +0.00    +0.000 A  
DOCKED: ATOM     34  C23 UNL     1       4.065  -6.770   0.302 +0.00 +0.00    +0.000 A  
DOCKED: ATOM     35  C24 UNL     1       5.392  -6.362   0.382 +0.00 +0.00    +0.000 A  
DOCKED: ATOM     36  C25 UNL     1       5.845  -5.645   1.493 +0.00 +0.00    +0.004 A  
DOCKED: ENDBRANCH  30  31
DOCKED: ENDBRANCH   1  30
DOCKED: BRANCH   1  37
DOCKED: ATOM     37  C26 UNL     1       7.704  -3.579   3.204 +0.00 +0.00    +0.144 C  
DOCKED: BRANCH  37  38
DOCKED: ATOM     38  O5  UNL     1       8.000  -3.163   1.859 +0.00 -0.00    -0.389 OA 
DOCKED: ATOM     39  H42 UNL     1       7.169  -3.286   1.355 +0.00 +0.00    +0.210 HD 
DOCKED: ENDBRANCH  37  38
DOCKED: BRANCH  37  40
DOCKED: ATOM     40  C27 UNL     1       8.658  -2.858   4.162 +0.00 +0.00    +0.129 C  
DOCKED: BRANCH  40  41
DOCKED: ATOM     41  C28 UNL     1       8.274  -1.400   4.301 +0.00 +0.00    +0.216 C  
DOCKED: ATOM     42  O6  UNL     1       8.147  -0.839   5.385 +0.00 -0.00    -0.276 OA 
DOCKED: ATOM     43  N4  UNL     1       8.092  -0.774   3.093 +0.00 -0.00    -0.304 N  
DOCKED: ATOM     44  H45 UNL     1       8.135  -1.307   2.228 +0.00 +0.00    +0.149 HD 
DOCKED: BRANCH  43  45
DOCKED: ATOM     45  C29 UNL     1       7.751   0.643   2.955 +0.00 +0.00    +0.161 C  
DOCKED: BRANCH  45  46
DOCKED: ATOM     46  C30 UNL     1       6.549   0.657   1.988 +0.00 +0.00    +0.234 C  
DOCKED: ATOM     47  O7  UNL     1       6.394  -0.222   1.141 +0.00 -0.00    -0.274 OA 
DOCKED: ATOM     48  N5  UNL     1       5.691   1.724   2.126 +0.00 -0.00    -0.310 N  
DOCKED: ATOM     49  H47 UNL     1       5.943   2.476   2.752 +0.00 +0.00    +0.149 HD 
DOCKED: BRANCH  48  50
DOCKED: ATOM     50  C31 UNL     1       4.653   1.984   1.157 +0.00 +0.00    +0.139 C  
DOCKED: BRANCH  50  51
DOCKED: ATOM     51  C32 UNL     1       5.252   2.459  -0.145 +0.00 -0.00    -0.030 A  
DOCKED: ATOM     52  C33 UNL     1       4.503   2.396  -1.330 +0.00 +0.00    +0.006 A  
DOCKED: ATOM     53  C34 UNL     1       5.065   2.774  -2.552 +0.00 +0.00    +0.015 A  
DOCKED: ATOM     54  C35 UNL     1       6.387   3.228  -2.605 +0.00 +0.00    +0.059 A  
DOCKED: ATOM     55  C37 UNL     1       7.143   3.296  -1.429 +0.00 +0.00    +0.015 A  
DOCKED: ATOM     56  C38 UNL     1       6.579   2.910  -0.207 +0.00 +0.00    +0.006 A  
DOCKED: BRANCH  54  57
DOCKED: ATOM     57  C36 UNL     1       6.948   3.619  -3.924 +0.00 +0.00    +0.337 C  
DOCKED: ATOM     58  O8  UNL     1       7.416   4.708  -4.206 +0.00 -0.00    -0.245 OA 
DOCKED: BRANCH  57  59
DOCKED: ATOM     59  O9  UNL     1       6.884   2.632  -4.833 +0.00 -0.00    -0.477 OA 
DOCKED: ATOM     60  H52 UNL     1       6.710   1.832  -4.290 +0.00 +0.00    +0.295 HD 
DOCKED: ENDBRANCH  57  59
DOCKED: ENDBRANCH  54  57
DOCKED: ENDBRANCH  50  51
DOCKED: ENDBRANCH  48  50
DOCKED: ENDBRANCH  45  46
DOCKED: BRANCH  45  61
DOCKED: ATOM     61  C39 UNL     1       8.941   1.457   2.392 +0.00 +0.00    +0.012 C  
DOCKED: ATOM     62  C40 UNL     1       8.698   2.968   2.468 +0.00 +0.00    +0.009 C  
DOCKED: ATOM     63  C41 UNL     1       9.248   1.090   0.936 +0.00 +0.00    +0.009 C  
DOCKED: ENDBRANCH  45  61
DOCKED: ENDBRANCH  43  45
DOCKED: ENDBRANCH  40  41
DOCKED: ENDBRANCH  37  40
DOCKED: ENDBRANCH   1  37
DOCKED: TORSDOF 26
DOCKED: TER
DOCKED: ENDMDL
________________________________________________________________________________


    FINAL DOCKED STATE:
    ________________________


Run:   11 / 20
Time taken for this run:   3.577s

DOCKED: MODEL        11
DOCKED: USER    Run = 11
DOCKED: USER
DOCKED: USER    Estimated Free Energy of Binding    =  +7.76 kcal/mol  [=(1)+(2)+(3)-(4)]
DOCKED: USER
DOCKED: USER    (1) Final Intermolecular Energy     =  +0.00 kcal/mol
DOCKED: USER        vdW + Hbond + desolv Energy     =  +0.00 kcal/mol
DOCKED: USER        Electrostatic Energy            =  +0.00 kcal/mol
DOCKED: USER        Moving Ligand-Fixed Receptor    =  +0.00 kcal/mol
DOCKED: USER        Moving Ligand-Moving Receptor   =  +0.00 kcal/mol
DOCKED: USER    (2) Final Total Internal Energy     = -16.52 kcal/mol
DOCKED: USER    (3) Torsional Free Energy           =  +7.76 kcal/mol
DOCKED: USER    (4) Unbound System's Energy         = -16.52 kcal/mol
DOCKED: USER
DOCKED: USER
DOCKED: REMARK  Name = ligands/ligand_4.pdb
DOCKED: REMARK  33 active torsions:
DOCKED: REMARK  status: ('A' for Active; 'I' for Inactive)
DOCKED: REMARK    1  A    between atoms: C1_1  and  C2_2
DOCKED: REMARK    2  A    between atoms: C2_2  and  C3_3
DOCKED: REMARK    3  A    between atoms: C3_3  and  C4_4
DOCKED: REMARK    4  A    between atoms: C3_3  and  C5_5
DOCKED: REMARK    5  A    between atoms: C5_5  and  C6_6
DOCKED: REMARK    6  A    between atoms: C6_6  and  N1_7
DOCKED: REMARK    7  A    between atoms: C6_6  and  C15_19
DOCKED: REMARK    8  A    between atoms: C7_8  and  C8_10
DOCKED: REMARK    9  A    between atoms: C8_10  and  C9_11
DOCKED: REMARK   10  A    between atoms: C8_10  and  N2_15
DOCKED: REMARK   11  A    between atoms: C9_11  and  C10_12
DOCKED: REMARK   12  A    between atoms: C10_12  and  C11_13
DOCKED: REMARK   13  A    between atoms: C10_12  and  C12_14
DOCKED: REMARK   14  A    between atoms: C13_16  and  C14_17
DOCKED: REMARK   15  A    between atoms: C15_19  and  O3_20
DOCKED: REMARK   16  A    between atoms: C15_19  and  C16_21
DOCKED: REMARK   17  A    between atoms: C16_21  and  C17_22
DOCKED: REMARK   18  A    between atoms: N3_24  and  C18_25
DOCKED: REMARK   19  A    between atoms: C18_25  and  C19_26
DOCKED: REMARK   20  A    between atoms: C18_25  and  C26_33
DOCKED: REMARK   21  A    between atoms: C19_26  and  C20_27
DOCKED: REMARK   22  A    between atoms: C26_33  and  O5_34
DOCKED: REMARK   23  A    between atoms: C26_33  and  C27_35
DOCKED: REMARK   24  A    between atoms: C27_35  and  C28_36
DOCKED: REMARK   25  A    between atoms: N4_38  and  C29_39
DOCKED: REMARK   26  A    between atoms: C29_39  and  C30_40
DOCKED: REMARK   27  A    between atoms: C29_39  and  C39_53
DOCKED: REMARK   28  A    between atoms: N5_42  and  C31_43
DOCKED: REMARK   29  A    between atoms: C31_43  and  C32_44
DOCKED: REMARK   30  A    between atoms: C35_47  and  C36_48
DOCKED: REMARK   31  A    between atoms: C36_48  and  O9_50
DOCKED: REMARK   32  A    between atoms: C39_53  and  C40_54
DOCKED: REMARK   33  A    between atoms: C39_53  and  C41_55
DOCKED: REMARK                            x       y       z     vdW  Elec       q    Type
DOCKED: REMARK                         _______ _______ _______ _____ _____    ______ ____
DOCKED: USER                              x       y       z     vdW  Elec       q    Type
DOCKED: USER                           _______ _______ _______ _____ _____    ______ ____
DOCKED: ROOT
DOCKED: ATOM      1  C18 UNL     1      10.178  -8.801   4.756 +0.00 +0.00    +0.106 C  
DOCKED: ENDROOT
DOCKED: BRANCH   1   4
DOCKED: ATOM      2  C17 UNL     1       9.468  -6.592   5.689 +0.00 +0.00    +0.216 C  
DOCKED: ATOM      3  O4  UNL     1      10.305  -6.607   6.589 +0.00 -0.00    -0.276 OA 
DOCKED: ATOM      4  N3  UNL     1       9.330  -7.602   4.773 +0.00 -0.00    -0.310 N  
DOCKED: ATOM      5  H32 UNL     1       8.605  -7.581   4.068 +0.00 +0.00    +0.149 HD 
DOCKED: BRANCH   2   6
DOCKED: ATOM      6  C16 UNL     1       8.523  -5.425   5.511 +0.00 +0.00    +0.129 C  
DOCKED: BRANCH   6   7
DOCKED: ATOM      7  C15 UNL     1       8.610  -4.734   4.149 +0.00 +0.00    +0.143 C  
DOCKED: BRANCH   7   8
DOCKED: ATOM      8  O3  UNL     1       8.877  -5.728   3.140 +0.00 -0.00    -0.389 OA 
DOCKED: ATOM      9  H29 UNL     1       9.849  -5.813   3.050 +0.00 +0.00    +0.210 HD 
DOCKED: ENDBRANCH   7   8
DOCKED: BRANCH   7  10
DOCKED: ATOM     10  C6  UNL     1       9.610  -3.550   4.005 +0.00 +0.00    +0.102 C  
DOCKED: BRANCH  10  11
DOCKED: ATOM     11  N1  UNL     1      10.723  -3.978   3.145 +0.00 -0.00    -0.308 N  
DOCKED: ATOM     12  C7  UNL     1      11.808  -3.186   2.853 +0.00 +0.00    +0.234 C  
DOCKED: ATOM     13  O1  UNL     1      11.992  -2.078   3.362 +0.00 -0.00    -0.274 OA 
DOCKED: ATOM     14  H13 UNL     1      10.642  -4.896   2.720 +0.00 +0.00    +0.149 HD 
DOCKED: BRANCH  12  15
DOCKED: ATOM     15  C8  UNL     1      12.799  -3.814   1.841 +0.00 +0.00    +0.159 C  
DOCKED: BRANCH  15  16
DOCKED: ATOM     16  N2  UNL     1      12.211  -3.636   0.520 +0.00 -0.00    -0.304 N  
DOCKED: ATOM     17  C13 UNL     1      11.005  -4.233   0.220 +0.00 +0.00    +0.211 C  
DOCKED: ATOM     18  C14 UNL     1      10.389  -3.739  -1.060 +0.00 +0.00    +0.109 C  
DOCKED: ATOM     19  O2  UNL     1      10.470  -5.084   0.927 +0.00 -0.00    -0.276 OA 
DOCKED: ATOM     20  H24 UNL     1      12.353  -2.717   0.113 +0.00 +0.00    +0.149 HD 
DOCKED: ENDBRANCH  15  16
DOCKED: BRANCH  15  21
DOCKED: ATOM     21  C9  UNL     1      14.176  -3.141   1.951 +0.00 +0.00    +0.034 C  
DOCKED: BRANCH  21  22
DOCKED: ATOM     22  C10 UNL     1      15.334  -4.002   2.496 +0.00 -0.00    -0.015 C  
DOCKED: ATOM     23  C11 UNL     1      16.297  -4.484   1.408 +0.00 +0.00    +0.007 C  
DOCKED: ATOM     24  C12 UNL     1      14.849  -5.183   3.337 +0.00 +0.00    +0.007 C  
DOCKED: ENDBRANCH  21  22
DOCKED: ENDBRANCH  15  21
DOCKED: ENDBRANCH  12  15
DOCKED: ENDBRANCH  10  11
DOCKED: BRANCH  10  25
DOCKED: ATOM     25  C5  UNL     1       8.997  -2.278   3.370 +0.00 +0.00    +0.028 C  
DOCKED: BRANCH  25  26
DOCKED: ATOM     26  C3  UNL     1       8.214  -2.469   2.059 +0.00 -0.00    -0.013 C  
DOCKED: ATOM     27  C4  UNL     1       6.707  -2.401   2.321 +0.00 +0.00    +0.007 C  
DOCKED: BRANCH  26  29
DOCKED: ATOM     28  C1  UNL     1      10.005  -0.813   1.145 +0.00 +0.00    +0.004 C  
DOCKED: ATOM     29  C2  UNL     1       8.643  -1.473   0.957 +0.00 -0.00    -0.000 C  
DOCKED: ENDBRANCH  26  29
DOCKED: ENDBRANCH  25  26
DOCKED: ENDBRANCH  10  25
DOCKED: ENDBRANCH   7  10
DOCKED: ENDBRANCH   6   7
DOCKED: ENDBRANCH   2   6
DOCKED: ENDBRANCH   1   4
DOCKED: BRANCH   1  30
DOCKED: ATOM     30  C19 UNL     1       9.379 -10.050   5.208 +0.00 +0.00    +0.060 C  
DOCKED: BRANCH  30  31
DOCKED: ATOM     31  C20 UNL     1       7.954 -10.199   4.715 +0.00 -0.00    -0.046 A  
DOCKED: ATOM     32  C21 UNL     1       6.928  -9.491   5.364 +0.00 +0.00    +0.004 A  
DOCKED: ATOM     33  C22 UNL     1       5.616  -9.529   4.887 +0.00 +0.00    +0.000 A  
DOCKED: ATOM     34  C23 UNL     1       5.300 -10.299   3.771 +0.00 +0.00    +0.000 A  
DOCKED: ATOM     35  C24 UNL     1       6.305 -11.002   3.117 +0.00 +0.00    +0.000 A  
DOCKED: ATOM     36  C25 UNL     1       7.626 -10.931   3.568 +0.00 +0.00    +0.004 A  
DOCKED: ENDBRANCH  30  31
DOCKED: ENDBRANCH   1  30
DOCKED: BRANCH   1  37
DOCKED: ATOM     37  C26 UNL     1      10.729  -9.013   3.320 +0.00 +0.00    +0.144 C  
DOCKED: BRANCH  37  38
DOCKED: ATOM     38  O5  UNL     1       9.941  -8.227   2.408 +0.00 -0.00    -0.389 OA 
DOCKED: ATOM     39  H42 UNL     1      10.107  -7.293   2.650 +0.00 +0.00    +0.210 HD 
DOCKED: ENDBRANCH  37  38
DOCKED: BRANCH  37  40
DOCKED: ATOM     40  C27 UNL     1      12.194  -8.582   3.200 +0.00 +0.00    +0.129 C  
DOCKED: BRANCH  40  41
DOCKED: ATOM     41  C28 UNL     1      12.340  -7.461   2.194 +0.00 +0.00    +0.216 C  
DOCKED: ATOM     42  O6  UNL     1      11.898  -6.330   2.378 +0.00 -0.00    -0.276 OA 
DOCKED: ATOM     43  N4  UNL     1      13.021  -7.838   1.063 +0.00 -0.00    -0.304 N  
DOCKED: ATOM     44  H45 UNL     1      13.297  -8.807   0.930 +0.00 +0.00    +0.149 HD 
DOCKED: BRANCH  43  45
DOCKED: ATOM     45  C29 UNL     1      13.324  -6.929  -0.044 +0.00 +0.00    +0.161 C  
DOCKED: BRANCH  45  46
DOCKED: ATOM     46  C30 UNL     1      12.113  -7.059  -0.991 +0.00 +0.00    +0.234 C  
DOCKED: ATOM     47  O7  UNL     1      12.235  -6.943  -2.210 +0.00 -0.00    -0.274 OA 
DOCKED: ATOM     48  N5  UNL     1      10.904  -7.287  -0.377 +0.00 -0.00    -0.310 N  
DOCKED: ATOM     49  H47 UNL     1      10.851  -7.245   0.631 +0.00 +0.00    +0.149 HD 
DOCKED: BRANCH  48  50
DOCKED: ATOM     50  C31 UNL     1       9.662  -7.215  -1.113 +0.00 +0.00    +0.139 C  
DOCKED: BRANCH  50  51
DOCKED: ATOM     51  C32 UNL     1       8.496  -7.069  -0.166 +0.00 -0.00    -0.030 A  
DOCKED: ATOM     52  C33 UNL     1       7.944  -5.803   0.082 +0.00 +0.00    +0.006 A  
DOCKED: ATOM     53  C34 UNL     1       6.905  -5.643   1.002 +0.00 +0.00    +0.015 A  
DOCKED: ATOM     54  C35 UNL     1       6.397  -6.754   1.686 +0.00 +0.00    +0.059 A  
DOCKED: ATOM     55  C37 UNL     1       6.939  -8.021   1.446 +0.00 +0.00    +0.015 A  
DOCKED: ATOM     56  C38 UNL     1       7.985  -8.177   0.528 +0.00 +0.00    +0.006 A  
DOCKED: BRANCH  54  57
DOCKED: ATOM     57  C36 UNL     1       5.293  -6.542   2.657 +0.00 +0.00    +0.337 C  
DOCKED: ATOM     58  O8  UNL     1       4.110  -6.742   2.448 +0.00 -0.00    -0.245 OA 
DOCKED: BRANCH  57  59
DOCKED: ATOM     59  O9  UNL     1       5.721  -6.076   3.842 +0.00 -0.00    -0.477 OA 
DOCKED: ATOM     60  H52 UNL     1       6.689  -5.969   3.710 +0.00 +0.00    +0.295 HD 
DOCKED: ENDBRANCH  57  59
DOCKED: ENDBRANCH  54  57
DOCKED: ENDBRANCH  50  51
DOCKED: ENDBRANCH  48  50
DOCKED: ENDBRANCH  45  46
DOCKED: BRANCH  45  61
DOCKED: ATOM     61  C39 UNL     1      14.642  -7.323  -0.753 +0.00 +0.00    +0.012 C  
DOCKED: ATOM     62  C40 UNL     1      15.704  -7.824   0.231 +0.00 +0.00    +0.009 C  
DOCKED: ATOM     63  C41 UNL     1      15.236  -6.156  -1.549 +0.00 +0.00    +0.009 C  
DOCKED: ENDBRANCH  45  61
DOCKED: ENDBRANCH  43  45
DOCKED: ENDBRANCH  40  41
DOCKED: ENDBRANCH  37  40
DOCKED: ENDBRANCH   1  37
DOCKED: TORSDOF 26
DOCKED: TER
DOCKED: ENDMDL
________________________________________________________________________________


    FINAL DOCKED STATE:
    ________________________


Run:   12 / 20
Time taken for this run:   3.577s

DOCKED: MODEL        12
DOCKED: USER    Run = 12
DOCKED: USER
DOCKED: USER    Estimated Free Energy of Binding    =  +7.76 kcal/mol  [=(1)+(2)+(3)-(4)]
DOCKED: USER
DOCKED: USER    (1) Final Intermolecular Energy     =  +0.00 kcal/mol
DOCKED: USER        vdW + Hbond + desolv Energy     =  +0.00 kcal/mol
DOCKED: USER        Electrostatic Energy            =  +0.00 kcal/mol
DOCKED: USER        Moving Ligand-Fixed Receptor    =  +0.00 kcal/mol
DOCKED: USER        Moving Ligand-Moving Receptor   =  +0.00 kcal/mol
DOCKED: USER    (2) Final Total Internal Energy     = -16.87 kcal/mol
DOCKED: USER    (3) Torsional Free Energy           =  +7.76 kcal/mol
DOCKED: USER    (4) Unbound System's Energy         = -16.87 kcal/mol
DOCKED: USER
DOCKED: USER
DOCKED: REMARK  Name = ligands/ligand_4.pdb
DOCKED: REMARK  33 active torsions:
DOCKED: REMARK  status: ('A' for Active; 'I' for Inactive)
DOCKED: REMARK    1  A    between atoms: C1_1  and  C2_2
DOCKED: REMARK    2  A    between atoms: C2_2  and  C3_3
DOCKED: REMARK    3  A    between atoms: C3_3  and  C4_4
DOCKED: REMARK    4  A    between atoms: C3_3  and  C5_5
DOCKED: REMARK    5  A    between atoms: C5_5  and  C6_6
DOCKED: REMARK    6  A    between atoms: C6_6  and  N1_7
DOCKED: REMARK    7  A    between atoms: C6_6  and  C15_19
DOCKED: REMARK    8  A    between atoms: C7_8  and  C8_10
DOCKED: REMARK    9  A    between atoms: C8_10  and  C9_11
DOCKED: REMARK   10  A    between atoms: C8_10  and  N2_15
DOCKED: REMARK   11  A    between atoms: C9_11  and  C10_12
DOCKED: REMARK   12  A    between atoms: C10_12  and  C11_13
DOCKED: REMARK   13  A    between atoms: C10_12  and  C12_14
DOCKED: REMARK   14  A    between atoms: C13_16  and  C14_17
DOCKED: REMARK   15  A    between atoms: C15_19  and  O3_20
DOCKED: REMARK   16  A    between atoms: C15_19  and  C16_21
DOCKED: REMARK   17  A    between atoms: C16_21  and  C17_22
DOCKED: REMARK   18  A    between atoms: N3_24  and  C18_25
DOCKED: REMARK   19  A    between atoms: C18_25  and  C19_26
DOCKED: REMARK   20  A    between atoms: C18_25  and  C26_33
DOCKED: REMARK   21  A    between atoms: C19_26  and  C20_27
DOCKED: REMARK   22  A    between atoms: C26_33  and  O5_34
DOCKED: REMARK   23  A    between atoms: C26_33  and  C27_35
DOCKED: REMARK   24  A    between atoms: C27_35  and  C28_36
DOCKED: REMARK   25  A    between atoms: N4_38  and  C29_39
DOCKED: REMARK   26  A    between atoms: C29_39  and  C30_40
DOCKED: REMARK   27  A    between atoms: C29_39  and  C39_53
DOCKED: REMARK   28  A    between atoms: N5_42  and  C31_43
DOCKED: REMARK   29  A    between atoms: C31_43  and  C32_44
DOCKED: REMARK   30  A    between atoms: C35_47  and  C36_48
DOCKED: REMARK   31  A    between atoms: C36_48  and  O9_50
DOCKED: REMARK   32  A    between atoms: C39_53  and  C40_54
DOCKED: REMARK   33  A    between atoms: C39_53  and  C41_55
DOCKED: REMARK                            x       y       z     vdW  Elec       q    Type
DOCKED: REMARK                         _______ _______ _______ _____ _____    ______ ____
DOCKED: USER                              x       y       z     vdW  Elec       q    Type
DOCKED: USER                           _______ _______ _______ _____ _____    ______ ____
DOCKED: ROOT
DOCKED: ATOM      1  C18 UNL     1       8.022  -2.477   0.686 +0.00 +0.00    +0.106 C  
DOCKED: ENDROOT
DOCKED: BRANCH   1   4
DOCKED: ATOM      2  C17 UNL     1       9.069  -3.155   2.853 +0.00 +0.00    +0.216 C  
DOCKED: ATOM      3  O4  UNL     1       9.360  -2.005   3.170 +0.00 -0.00    -0.276 OA 
DOCKED: ATOM      4  N3  UNL     1       8.436  -3.475   1.680 +0.00 -0.00    -0.310 N  
DOCKED: ATOM      5  H32 UNL     1       8.246  -4.436   1.426 +0.00 +0.00    +0.149 HD 
DOCKED: BRANCH   2   6
DOCKED: ATOM      6  C16 UNL     1       9.377  -4.325   3.761 +0.00 +0.00    +0.129 C  
DOCKED: BRANCH   6   7
DOCKED: ATOM      7  C15 UNL     1       8.160  -5.164   4.156 +0.00 +0.00    +0.143 C  
DOCKED: BRANCH   7   8
DOCKED: ATOM      8  O3  UNL     1       7.204  -5.132   3.078 +0.00 -0.00    -0.389 OA 
DOCKED: ATOM      9  H29 UNL     1       6.840  -4.224   3.025 +0.00 +0.00    +0.210 HD 
DOCKED: ENDBRANCH   7   8
DOCKED: BRANCH   7  10
DOCKED: ATOM     10  C6  UNL     1       7.456  -4.822   5.501 +0.00 +0.00    +0.102 C  
DOCKED: BRANCH  10  11
DOCKED: ATOM     11  N1  UNL     1       6.498  -3.732   5.266 +0.00 -0.00    -0.308 N  
DOCKED: ATOM     12  C7  UNL     1       6.093  -2.851   6.240 +0.00 +0.00    +0.234 C  
DOCKED: ATOM     13  O1  UNL     1       6.567  -2.836   7.377 +0.00 -0.00    -0.274 OA 
DOCKED: ATOM     14  H13 UNL     1       6.094  -3.676   4.336 +0.00 +0.00    +0.149 HD 
DOCKED: BRANCH  12  15
DOCKED: ATOM     15  C8  UNL     1       4.998  -1.856   5.780 +0.00 +0.00    +0.159 C  
DOCKED: BRANCH  15  16
DOCKED: ATOM     16  N2  UNL     1       5.671  -0.838   4.982 +0.00 -0.00    -0.304 N  
DOCKED: ATOM     17  C13 UNL     1       6.044  -1.120   3.685 +0.00 +0.00    +0.211 C  
DOCKED: ATOM     18  C14 UNL     1       6.464   0.093   2.901 +0.00 +0.00    +0.109 C  
DOCKED: ATOM     19  O2  UNL     1       6.033  -2.250   3.201 +0.00 -0.00    -0.276 OA 
DOCKED: ATOM     20  H24 UNL     1       5.345   0.110   5.143 +0.00 +0.00    +0.149 HD 
DOCKED: ENDBRANCH  15  16
DOCKED: BRANCH  15  21
DOCKED: ATOM     21  C9  UNL     1       3.911  -2.587   4.977 +0.00 +0.00    +0.034 C  
DOCKED: BRANCH  21  22
DOCKED: ATOM     22  C10 UNL     1       2.445  -2.246   5.314 +0.00 -0.00    -0.015 C  
DOCKED: ATOM     23  C11 UNL     1       1.459  -3.350   4.922 +0.00 +0.00    +0.007 C  
DOCKED: ATOM     24  C12 UNL     1       1.999  -0.904   4.734 +0.00 +0.00    +0.007 C  
DOCKED: ENDBRANCH  21  22
DOCKED: ENDBRANCH  15  21
DOCKED: ENDBRANCH  12  15
DOCKED: ENDBRANCH  10  11
DOCKED: BRANCH  10  25
DOCKED: ATOM     25  C5  UNL     1       6.670  -6.003   6.122 +0.00 +0.00    +0.028 C  
DOCKED: BRANCH  25  26
DOCKED: ATOM     26  C3  UNL     1       5.861  -6.881   5.151 +0.00 -0.00    -0.013 C  
DOCKED: ATOM     27  C4  UNL     1       5.427  -8.179   5.838 +0.00 +0.00    +0.007 C  
DOCKED: BRANCH  26  29
DOCKED: ATOM     28  C1  UNL     1       3.381  -6.119   5.375 +0.00 +0.00    +0.004 C  
DOCKED: ATOM     29  C2  UNL     1       4.655  -6.136   4.536 +0.00 -0.00    -0.000 C  
DOCKED: ENDBRANCH  26  29
DOCKED: ENDBRANCH  25  26
DOCKED: ENDBRANCH  10  25
DOCKED: ENDBRANCH   7  10
DOCKED: ENDBRANCH   6   7
DOCKED: ENDBRANCH   2   6
DOCKED: ENDBRANCH   1   4
DOCKED: BRANCH   1  30
DOCKED: ATOM     30  C19 UNL     1       9.034  -2.409  -0.486 +0.00 +0.00    +0.060 C  
DOCKED: BRANCH  30  31
DOCKED: ATOM     31  C20 UNL     1       9.457  -3.711  -1.136 +0.00 -0.00    -0.046 A  
DOCKED: ATOM     32  C21 UNL     1      10.497  -4.457  -0.559 +0.00 +0.00    +0.004 A  
DOCKED: ATOM     33  C22 UNL     1      10.858  -5.705  -1.072 +0.00 +0.00    +0.000 A  
DOCKED: ATOM     34  C23 UNL     1      10.206  -6.215  -2.191 +0.00 +0.00    +0.000 A  
DOCKED: ATOM     35  C24 UNL     1       9.171  -5.490  -2.771 +0.00 +0.00    +0.000 A  
DOCKED: ATOM     36  C25 UNL     1       8.781  -4.260  -2.232 +0.00 +0.00    +0.004 A  
DOCKED: ENDBRANCH  30  31
DOCKED: ENDBRANCH   1  30
DOCKED: BRANCH   1  37
DOCKED: ATOM     37  C26 UNL     1       6.612  -2.849   0.151 +0.00 +0.00    +0.144 C  
DOCKED: BRANCH  37  38
DOCKED: ATOM     38  O5  UNL     1       5.999  -3.762   1.078 +0.00 -0.00    -0.389 OA 
DOCKED: ATOM     39  H42 UNL     1       6.312  -3.490   1.965 +0.00 +0.00    +0.210 HD 
DOCKED: ENDBRANCH  37  38
DOCKED: BRANCH  37  40
DOCKED: ATOM     40  C27 UNL     1       5.713  -1.618   0.005 +0.00 +0.00    +0.129 C  
DOCKED: BRANCH  40  41
DOCKED: ATOM     41  C28 UNL     1       4.256  -2.000   0.156 +0.00 +0.00    +0.216 C  
DOCKED: ATOM     42  O6  UNL     1       3.458  -1.988  -0.777 +0.00 -0.00    -0.276 OA 
DOCKED: ATOM     43  N4  UNL     1       3.926  -2.366   1.437 +0.00 -0.00    -0.304 N  
DOCKED: ATOM     44  H45 UNL     1       4.609  -2.284   2.185 +0.00 +0.00    +0.149 HD 
DOCKED: BRANCH  43  45
DOCKED: ATOM     45  C29 UNL     1       2.590  -2.812   1.836 +0.00 +0.00    +0.161 C  
DOCKED: BRANCH  45  46
DOCKED: ATOM     46  C30 UNL     1       2.595  -4.332   1.566 +0.00 +0.00    +0.234 C  
DOCKED: ATOM     47  O7  UNL     1       2.591  -5.149   2.486 +0.00 -0.00    -0.274 OA 
DOCKED: ATOM     48  N5  UNL     1       2.627  -4.696   0.240 +0.00 -0.00    -0.310 N  
DOCKED: ATOM     49  H47 UNL     1       2.757  -3.981  -0.461 +0.00 +0.00    +0.149 HD 
DOCKED: BRANCH  48  50
DOCKED: ATOM     50  C31 UNL     1       2.852  -6.067  -0.157 +0.00 +0.00    +0.139 C  
DOCKED: BRANCH  50  51
DOCKED: ATOM     51  C32 UNL     1       4.296  -6.449   0.061 +0.00 -0.00    -0.030 A  
DOCKED: ATOM     52  C33 UNL     1       4.674  -7.144   1.221 +0.00 +0.00    +0.006 A  
DOCKED: ATOM     53  C34 UNL     1       6.014  -7.450   1.466 +0.00 +0.00    +0.015 A  
DOCKED: ATOM     54  C35 UNL     1       7.000  -7.070   0.549 +0.00 +0.00    +0.059 A  
DOCKED: ATOM     55  C37 UNL     1       6.635  -6.378  -0.612 +0.00 +0.00    +0.015 A  
DOCKED: ATOM     56  C38 UNL     1       5.291  -6.066  -0.851 +0.00 +0.00    +0.006 A  
DOCKED: BRANCH  54  57
DOCKED: ATOM     57  C36 UNL     1       8.414  -7.413   0.847 +0.00 +0.00    +0.337 C  
DOCKED: ATOM     58  O8  UNL     1       8.969  -8.460   0.565 +0.00 -0.00    -0.245 OA 
DOCKED: BRANCH  57  59
DOCKED: ATOM     59  O9  UNL     1       9.063  -6.434   1.499 +0.00 -0.00    -0.477 OA 
DOCKED: ATOM     60  H52 UNL     1       8.347  -5.968   1.984 +0.00 +0.00    +0.295 HD 
DOCKED: ENDBRANCH  57  59
DOCKED: ENDBRANCH  54  57
DOCKED: ENDBRANCH  50  51
DOCKED: ENDBRANCH  48  50
DOCKED: ENDBRANCH  45  46
DOCKED: BRANCH  45  61
DOCKED: ATOM     61  C39 UNL     1       1.488  -2.096   1.018 +0.00 +0.00    +0.012 C  
DOCKED: ATOM     62  C40 UNL     1       1.385  -0.607   1.364 +0.00 +0.00    +0.009 C  
DOCKED: ATOM     63  C41 UNL     1       0.112  -2.737   1.227 +0.00 +0.00    +0.009 C  
DOCKED: ENDBRANCH  45  61
DOCKED: ENDBRANCH  43  45
DOCKED: ENDBRANCH  40  41
DOCKED: ENDBRANCH  37  40
DOCKED: ENDBRANCH   1  37
DOCKED: TORSDOF 26
DOCKED: TER
DOCKED: ENDMDL
________________________________________________________________________________


    FINAL DOCKED STATE:
    ________________________


Run:   13 / 20
Time taken for this run:   3.577s

DOCKED: MODEL        13
DOCKED: USER    Run = 13
DOCKED: USER
DOCKED: USER    Estimated Free Energy of Binding    =  +7.76 kcal/mol  [=(1)+(2)+(3)-(4)]
DOCKED: USER
DOCKED: USER    (1) Final Intermolecular Energy     =  +0.00 kcal/mol
DOCKED: USER        vdW + Hbond + desolv Energy     =  +0.00 kcal/mol
DOCKED: USER        Electrostatic Energy            =  +0.00 kcal/mol
DOCKED: USER        Moving Ligand-Fixed Receptor    =  +0.00 kcal/mol
DOCKED: USER        Moving Ligand-Moving Receptor   =  +0.00 kcal/mol
DOCKED: USER    (2) Final Total Internal Energy     = -17.29 kcal/mol
DOCKED: USER    (3) Torsional Free Energy           =  +7.76 kcal/mol
DOCKED: USER    (4) Unbound System's Energy         = -17.29 kcal/mol
DOCKED: USER
DOCKED: USER
DOCKED: REMARK  Name = ligands/ligand_4.pdb
DOCKED: REMARK  33 active torsions:
DOCKED: REMARK  status: ('A' for Active; 'I' for Inactive)
DOCKED: REMARK    1  A    between atoms: C1_1  and  C2_2
DOCKED: REMARK    2  A    between atoms: C2_2  and  C3_3
DOCKED: REMARK    3  A    between atoms: C3_3  and  C4_4
DOCKED: REMARK    4  A    between atoms: C3_3  and  C5_5
DOCKED: REMARK    5  A    between atoms: C5_5  and  C6_6
DOCKED: REMARK    6  A    between atoms: C6_6  and  N1_7
DOCKED: REMARK    7  A    between atoms: C6_6  and  C15_19
DOCKED: REMARK    8  A    between atoms: C7_8  and  C8_10
DOCKED: REMARK    9  A    between atoms: C8_10  and  C9_11
DOCKED: REMARK   10  A    between atoms: C8_10  and  N2_15
DOCKED: REMARK   11  A    between atoms: C9_11  and  C10_12
DOCKED: REMARK   12  A    between atoms: C10_12  and  C11_13
DOCKED: REMARK   13  A    between atoms: C10_12  and  C12_14
DOCKED: REMARK   14  A    between atoms: C13_16  and  C14_17
DOCKED: REMARK   15  A    between atoms: C15_19  and  O3_20
DOCKED: REMARK   16  A    between atoms: C15_19  and  C16_21
DOCKED: REMARK   17  A    between atoms: C16_21  and  C17_22
DOCKED: REMARK   18  A    between atoms: N3_24  and  C18_25
DOCKED: REMARK   19  A    between atoms: C18_25  and  C19_26
DOCKED: REMARK   20  A    between atoms: C18_25  and  C26_33
DOCKED: REMARK   21  A    between atoms: C19_26  and  C20_27
DOCKED: REMARK   22  A    between atoms: C26_33  and  O5_34
DOCKED: REMARK   23  A    between atoms: C26_33  and  C27_35
DOCKED: REMARK   24  A    between atoms: C27_35  and  C28_36
DOCKED: REMARK   25  A    between atoms: N4_38  and  C29_39
DOCKED: REMARK   26  A    between atoms: C29_39  and  C30_40
DOCKED: REMARK   27  A    between atoms: C29_39  and  C39_53
DOCKED: REMARK   28  A    between atoms: N5_42  and  C31_43
DOCKED: REMARK   29  A    between atoms: C31_43  and  C32_44
DOCKED: REMARK   30  A    between atoms: C35_47  and  C36_48
DOCKED: REMARK   31  A    between atoms: C36_48  and  O9_50
DOCKED: REMARK   32  A    between atoms: C39_53  and  C40_54
DOCKED: REMARK   33  A    between atoms: C39_53  and  C41_55
DOCKED: REMARK                            x       y       z     vdW  Elec       q    Type
DOCKED: REMARK                         _______ _______ _______ _____ _____    ______ ____
DOCKED: USER                              x       y       z     vdW  Elec       q    Type
DOCKED: USER                           _______ _______ _______ _____ _____    ______ ____
DOCKED: ROOT
DOCKED: ATOM      1  C18 UNL     1       8.141   1.855  -1.146 +0.00 +0.00    +0.106 C  
DOCKED: ENDROOT
DOCKED: BRANCH   1   4
DOCKED: ATOM      2  C17 UNL     1       7.684  -0.589  -0.874 +0.00 +0.00    +0.216 C  
DOCKED: ATOM      3  O4  UNL     1       7.058  -0.442   0.173 +0.00 -0.00    -0.276 OA 
DOCKED: ATOM      4  N3  UNL     1       8.243   0.453  -1.568 +0.00 -0.00    -0.310 N  
DOCKED: ATOM      5  H32 UNL     1       8.788   0.298  -2.406 +0.00 +0.00    +0.149 HD 
DOCKED: BRANCH   2   6
DOCKED: ATOM      6  C16 UNL     1       7.869  -1.954  -1.497 +0.00 +0.00    +0.129 C  
DOCKED: BRANCH   6   7
DOCKED: ATOM      7  C15 UNL     1       7.518  -2.030  -2.984 +0.00 +0.00    +0.143 C  
DOCKED: BRANCH   7   8
DOCKED: ATOM      8  O3  UNL     1       7.835  -0.768  -3.602 +0.00 -0.00    -0.389 OA 
DOCKED: ATOM      9  H29 UNL     1       7.174  -0.110  -3.302 +0.00 +0.00    +0.210 HD 
DOCKED: ENDBRANCH   7   8
DOCKED: BRANCH   7  10
DOCKED: ATOM     10  C6  UNL     1       6.069  -2.457  -3.361 +0.00 +0.00    +0.102 C  
DOCKED: BRANCH  10  11
DOCKED: ATOM     11  N1  UNL     1       5.396  -1.318  -4.001 +0.00 -0.00    -0.308 N  
DOCKED: ATOM     12  C7  UNL     1       4.230  -1.428  -4.721 +0.00 +0.00    +0.234 C  
DOCKED: ATOM     13  O1  UNL     1       3.591  -2.478  -4.815 +0.00 -0.00    -0.274 OA 
DOCKED: ATOM     14  H13 UNL     1       5.861  -0.418  -3.932 +0.00 +0.00    +0.149 HD 
DOCKED: BRANCH  12  15
DOCKED: ATOM     15  C8  UNL     1       3.769  -0.108  -5.390 +0.00 +0.00    +0.159 C  
DOCKED: BRANCH  15  16
DOCKED: ATOM     16  N2  UNL     1       4.803   0.251  -6.353 +0.00 -0.00    -0.304 N  
DOCKED: ATOM     17  C13 UNL     1       5.997   0.779  -5.911 +0.00 +0.00    +0.211 C  
DOCKED: ATOM     18  C14 UNL     1       7.061   0.836  -6.973 +0.00 +0.00    +0.109 C  
DOCKED: ATOM     19  O2  UNL     1       6.190   1.164  -4.760 +0.00 -0.00    -0.276 OA 
DOCKED: ATOM     20  H24 UNL     1       4.873  -0.372  -7.151 +0.00 +0.00    +0.149 HD 
DOCKED: ENDBRANCH  15  16
DOCKED: BRANCH  15  21
DOCKED: ATOM     21  C9  UNL     1       2.401  -0.297  -6.062 +0.00 +0.00    +0.034 C  
DOCKED: BRANCH  21  22
DOCKED: ATOM     22  C10 UNL     1       1.154  -0.132  -5.169 +0.00 -0.00    -0.015 C  
DOCKED: ATOM     23  C11 UNL     1       1.202   1.115  -4.283 +0.00 +0.00    +0.007 C  
DOCKED: ATOM     24  C12 UNL     1       0.861  -1.373  -4.325 +0.00 +0.00    +0.007 C  
DOCKED: ENDBRANCH  21  22
DOCKED: ENDBRANCH  15  21
DOCKED: ENDBRANCH  12  15
DOCKED: ENDBRANCH  10  11
DOCKED: BRANCH  10  25
DOCKED: ATOM     25  C5  UNL     1       5.996  -3.651  -4.344 +0.00 +0.00    +0.028 C  
DOCKED: BRANCH  25  26
DOCKED: ATOM     26  C3  UNL     1       5.598  -5.013  -3.747 +0.00 -0.00    -0.013 C  
DOCKED: ATOM     27  C4  UNL     1       6.048  -5.107  -2.286 +0.00 +0.00    +0.007 C  
DOCKED: BRANCH  26  29
DOCKED: ATOM     28  C1  UNL     1       3.196  -4.819  -2.761 +0.00 +0.00    +0.004 C  
DOCKED: ATOM     29  C2  UNL     1       4.089  -5.311  -3.895 +0.00 -0.00    -0.000 C  
DOCKED: ENDBRANCH  26  29
DOCKED: ENDBRANCH  25  26
DOCKED: ENDBRANCH  10  25
DOCKED: ENDBRANCH   7  10
DOCKED: ENDBRANCH   6   7
DOCKED: ENDBRANCH   2   6
DOCKED: ENDBRANCH   1   4
DOCKED: BRANCH   1  30
DOCKED: ATOM     30  C19 UNL     1       8.909   2.092   0.180 +0.00 +0.00    +0.060 C  
DOCKED: BRANCH  30  31
DOCKED: ATOM     31  C20 UNL     1       8.167   1.867   1.481 +0.00 -0.00    -0.046 A  
DOCKED: ATOM     32  C21 UNL     1       6.847   2.332   1.605 +0.00 +0.00    +0.004 A  
DOCKED: ATOM     33  C22 UNL     1       6.096   2.068   2.752 +0.00 +0.00    +0.000 A  
DOCKED: ATOM     34  C23 UNL     1       6.661   1.361   3.810 +0.00 +0.00    +0.000 A  
DOCKED: ATOM     35  C24 UNL     1       7.966   0.891   3.701 +0.00 +0.00    +0.000 A  
DOCKED: ATOM     36  C25 UNL     1       8.703   1.119   2.535 +0.00 +0.00    +0.004 A  
DOCKED: ENDBRANCH  30  31
DOCKED: ENDBRANCH   1  30
DOCKED: BRANCH   1  37
DOCKED: ATOM     37  C26 UNL     1       8.715   2.765  -2.264 +0.00 +0.00    +0.144 C  
DOCKED: BRANCH  37  38
DOCKED: ATOM     38  O5  UNL     1       8.446   2.150  -3.536 +0.00 -0.00    -0.389 OA 
DOCKED: ATOM     39  H42 UNL     1       7.825   1.416  -3.350 +0.00 +0.00    +0.210 HD 
DOCKED: ENDBRANCH  37  38
DOCKED: BRANCH  37  40
DOCKED: ATOM     40  C27 UNL     1       8.082   4.160  -2.249 +0.00 +0.00    +0.129 C  
DOCKED: BRANCH  40  41
DOCKED: ATOM     41  C28 UNL     1       6.610   4.074  -1.907 +0.00 +0.00    +0.216 C  
DOCKED: ATOM     42  O6  UNL     1       6.064   4.819  -1.097 +0.00 -0.00    -0.276 OA 
DOCKED: ATOM     43  N4  UNL     1       5.953   3.087  -2.598 +0.00 -0.00    -0.304 N  
DOCKED: ATOM     44  H45 UNL     1       6.471   2.451  -3.199 +0.00 +0.00    +0.149 HD 
DOCKED: BRANCH  43  45
DOCKED: ATOM     45  C29 UNL     1       4.518   2.824  -2.473 +0.00 +0.00    +0.161 C  
DOCKED: BRANCH  45  46
DOCKED: ATOM     46  C30 UNL     1       4.430   1.315  -2.161 +0.00 +0.00    +0.234 C  
DOCKED: ATOM     47  O7  UNL     1       5.409   0.578  -2.266 +0.00 -0.00    -0.274 OA 
DOCKED: ATOM     48  N5  UNL     1       3.187   0.861  -1.785 +0.00 -0.00    -0.310 N  
DOCKED: ATOM     49  H47 UNL     1       2.399   1.490  -1.840 +0.00 +0.00    +0.149 HD 
DOCKED: BRANCH  48  50
DOCKED: ATOM     50  C31 UNL     1       2.906  -0.552  -1.673 +0.00 +0.00    +0.139 C  
DOCKED: BRANCH  50  51
DOCKED: ATOM     51  C32 UNL     1       3.684  -1.156  -0.529 +0.00 -0.00    -0.030 A  
DOCKED: ATOM     52  C33 UNL     1       3.848  -0.441   0.667 +0.00 +0.00    +0.006 A  
DOCKED: ATOM     53  C34 UNL     1       4.617  -0.960   1.711 +0.00 +0.00    +0.015 A  
DOCKED: ATOM     54  C35 UNL     1       5.232  -2.210   1.575 +0.00 +0.00    +0.059 A  
DOCKED: ATOM     55  C37 UNL     1       5.075  -2.932   0.386 +0.00 +0.00    +0.015 A  
DOCKED: ATOM     56  C38 UNL     1       4.310  -2.405  -0.661 +0.00 +0.00    +0.006 A  
DOCKED: BRANCH  54  57
DOCKED: ATOM     57  C36 UNL     1       6.043  -2.726   2.707 +0.00 +0.00    +0.337 C  
DOCKED: ATOM     58  O8  UNL     1       5.672  -3.530   3.543 +0.00 -0.00    -0.245 OA 
DOCKED: BRANCH  57  59
DOCKED: ATOM     59  O9  UNL     1       7.279  -2.200   2.748 +0.00 -0.00    -0.477 OA 
DOCKED: ATOM     60  H52 UNL     1       7.278  -1.556   2.006 +0.00 +0.00    +0.295 HD 
DOCKED: ENDBRANCH  57  59
DOCKED: ENDBRANCH  54  57
DOCKED: ENDBRANCH  50  51
DOCKED: ENDBRANCH  48  50
DOCKED: ENDBRANCH  45  46
DOCKED: BRANCH  45  61
DOCKED: ATOM     61  C39 UNL     1       3.763   3.177  -3.777 +0.00 +0.00    +0.012 C  
DOCKED: ATOM     62  C40 UNL     1       4.683   3.804  -4.829 +0.00 +0.00    +0.009 C  
DOCKED: ATOM     63  C41 UNL     1       2.597   4.138  -3.521 +0.00 +0.00    +0.009 C  
DOCKED: ENDBRANCH  45  61
DOCKED: ENDBRANCH  43  45
DOCKED: ENDBRANCH  40  41
DOCKED: ENDBRANCH  37  40
DOCKED: ENDBRANCH   1  37
DOCKED: TORSDOF 26
DOCKED: TER
DOCKED: ENDMDL
________________________________________________________________________________


    FINAL DOCKED STATE:
    ________________________


Run:   14 / 20
Time taken for this run:   3.577s

DOCKED: MODEL        14
DOCKED: USER    Run = 14
DOCKED: USER
DOCKED: USER    Estimated Free Energy of Binding    =  +7.76 kcal/mol  [=(1)+(2)+(3)-(4)]
DOCKED: USER
DOCKED: USER    (1) Final Intermolecular Energy     =  +0.00 kcal/mol
DOCKED: USER        vdW + Hbond + desolv Energy     =  +0.00 kcal/mol
DOCKED: USER        Electrostatic Energy            =  +0.00 kcal/mol
DOCKED: USER        Moving Ligand-Fixed Receptor    =  +0.00 kcal/mol
DOCKED: USER        Moving Ligand-Moving Receptor   =  +0.00 kcal/mol
DOCKED: USER    (2) Final Total Internal Energy     = -17.09 kcal/mol
DOCKED: USER    (3) Torsional Free Energy           =  +7.76 kcal/mol
DOCKED: USER    (4) Unbound System's Energy         = -17.09 kcal/mol
DOCKED: USER
DOCKED: USER
DOCKED: REMARK  Name = ligands/ligand_4.pdb
DOCKED: REMARK  33 active torsions:
DOCKED: REMARK  status: ('A' for Active; 'I' for Inactive)
DOCKED: REMARK    1  A    between atoms: C1_1  and  C2_2
DOCKED: REMARK    2  A    between atoms: C2_2  and  C3_3
DOCKED: REMARK    3  A    between atoms: C3_3  and  C4_4
DOCKED: REMARK    4  A    between atoms: C3_3  and  C5_5
DOCKED: REMARK    5  A    between atoms: C5_5  and  C6_6
DOCKED: REMARK    6  A    between atoms: C6_6  and  N1_7
DOCKED: REMARK    7  A    between atoms: C6_6  and  C15_19
DOCKED: REMARK    8  A    between atoms: C7_8  and  C8_10
DOCKED: REMARK    9  A    between atoms: C8_10  and  C9_11
DOCKED: REMARK   10  A    between atoms: C8_10  and  N2_15
DOCKED: REMARK   11  A    between atoms: C9_11  and  C10_12
DOCKED: REMARK   12  A    between atoms: C10_12  and  C11_13
DOCKED: REMARK   13  A    between atoms: C10_12  and  C12_14
DOCKED: REMARK   14  A    between atoms: C13_16  and  C14_17
DOCKED: REMARK   15  A    between atoms: C15_19  and  O3_20
DOCKED: REMARK   16  A    between atoms: C15_19  and  C16_21
DOCKED: REMARK   17  A    between atoms: C16_21  and  C17_22
DOCKED: REMARK   18  A    between atoms: N3_24  and  C18_25
DOCKED: REMARK   19  A    between atoms: C18_25  and  C19_26
DOCKED: REMARK   20  A    between atoms: C18_25  and  C26_33
DOCKED: REMARK   21  A    between atoms: C19_26  and  C20_27
DOCKED: REMARK   22  A    between atoms: C26_33  and  O5_34
DOCKED: REMARK   23  A    between atoms: C26_33  and  C27_35
DOCKED: REMARK   24  A    between atoms: C27_35  and  C28_36
DOCKED: REMARK   25  A    between atoms: N4_38  and  C29_39
DOCKED: REMARK   26  A    between atoms: C29_39  and  C30_40
DOCKED: REMARK   27  A    between atoms: C29_39  and  C39_53
DOCKED: REMARK   28  A    between atoms: N5_42  and  C31_43
DOCKED: REMARK   29  A    between atoms: C31_43  and  C32_44
DOCKED: REMARK   30  A    between atoms: C35_47  and  C36_48
DOCKED: REMARK   31  A    between atoms: C36_48  and  O9_50
DOCKED: REMARK   32  A    between atoms: C39_53  and  C40_54
DOCKED: REMARK   33  A    between atoms: C39_53  and  C41_55
DOCKED: REMARK                            x       y       z     vdW  Elec       q    Type
DOCKED: REMARK                         _______ _______ _______ _____ _____    ______ ____
DOCKED: USER                              x       y       z     vdW  Elec       q    Type
DOCKED: USER                           _______ _______ _______ _____ _____    ______ ____
DOCKED: ROOT
DOCKED: ATOM      1  C18 UNL     1      10.812  -8.786  -4.223 +0.00 +0.00    +0.106 C  
DOCKED: ENDROOT
DOCKED: BRANCH   1   4
DOCKED: ATOM      2  C17 UNL     1      12.948  -9.967  -3.679 +0.00 +0.00    +0.216 C  
DOCKED: ATOM      3  O4  UNL     1      12.408 -11.062  -3.545 +0.00 -0.00    -0.276 OA 
DOCKED: ATOM      4  N3  UNL     1      12.262  -8.823  -3.993 +0.00 -0.00    -0.310 N  
DOCKED: ATOM      5  H32 UNL     1      12.727  -7.926  -4.056 +0.00 +0.00    +0.149 HD 
DOCKED: BRANCH   2   6
DOCKED: ATOM      6  C16 UNL     1      14.443  -9.801  -3.522 +0.00 +0.00    +0.129 C  
DOCKED: BRANCH   6   7
DOCKED: ATOM      7  C15 UNL     1      14.916  -8.350  -3.409 +0.00 +0.00    +0.143 C  
DOCKED: BRANCH   7   8
DOCKED: ATOM      8  O3  UNL     1      13.920  -7.590  -2.698 +0.00 -0.00    -0.389 OA 
DOCKED: ATOM      9  H29 UNL     1      13.458  -7.018  -3.346 +0.00 +0.00    +0.210 HD 
DOCKED: ENDBRANCH   7   8
DOCKED: BRANCH   7  10
DOCKED: ATOM     10  C6  UNL     1      15.305  -7.616  -4.725 +0.00 +0.00    +0.102 C  
DOCKED: BRANCH  10  11
DOCKED: ATOM     11  N1  UNL     1      15.254  -6.167  -4.486 +0.00 -0.00    -0.308 N  
DOCKED: ATOM     12  C7  UNL     1      16.109  -5.504  -3.637 +0.00 +0.00    +0.234 C  
DOCKED: ATOM     13  O1  UNL     1      17.057  -6.051  -3.070 +0.00 -0.00    -0.274 OA 
DOCKED: ATOM     14  H13 UNL     1      14.511  -5.656  -4.951 +0.00 +0.00    +0.149 HD 
DOCKED: BRANCH  12  15
DOCKED: ATOM     15  C8  UNL     1      15.793  -3.996  -3.467 +0.00 +0.00    +0.159 C  
DOCKED: BRANCH  15  16
DOCKED: ATOM     16  N2  UNL     1      14.880  -3.888  -2.337 +0.00 -0.00    -0.304 N  
DOCKED: ATOM     17  C13 UNL     1      13.626  -4.455  -2.413 +0.00 +0.00    +0.211 C  
DOCKED: ATOM     18  C14 UNL     1      12.909  -4.513  -1.092 +0.00 +0.00    +0.109 C  
DOCKED: ATOM     19  O2  UNL     1      13.131  -4.884  -3.453 +0.00 -0.00    -0.276 OA 
DOCKED: ATOM     20  H24 UNL     1      15.325  -3.941  -1.426 +0.00 +0.00    +0.149 HD 
DOCKED: ENDBRANCH  15  16
DOCKED: BRANCH  15  21
DOCKED: ATOM     21  C9  UNL     1      17.087  -3.200  -3.237 +0.00 +0.00    +0.034 C  
DOCKED: BRANCH  21  22
DOCKED: ATOM     22  C10 UNL     1      17.608  -2.356  -4.418 +0.00 -0.00    -0.015 C  
DOCKED: ATOM     23  C11 UNL     1      16.564  -1.389  -4.981 +0.00 +0.00    +0.007 C  
DOCKED: ATOM     24  C12 UNL     1      18.203  -3.207  -5.539 +0.00 +0.00    +0.007 C  
DOCKED: ENDBRANCH  21  22
DOCKED: ENDBRANCH  15  21
DOCKED: ENDBRANCH  12  15
DOCKED: ENDBRANCH  10  11
DOCKED: BRANCH  10  25
DOCKED: ATOM     25  C5  UNL     1      16.727  -7.951  -5.241 +0.00 +0.00    +0.028 C  
DOCKED: BRANCH  25  26
DOCKED: ATOM     26  C3  UNL     1      17.407  -6.893  -6.127 +0.00 -0.00    -0.013 C  
DOCKED: ATOM     27  C4  UNL     1      18.808  -6.574  -5.598 +0.00 +0.00    +0.007 C  
DOCKED: BRANCH  26  29
DOCKED: ATOM     28  C1  UNL     1      17.237  -6.167  -8.622 +0.00 +0.00    +0.004 C  
DOCKED: ATOM     29  C2  UNL     1      17.442  -7.296  -7.618 +0.00 -0.00    -0.000 C  
DOCKED: ENDBRANCH  26  29
DOCKED: ENDBRANCH  25  26
DOCKED: ENDBRANCH  10  25
DOCKED: ENDBRANCH   7  10
DOCKED: ENDBRANCH   6   7
DOCKED: ENDBRANCH   2   6
DOCKED: ENDBRANCH   1   4
DOCKED: BRANCH   1  30
DOCKED: ATOM     30  C19 UNL     1      10.074  -9.747  -3.257 +0.00 +0.00    +0.060 C  
DOCKED: BRANCH  30  31
DOCKED: ATOM     31  C20 UNL     1       9.144 -10.782  -3.857 +0.00 -0.00    -0.046 A  
DOCKED: ATOM     32  C21 UNL     1       8.444 -10.470  -5.035 +0.00 +0.00    +0.004 A  
DOCKED: ATOM     33  C22 UNL     1       7.647 -11.424  -5.672 +0.00 +0.00    +0.000 A  
DOCKED: ATOM     34  C23 UNL     1       7.510 -12.698  -5.125 +0.00 +0.00    +0.000 A  
DOCKED: ATOM     35  C24 UNL     1       8.200 -13.022  -3.962 +0.00 +0.00    +0.000 A  
DOCKED: ATOM     36  C25 UNL     1       9.031 -12.080  -3.348 +0.00 +0.00    +0.004 A  
DOCKED: ENDBRANCH  30  31
DOCKED: ENDBRANCH   1  30
DOCKED: BRANCH   1  37
DOCKED: ATOM     37  C26 UNL     1      10.303  -7.333  -4.019 +0.00 +0.00    +0.144 C  
DOCKED: BRANCH  37  38
DOCKED: ATOM     38  O5  UNL     1      11.221  -6.645  -3.151 +0.00 -0.00    -0.389 OA 
DOCKED: ATOM     39  H42 UNL     1      12.103  -6.742  -3.567 +0.00 +0.00    +0.210 HD 
DOCKED: ENDBRANCH  37  38
DOCKED: BRANCH  37  40
DOCKED: ATOM     40  C27 UNL     1      10.212  -6.568  -5.343 +0.00 +0.00    +0.129 C  
DOCKED: BRANCH  40  41
DOCKED: ATOM     41  C28 UNL     1      11.587  -6.137  -5.806 +0.00 +0.00    +0.216 C  
DOCKED: ATOM     42  O6  UNL     1      12.626  -6.558  -5.307 +0.00 -0.00    -0.276 OA 
DOCKED: ATOM     43  N4  UNL     1      11.548  -5.238  -6.843 +0.00 -0.00    -0.304 N  
DOCKED: ATOM     44  H45 UNL     1      10.659  -4.866  -7.166 +0.00 +0.00    +0.149 HD 
DOCKED: BRANCH  43  45
DOCKED: ATOM     45  C29 UNL     1      12.743  -4.695  -7.493 +0.00 +0.00    +0.161 C  
DOCKED: BRANCH  45  46
DOCKED: ATOM     46  C30 UNL     1      13.317  -5.882  -8.295 +0.00 +0.00    +0.234 C  
DOCKED: ATOM     47  O7  UNL     1      13.160  -5.971  -9.512 +0.00 -0.00    -0.274 OA 
DOCKED: ATOM     48  N5  UNL     1      13.985  -6.829  -7.554 +0.00 -0.00    -0.310 N  
DOCKED: ATOM     49  H47 UNL     1      13.968  -6.762  -6.546 +0.00 +0.00    +0.149 HD 
DOCKED: BRANCH  48  50
DOCKED: ATOM     50  C31 UNL     1      14.384  -8.091  -8.132 +0.00 +0.00    +0.139 C  
DOCKED: BRANCH  50  51
DOCKED: ATOM     51  C32 UNL     1      13.527  -9.212  -7.595 +0.00 -0.00    -0.030 A  
DOCKED: ATOM     52  C33 UNL     1      14.125 -10.383  -7.104 +0.00 +0.00    +0.006 A  
DOCKED: ATOM     53  C34 UNL     1      13.344 -11.453  -6.662 +0.00 +0.00    +0.015 A  
DOCKED: ATOM     54  C35 UNL     1      11.947 -11.366  -6.700 +0.00 +0.00    +0.059 A  
DOCKED: ATOM     55  C37 UNL     1      11.341 -10.202  -7.187 +0.00 +0.00    +0.015 A  
DOCKED: ATOM     56  C38 UNL     1      12.126  -9.134  -7.636 +0.00 +0.00    +0.006 A  
DOCKED: BRANCH  54  57
DOCKED: ATOM     57  C36 UNL     1      11.153 -12.526  -6.222 +0.00 +0.00    +0.337 C  
DOCKED: ATOM     58  O8  UNL     1      10.175 -12.998  -6.775 +0.00 -0.00    -0.245 OA 
DOCKED: BRANCH  57  59
DOCKED: ATOM     59  O9  UNL     1      11.611 -13.033  -5.066 +0.00 -0.00    -0.477 OA 
DOCKED: ATOM     60  H52 UNL     1      11.773 -12.236  -4.515 +0.00 +0.00    +0.295 HD 
DOCKED: ENDBRANCH  57  59
DOCKED: ENDBRANCH  54  57
DOCKED: ENDBRANCH  50  51
DOCKED: ENDBRANCH  48  50
DOCKED: ENDBRANCH  45  46
DOCKED: BRANCH  45  61
DOCKED: ATOM     61  C39 UNL     1      13.761  -4.170  -6.453 +0.00 +0.00    +0.012 C  
DOCKED: ATOM     62  C40 UNL     1      13.289  -2.879  -5.778 +0.00 +0.00    +0.009 C  
DOCKED: ATOM     63  C41 UNL     1      15.137  -3.912  -7.078 +0.00 +0.00    +0.009 C  
DOCKED: ENDBRANCH  45  61
DOCKED: ENDBRANCH  43  45
DOCKED: ENDBRANCH  40  41
DOCKED: ENDBRANCH  37  40
DOCKED: ENDBRANCH   1  37
DOCKED: TORSDOF 26
DOCKED: TER
DOCKED: ENDMDL
________________________________________________________________________________


    FINAL DOCKED STATE:
    ________________________


Run:   15 / 20
Time taken for this run:   3.577s

DOCKED: MODEL        15
DOCKED: USER    Run = 15
DOCKED: USER
DOCKED: USER    Estimated Free Energy of Binding    =  +7.76 kcal/mol  [=(1)+(2)+(3)-(4)]
DOCKED: USER
DOCKED: USER    (1) Final Intermolecular Energy     =  +0.00 kcal/mol
DOCKED: USER        vdW + Hbond + desolv Energy     =  +0.00 kcal/mol
DOCKED: USER        Electrostatic Energy            =  +0.00 kcal/mol
DOCKED: USER        Moving Ligand-Fixed Receptor    =  +0.00 kcal/mol
DOCKED: USER        Moving Ligand-Moving Receptor   =  +0.00 kcal/mol
DOCKED: USER    (2) Final Total Internal Energy     = -17.45 kcal/mol
DOCKED: USER    (3) Torsional Free Energy           =  +7.76 kcal/mol
DOCKED: USER    (4) Unbound System's Energy         = -17.45 kcal/mol
DOCKED: USER
DOCKED: USER
DOCKED: REMARK  Name = ligands/ligand_4.pdb
DOCKED: REMARK  33 active torsions:
DOCKED: REMARK  status: ('A' for Active; 'I' for Inactive)
DOCKED: REMARK    1  A    between atoms: C1_1  and  C2_2
DOCKED: REMARK    2  A    between atoms: C2_2  and  C3_3
DOCKED: REMARK    3  A    between atoms: C3_3  and  C4_4
DOCKED: REMARK    4  A    between atoms: C3_3  and  C5_5
DOCKED: REMARK    5  A    between atoms: C5_5  and  C6_6
DOCKED: REMARK    6  A    between atoms: C6_6  and  N1_7
DOCKED: REMARK    7  A    between atoms: C6_6  and  C15_19
DOCKED: REMARK    8  A    between atoms: C7_8  and  C8_10
DOCKED: REMARK    9  A    between atoms: C8_10  and  C9_11
DOCKED: REMARK   10  A    between atoms: C8_10  and  N2_15
DOCKED: REMARK   11  A    between atoms: C9_11  and  C10_12
DOCKED: REMARK   12  A    between atoms: C10_12  and  C11_13
DOCKED: REMARK   13  A    between atoms: C10_12  and  C12_14
DOCKED: REMARK   14  A    between atoms: C13_16  and  C14_17
DOCKED: REMARK   15  A    between atoms: C15_19  and  O3_20
DOCKED: REMARK   16  A    between atoms: C15_19  and  C16_21
DOCKED: REMARK   17  A    between atoms: C16_21  and  C17_22
DOCKED: REMARK   18  A    between atoms: N3_24  and  C18_25
DOCKED: REMARK   19  A    between atoms: C18_25  and  C19_26
DOCKED: REMARK   20  A    between atoms: C18_25  and  C26_33
DOCKED: REMARK   21  A    between atoms: C19_26  and  C20_27
DOCKED: REMARK   22  A    between atoms: C26_33  and  O5_34
DOCKED: REMARK   23  A    between atoms: C26_33  and  C27_35
DOCKED: REMARK   24  A    between atoms: C27_35  and  C28_36
DOCKED: REMARK   25  A    between atoms: N4_38  and  C29_39
DOCKED: REMARK   26  A    between atoms: C29_39  and  C30_40
DOCKED: REMARK   27  A    between atoms: C29_39  and  C39_53
DOCKED: REMARK   28  A    between atoms: N5_42  and  C31_43
DOCKED: REMARK   29  A    between atoms: C31_43  and  C32_44
DOCKED: REMARK   30  A    between atoms: C35_47  and  C36_48
DOCKED: REMARK   31  A    between atoms: C36_48  and  O9_50
DOCKED: REMARK   32  A    between atoms: C39_53  and  C40_54
DOCKED: REMARK   33  A    between atoms: C39_53  and  C41_55
DOCKED: REMARK                            x       y       z     vdW  Elec       q    Type
DOCKED: REMARK                         _______ _______ _______ _____ _____    ______ ____
DOCKED: USER                              x       y       z     vdW  Elec       q    Type
DOCKED: USER                           _______ _______ _______ _____ _____    ______ ____
DOCKED: ROOT
DOCKED: ATOM      1  C18 UNL     1      12.596  -3.690  -4.699 +0.00 +0.00    +0.106 C  
DOCKED: ENDROOT
DOCKED: BRANCH   1   4
DOCKED: ATOM      2  C17 UNL     1      10.386  -2.929  -3.808 +0.00 +0.00    +0.216 C  
DOCKED: ATOM      3  O4  UNL     1      10.292  -1.996  -4.601 +0.00 -0.00    -0.276 OA 
DOCKED: ATOM      4  N3  UNL     1      11.457  -3.785  -3.777 +0.00 -0.00    -0.310 N  
DOCKED: ATOM      5  H32 UNL     1      11.527  -4.520  -3.085 +0.00 +0.00    +0.149 HD 
DOCKED: BRANCH   2   6
DOCKED: ATOM      6  C16 UNL     1       9.297  -3.221  -2.800 +0.00 +0.00    +0.129 C  
DOCKED: BRANCH   6   7
DOCKED: ATOM      7  C15 UNL     1       9.771  -3.278  -1.347 +0.00 +0.00    +0.143 C  
DOCKED: BRANCH   7   8
DOCKED: ATOM      8  O3  UNL     1      11.186  -3.553  -1.329 +0.00 -0.00    -0.389 OA 
DOCKED: ATOM      9  H29 UNL     1      11.325  -4.440  -1.721 +0.00 +0.00    +0.210 HD 
DOCKED: ENDBRANCH   7   8
DOCKED: BRANCH   7  10
DOCKED: ATOM     10  C6  UNL     1       9.029  -4.252  -0.386 +0.00 +0.00    +0.102 C  
DOCKED: BRANCH  10  11
DOCKED: ATOM     11  N1  UNL     1       9.806  -5.496  -0.287 +0.00 -0.00    -0.308 N  
DOCKED: ATOM     12  C7  UNL     1       9.661  -6.406   0.733 +0.00 +0.00    +0.234 C  
DOCKED: ATOM     13  O1  UNL     1       8.800  -6.307   1.609 +0.00 -0.00    -0.274 OA 
DOCKED: ATOM     14  H13 UNL     1      10.513  -5.648  -1.000 +0.00 +0.00    +0.149 HD 
DOCKED: BRANCH  12  15
DOCKED: ATOM     15  C8  UNL     1      10.663  -7.587   0.679 +0.00 +0.00    +0.159 C  
DOCKED: BRANCH  15  16
DOCKED: ATOM     16  N2  UNL     1      11.993  -7.009   0.828 +0.00 -0.00    -0.304 N  
DOCKED: ATOM     17  C13 UNL     1      12.539  -6.269  -0.199 +0.00 +0.00    +0.211 C  
DOCKED: ATOM     18  C14 UNL     1      13.775  -5.509   0.196 +0.00 +0.00    +0.109 C  
DOCKED: ATOM     19  O2  UNL     1      12.066  -6.221  -1.332 +0.00 -0.00    -0.276 OA 
DOCKED: ATOM     20  H24 UNL     1      12.208  -6.677   1.764 +0.00 +0.00    +0.149 HD 
DOCKED: ENDBRANCH  15  16
DOCKED: BRANCH  15  21
DOCKED: ATOM     21  C9  UNL     1      10.353  -8.605   1.786 +0.00 +0.00    +0.034 C  
DOCKED: BRANCH  21  22
DOCKED: ATOM     22  C10 UNL     1      10.798 -10.062   1.540 +0.00 -0.00    -0.015 C  
DOCKED: ATOM     23  C11 UNL     1      11.965 -10.184   0.558 +0.00 +0.00    +0.007 C  
DOCKED: ATOM     24  C12 UNL     1       9.645 -10.969   1.111 +0.00 +0.00    +0.007 C  
DOCKED: ENDBRANCH  21  22
DOCKED: ENDBRANCH  15  21
DOCKED: ENDBRANCH  12  15
DOCKED: ENDBRANCH  10  11
DOCKED: BRANCH  10  25
DOCKED: ATOM     25  C5  UNL     1       8.845  -3.706   1.051 +0.00 +0.00    +0.028 C  
DOCKED: BRANCH  25  26
DOCKED: ATOM     26  C3  UNL     1       9.933  -2.750   1.571 +0.00 -0.00    -0.013 C  
DOCKED: ATOM     27  C4  UNL     1       9.430  -1.986   2.799 +0.00 +0.00    +0.007 C  
DOCKED: BRANCH  26  29
DOCKED: ATOM     28  C1  UNL     1      12.536  -2.682   1.530 +0.00 +0.00    +0.004 C  
DOCKED: ATOM     29  C2  UNL     1      11.271  -3.468   1.859 +0.00 -0.00    -0.000 C  
DOCKED: ENDBRANCH  26  29
DOCKED: ENDBRANCH  25  26
DOCKED: ENDBRANCH  10  25
DOCKED: ENDBRANCH   7  10
DOCKED: ENDBRANCH   6   7
DOCKED: ENDBRANCH   2   6
DOCKED: ENDBRANCH   1   4
DOCKED: BRANCH   1  30
DOCKED: ATOM     30  C19 UNL     1      13.067  -2.221  -4.848 +0.00 +0.00    +0.060 C  
DOCKED: BRANCH  30  31
DOCKED: ATOM     31  C20 UNL     1      13.142  -1.368  -3.597 +0.00 -0.00    -0.046 A  
DOCKED: ATOM     32  C21 UNL     1      12.554  -0.092  -3.603 +0.00 +0.00    +0.004 A  
DOCKED: ATOM     33  C22 UNL     1      12.521   0.689  -2.447 +0.00 +0.00    +0.000 A  
DOCKED: ATOM     34  C23 UNL     1      13.104   0.223  -1.271 +0.00 +0.00    +0.000 A  
DOCKED: ATOM     35  C24 UNL     1      13.687  -1.039  -1.249 +0.00 +0.00    +0.000 A  
DOCKED: ATOM     36  C25 UNL     1      13.682  -1.840  -2.396 +0.00 +0.00    +0.004 A  
DOCKED: ENDBRANCH  30  31
DOCKED: ENDBRANCH   1  30
DOCKED: BRANCH   1  37
DOCKED: ATOM     37  C26 UNL     1      13.758  -4.569  -4.161 +0.00 +0.00    +0.144 C  
DOCKED: BRANCH  37  38
DOCKED: ATOM     38  O5  UNL     1      13.376  -5.095  -2.878 +0.00 -0.00    -0.389 OA 
DOCKED: ATOM     39  H42 UNL     1      12.808  -4.410  -2.469 +0.00 +0.00    +0.210 HD 
DOCKED: ENDBRANCH  37  38
DOCKED: BRANCH  37  40
DOCKED: ATOM     40  C27 UNL     1      14.071  -5.740  -5.099 +0.00 +0.00    +0.129 C  
DOCKED: BRANCH  40  41
DOCKED: ATOM     41  C28 UNL     1      12.801  -6.466  -5.488 +0.00 +0.00    +0.216 C  
DOCKED: ATOM     42  O6  UNL     1      12.534  -6.778  -6.645 +0.00 -0.00    -0.276 OA 
DOCKED: ATOM     43  N4  UNL     1      11.989  -6.743  -4.416 +0.00 -0.00    -0.304 N  
DOCKED: ATOM     44  H45 UNL     1      12.224  -6.393  -3.492 +0.00 +0.00    +0.149 HD 
DOCKED: BRANCH  43  45
DOCKED: ATOM     45  C29 UNL     1      10.722  -7.467  -4.523 +0.00 +0.00    +0.161 C  
DOCKED: BRANCH  45  46
DOCKED: ATOM     46  C30 UNL     1       9.720  -6.611  -3.721 +0.00 +0.00    +0.234 C  
DOCKED: ATOM     47  O7  UNL     1      10.089  -5.882  -2.801 +0.00 -0.00    -0.274 OA 
DOCKED: ATOM     48  N5  UNL     1       8.401  -6.740  -4.092 +0.00 -0.00    -0.310 N  
DOCKED: ATOM     49  H47 UNL     1       8.151  -7.448  -4.767 +0.00 +0.00    +0.149 HD 
DOCKED: BRANCH  48  50
DOCKED: ATOM     50  C31 UNL     1       7.338  -6.171  -3.297 +0.00 +0.00    +0.139 C  
DOCKED: BRANCH  50  51
DOCKED: ATOM     51  C32 UNL     1       7.151  -6.960  -2.023 +0.00 -0.00    -0.030 A  
DOCKED: ATOM     52  C33 UNL     1       6.425  -6.411  -0.955 +0.00 +0.00    +0.006 A  
DOCKED: ATOM     53  C34 UNL     1       6.296  -7.102   0.252 +0.00 +0.00    +0.015 A  
DOCKED: ATOM     54  C35 UNL     1       6.889  -8.360   0.407 +0.00 +0.00    +0.059 A  
DOCKED: ATOM     55  C37 UNL     1       7.615  -8.917  -0.652 +0.00 +0.00    +0.015 A  
DOCKED: ATOM     56  C38 UNL     1       7.749  -8.219  -1.858 +0.00 +0.00    +0.006 A  
DOCKED: BRANCH  54  57
DOCKED: ATOM     57  C36 UNL     1       6.730  -9.062   1.706 +0.00 +0.00    +0.337 C  
DOCKED: ATOM     58  O8  UNL     1       6.196 -10.144   1.872 +0.00 -0.00    -0.245 OA 
DOCKED: BRANCH  57  59
DOCKED: ATOM     59  O9  UNL     1       7.235  -8.369   2.740 +0.00 -0.00    -0.477 OA 
DOCKED: ATOM     60  H52 UNL     1       7.681  -7.607   2.309 +0.00 +0.00    +0.295 HD 
DOCKED: ENDBRANCH  57  59
DOCKED: ENDBRANCH  54  57
DOCKED: ENDBRANCH  50  51
DOCKED: ENDBRANCH  48  50
DOCKED: ENDBRANCH  45  46
DOCKED: BRANCH  45  61
DOCKED: ATOM     61  C39 UNL     1      10.838  -8.896  -3.940 +0.00 +0.00    +0.012 C  
DOCKED: ATOM     62  C40 UNL     1       9.608  -9.753  -4.254 +0.00 +0.00    +0.009 C  
DOCKED: ATOM     63  C41 UNL     1      11.040  -8.881  -2.421 +0.00 +0.00    +0.009 C  
DOCKED: ENDBRANCH  45  61
DOCKED: ENDBRANCH  43  45
DOCKED: ENDBRANCH  40  41
DOCKED: ENDBRANCH  37  40
DOCKED: ENDBRANCH   1  37
DOCKED: TORSDOF 26
DOCKED: TER
DOCKED: ENDMDL
________________________________________________________________________________


    FINAL DOCKED STATE:
    ________________________


Run:   16 / 20
Time taken for this run:   3.577s

DOCKED: MODEL        16
DOCKED: USER    Run = 16
DOCKED: USER
DOCKED: USER    Estimated Free Energy of Binding    =  +7.76 kcal/mol  [=(1)+(2)+(3)-(4)]
DOCKED: USER
DOCKED: USER    (1) Final Intermolecular Energy     =  +0.00 kcal/mol
DOCKED: USER        vdW + Hbond + desolv Energy     =  +0.00 kcal/mol
DOCKED: USER        Electrostatic Energy            =  +0.00 kcal/mol
DOCKED: USER        Moving Ligand-Fixed Receptor    =  +0.00 kcal/mol
DOCKED: USER        Moving Ligand-Moving Receptor   =  +0.00 kcal/mol
DOCKED: USER    (2) Final Total Internal Energy     = -17.82 kcal/mol
DOCKED: USER    (3) Torsional Free Energy           =  +7.76 kcal/mol
DOCKED: USER    (4) Unbound System's Energy         = -17.82 kcal/mol
DOCKED: USER
DOCKED: USER
DOCKED: REMARK  Name = ligands/ligand_4.pdb
DOCKED: REMARK  33 active torsions:
DOCKED: REMARK  status: ('A' for Active; 'I' for Inactive)
DOCKED: REMARK    1  A    between atoms: C1_1  and  C2_2
DOCKED: REMARK    2  A    between atoms: C2_2  and  C3_3
DOCKED: REMARK    3  A    between atoms: C3_3  and  C4_4
DOCKED: REMARK    4  A    between atoms: C3_3  and  C5_5
DOCKED: REMARK    5  A    between atoms: C5_5  and  C6_6
DOCKED: REMARK    6  A    between atoms: C6_6  and  N1_7
DOCKED: REMARK    7  A    between atoms: C6_6  and  C15_19
DOCKED: REMARK    8  A    between atoms: C7_8  and  C8_10
DOCKED: REMARK    9  A    between atoms: C8_10  and  C9_11
DOCKED: REMARK   10  A    between atoms: C8_10  and  N2_15
DOCKED: REMARK   11  A    between atoms: C9_11  and  C10_12
DOCKED: REMARK   12  A    between atoms: C10_12  and  C11_13
DOCKED: REMARK   13  A    between atoms: C10_12  and  C12_14
DOCKED: REMARK   14  A    between atoms: C13_16  and  C14_17
DOCKED: REMARK   15  A    between atoms: C15_19  and  O3_20
DOCKED: REMARK   16  A    between atoms: C15_19  and  C16_21
DOCKED: REMARK   17  A    between atoms: C16_21  and  C17_22
DOCKED: REMARK   18  A    between atoms: N3_24  and  C18_25
DOCKED: REMARK   19  A    between atoms: C18_25  and  C19_26
DOCKED: REMARK   20  A    between atoms: C18_25  and  C26_33
DOCKED: REMARK   21  A    between atoms: C19_26  and  C20_27
DOCKED: REMARK   22  A    between atoms: C26_33  and  O5_34
DOCKED: REMARK   23  A    between atoms: C26_33  and  C27_35
DOCKED: REMARK   24  A    between atoms: C27_35  and  C28_36
DOCKED: REMARK   25  A    between atoms: N4_38  and  C29_39
DOCKED: REMARK   26  A    between atoms: C29_39  and  C30_40
DOCKED: REMARK   27  A    between atoms: C29_39  and  C39_53
DOCKED: REMARK   28  A    between atoms: N5_42  and  C31_43
DOCKED: REMARK   29  A    between atoms: C31_43  and  C32_44
DOCKED: REMARK   30  A    between atoms: C35_47  and  C36_48
DOCKED: REMARK   31  A    between atoms: C36_48  and  O9_50
DOCKED: REMARK   32  A    between atoms: C39_53  and  C40_54
DOCKED: REMARK   33  A    between atoms: C39_53  and  C41_55
DOCKED: REMARK                            x       y       z     vdW  Elec       q    Type
DOCKED: REMARK                         _______ _______ _______ _____ _____    ______ ____
DOCKED: USER                              x       y       z     vdW  Elec       q    Type
DOCKED: USER                           _______ _______ _______ _____ _____    ______ ____
DOCKED: ROOT
DOCKED: ATOM      1  C18 UNL     1       9.420  -2.005  -2.357 +0.00 +0.00    +0.106 C  
DOCKED: ENDROOT
DOCKED: BRANCH   1   4
DOCKED: ATOM      2  C17 UNL     1       7.964  -4.037  -2.437 +0.00 +0.00    +0.216 C  
DOCKED: ATOM      3  O4  UNL     1       7.704  -3.908  -3.631 +0.00 -0.00    -0.276 OA 
DOCKED: ATOM      4  N3  UNL     1       8.769  -3.169  -1.745 +0.00 -0.00    -0.310 N  
DOCKED: ATOM      5  H32 UNL     1       8.932  -3.278  -0.752 +0.00 +0.00    +0.149 HD 
DOCKED: BRANCH   2   6
DOCKED: ATOM      6  C16 UNL     1       7.421  -5.196  -1.633 +0.00 +0.00    +0.129 C  
DOCKED: BRANCH   6   7
DOCKED: ATOM      7  C15 UNL     1       8.449  -5.891  -0.739 +0.00 +0.00    +0.143 C  
DOCKED: BRANCH   7   8
DOCKED: ATOM      8  O3  UNL     1       8.919  -4.951   0.247 +0.00 -0.00    -0.389 OA 
DOCKED: ATOM      9  H29 UNL     1       9.618  -4.404  -0.168 +0.00 +0.00    +0.210 HD 
DOCKED: ENDBRANCH   7   8
DOCKED: BRANCH   7  10
DOCKED: ATOM     10  C6  UNL     1       9.659  -6.580  -1.435 +0.00 +0.00    +0.102 C  
DOCKED: BRANCH  10  11
DOCKED: ATOM     11  N1  UNL     1      10.854  -5.751  -1.227 +0.00 -0.00    -0.308 N  
DOCKED: ATOM     12  C7  UNL     1      12.096  -6.064  -1.729 +0.00 +0.00    +0.234 C  
DOCKED: ATOM     13  O1  UNL     1      12.299  -7.020  -2.479 +0.00 -0.00    -0.274 OA 
DOCKED: ATOM     14  H13 UNL     1      10.742  -4.931  -0.640 +0.00 +0.00    +0.149 HD 
DOCKED: BRANCH  12  15
DOCKED: ATOM     15  C8  UNL     1      13.222  -5.095  -1.288 +0.00 +0.00    +0.159 C  
DOCKED: BRANCH  15  16
DOCKED: ATOM     16  N2  UNL     1      13.497  -5.388   0.113 +0.00 -0.00    -0.304 N  
DOCKED: ATOM     17  C13 UNL     1      12.539  -5.128   1.068 +0.00 +0.00    +0.211 C  
DOCKED: ATOM     18  C14 UNL     1      12.844  -5.734   2.410 +0.00 +0.00    +0.109 C  
DOCKED: ATOM     19  O2  UNL     1      11.522  -4.470   0.856 +0.00 -0.00    -0.276 OA 
DOCKED: ATOM     20  H24 UNL     1      14.049  -6.226   0.269 +0.00 +0.00    +0.149 HD 
DOCKED: ENDBRANCH  15  16
DOCKED: BRANCH  15  21
DOCKED: ATOM     21  C9  UNL     1      14.467  -5.284  -2.168 +0.00 +0.00    +0.034 C  
DOCKED: BRANCH  21  22
DOCKED: ATOM     22  C10 UNL     1      15.798  -5.572  -1.443 +0.00 -0.00    -0.015 C  
DOCKED: ATOM     23  C11 UNL     1      17.021  -5.010  -2.173 +0.00 +0.00    +0.007 C  
DOCKED: ATOM     24  C12 UNL     1      15.998  -7.056  -1.136 +0.00 +0.00    +0.007 C  
DOCKED: ENDBRANCH  21  22
DOCKED: ENDBRANCH  15  21
DOCKED: ENDBRANCH  12  15
DOCKED: ENDBRANCH  10  11
DOCKED: BRANCH  10  25
DOCKED: ATOM     25  C5  UNL     1       9.977  -7.996  -0.896 +0.00 +0.00    +0.028 C  
DOCKED: BRANCH  25  26
DOCKED: ATOM     26  C3  UNL     1      10.653  -8.073   0.485 +0.00 -0.00    -0.013 C  
DOCKED: ATOM     27  C4  UNL     1       9.601  -8.235   1.586 +0.00 +0.00    +0.007 C  
DOCKED: BRANCH  26  29
DOCKED: ATOM     28  C1  UNL     1      13.160  -8.743   0.267 +0.00 +0.00    +0.004 C  
DOCKED: ATOM     29  C2  UNL     1      11.729  -9.179   0.563 +0.00 -0.00    -0.000 C  
DOCKED: ENDBRANCH  26  29
DOCKED: ENDBRANCH  25  26
DOCKED: ENDBRANCH  10  25
DOCKED: ENDBRANCH   7  10
DOCKED: ENDBRANCH   6   7
DOCKED: ENDBRANCH   2   6
DOCKED: ENDBRANCH   1   4
DOCKED: BRANCH   1  30
DOCKED: ATOM     30  C19 UNL     1       8.656  -0.700  -2.016 +0.00 +0.00    +0.060 C  
DOCKED: BRANCH  30  31
DOCKED: ATOM     31  C20 UNL     1       8.047  -0.574  -0.635 +0.00 -0.00    -0.046 A  
DOCKED: ATOM     32  C21 UNL     1       8.446   0.488   0.195 +0.00 +0.00    +0.004 A  
DOCKED: ATOM     33  C22 UNL     1       7.845   0.694   1.438 +0.00 +0.00    +0.000 A  
DOCKED: ATOM     34  C23 UNL     1       6.856  -0.175   1.889 +0.00 +0.00    +0.000 A  
DOCKED: ATOM     35  C24 UNL     1       6.447  -1.228   1.077 +0.00 +0.00    +0.000 A  
DOCKED: ATOM     36  C25 UNL     1       7.018  -1.410  -0.185 +0.00 +0.00    +0.004 A  
DOCKED: ENDBRANCH  30  31
DOCKED: ENDBRANCH   1  30
DOCKED: BRANCH   1  37
DOCKED: ATOM     37  C26 UNL     1      10.883  -1.914  -1.845 +0.00 +0.00    +0.144 C  
DOCKED: BRANCH  37  38
DOCKED: ATOM     38  O5  UNL     1      11.115  -3.001  -0.931 +0.00 -0.00    -0.389 OA 
DOCKED: ATOM     39  H42 UNL     1      10.284  -3.101  -0.422 +0.00 +0.00    +0.210 HD 
DOCKED: ENDBRANCH  37  38
DOCKED: BRANCH  37  40
DOCKED: ATOM     40  C27 UNL     1      11.897  -2.011  -2.990 +0.00 +0.00    +0.129 C  
DOCKED: BRANCH  40  41
DOCKED: ATOM     41  C28 UNL     1      13.225  -1.413  -2.578 +0.00 +0.00    +0.216 C  
DOCKED: ATOM     42  O6  UNL     1      13.339  -0.280  -2.119 +0.00 -0.00    -0.276 OA 
DOCKED: ATOM     43  N4  UNL     1      14.282  -2.269  -2.764 +0.00 -0.00    -0.304 N  
DOCKED: ATOM     44  H45 UNL     1      14.140  -3.167  -3.219 +0.00 +0.00    +0.149 HD 
DOCKED: BRANCH  43  45
DOCKED: ATOM     45  C29 UNL     1      15.664  -1.942  -2.411 +0.00 +0.00    +0.161 C  
DOCKED: BRANCH  45  46
DOCKED: ATOM     46  C30 UNL     1      15.630  -1.721  -0.885 +0.00 +0.00    +0.234 C  
DOCKED: ATOM     47  O7  UNL     1      15.752  -2.658  -0.096 +0.00 -0.00    -0.274 OA 
DOCKED: ATOM     48  N5  UNL     1      15.432  -0.421  -0.480 +0.00 -0.00    -0.310 N  
DOCKED: ATOM     49  H47 UNL     1      15.212   0.279  -1.174 +0.00 +0.00    +0.149 HD 
DOCKED: BRANCH  48  50
DOCKED: ATOM     50  C31 UNL     1      15.163  -0.098   0.902 +0.00 +0.00    +0.139 C  
DOCKED: BRANCH  50  51
DOCKED: ATOM     51  C32 UNL     1      13.793  -0.589   1.302 +0.00 -0.00    -0.030 A  
DOCKED: ATOM     52  C33 UNL     1      13.663  -1.682   2.173 +0.00 +0.00    +0.006 A  
DOCKED: ATOM     53  C34 UNL     1      12.403  -2.187   2.504 +0.00 +0.00    +0.015 A  
DOCKED: ATOM     54  C35 UNL     1      11.250  -1.601   1.970 +0.00 +0.00    +0.059 A  
DOCKED: ATOM     55  C37 UNL     1      11.368  -0.510   1.101 +0.00 +0.00    +0.015 A  
DOCKED: ATOM     56  C38 UNL     1      12.632  -0.010   0.766 +0.00 +0.00    +0.006 A  
DOCKED: BRANCH  54  57
DOCKED: ATOM     57  C36 UNL     1       9.930  -2.168   2.345 +0.00 +0.00    +0.337 C  
DOCKED: ATOM     58  O8  UNL     1       9.404  -2.089   3.441 +0.00 -0.00    -0.245 OA 
DOCKED: BRANCH  57  59
DOCKED: ATOM     59  O9  UNL     1       9.335  -2.822   1.333 +0.00 -0.00    -0.477 OA 
DOCKED: ATOM     60  H52 UNL     1      10.058  -3.371   0.959 +0.00 +0.00    +0.295 HD 
DOCKED: ENDBRANCH  57  59
DOCKED: ENDBRANCH  54  57
DOCKED: ENDBRANCH  50  51
DOCKED: ENDBRANCH  48  50
DOCKED: ENDBRANCH  45  46
DOCKED: BRANCH  45  61
DOCKED: ATOM     61  C39 UNL     1      16.152  -0.676  -3.156 +0.00 +0.00    +0.012 C  
DOCKED: ATOM     62  C40 UNL     1      15.949  -0.778  -4.670 +0.00 +0.00    +0.009 C  
DOCKED: ATOM     63  C41 UNL     1      17.634  -0.388  -2.886 +0.00 +0.00    +0.009 C  
DOCKED: ENDBRANCH  45  61
DOCKED: ENDBRANCH  43  45
DOCKED: ENDBRANCH  40  41
DOCKED: ENDBRANCH  37  40
DOCKED: ENDBRANCH   1  37
DOCKED: TORSDOF 26
DOCKED: TER
DOCKED: ENDMDL
________________________________________________________________________________


    FINAL DOCKED STATE:
    ________________________


Run:   17 / 20
Time taken for this run:   3.577s

DOCKED: MODEL        17
DOCKED: USER    Run = 17
DOCKED: USER
DOCKED: USER    Estimated Free Energy of Binding    =  +7.76 kcal/mol  [=(1)+(2)+(3)-(4)]
DOCKED: USER
DOCKED: USER    (1) Final Intermolecular Energy     =  +0.00 kcal/mol
DOCKED: USER        vdW + Hbond + desolv Energy     =  +0.00 kcal/mol
DOCKED: USER        Electrostatic Energy            =  +0.00 kcal/mol
DOCKED: USER        Moving Ligand-Fixed Receptor    =  +0.00 kcal/mol
DOCKED: USER        Moving Ligand-Moving Receptor   =  +0.00 kcal/mol
DOCKED: USER    (2) Final Total Internal Energy     = -17.43 kcal/mol
DOCKED: USER    (3) Torsional Free Energy           =  +7.76 kcal/mol
DOCKED: USER    (4) Unbound System's Energy         = -17.43 kcal/mol
DOCKED: USER
DOCKED: USER
DOCKED: REMARK  Name = ligands/ligand_4.pdb
DOCKED: REMARK  33 active torsions:
DOCKED: REMARK  status: ('A' for Active; 'I' for Inactive)
DOCKED: REMARK    1  A    between atoms: C1_1  and  C2_2
DOCKED: REMARK    2  A    between atoms: C2_2  and  C3_3
DOCKED: REMARK    3  A    between atoms: C3_3  and  C4_4
DOCKED: REMARK    4  A    between atoms: C3_3  and  C5_5
DOCKED: REMARK    5  A    between atoms: C5_5  and  C6_6
DOCKED: REMARK    6  A    between atoms: C6_6  and  N1_7
DOCKED: REMARK    7  A    between atoms: C6_6  and  C15_19
DOCKED: REMARK    8  A    between atoms: C7_8  and  C8_10
DOCKED: REMARK    9  A    between atoms: C8_10  and  C9_11
DOCKED: REMARK   10  A    between atoms: C8_10  and  N2_15
DOCKED: REMARK   11  A    between atoms: C9_11  and  C10_12
DOCKED: REMARK   12  A    between atoms: C10_12  and  C11_13
DOCKED: REMARK   13  A    between atoms: C10_12  and  C12_14
DOCKED: REMARK   14  A    between atoms: C13_16  and  C14_17
DOCKED: REMARK   15  A    between atoms: C15_19  and  O3_20
DOCKED: REMARK   16  A    between atoms: C15_19  and  C16_21
DOCKED: REMARK   17  A    between atoms: C16_21  and  C17_22
DOCKED: REMARK   18  A    between atoms: N3_24  and  C18_25
DOCKED: REMARK   19  A    between atoms: C18_25  and  C19_26
DOCKED: REMARK   20  A    between atoms: C18_25  and  C26_33
DOCKED: REMARK   21  A    between atoms: C19_26  and  C20_27
DOCKED: REMARK   22  A    between atoms: C26_33  and  O5_34
DOCKED: REMARK   23  A    between atoms: C26_33  and  C27_35
DOCKED: REMARK   24  A    between atoms: C27_35  and  C28_36
DOCKED: REMARK   25  A    between atoms: N4_38  and  C29_39
DOCKED: REMARK   26  A    between atoms: C29_39  and  C30_40
DOCKED: REMARK   27  A    between atoms: C29_39  and  C39_53
DOCKED: REMARK   28  A    between atoms: N5_42  and  C31_43
DOCKED: REMARK   29  A    between atoms: C31_43  and  C32_44
DOCKED: REMARK   30  A    between atoms: C35_47  and  C36_48
DOCKED: REMARK   31  A    between atoms: C36_48  and  O9_50
DOCKED: REMARK   32  A    between atoms: C39_53  and  C40_54
DOCKED: REMARK   33  A    between atoms: C39_53  and  C41_55
DOCKED: REMARK                            x       y       z     vdW  Elec       q    Type
DOCKED: REMARK                         _______ _______ _______ _____ _____    ______ ____
DOCKED: USER                              x       y       z     vdW  Elec       q    Type
DOCKED: USER                           _______ _______ _______ _____ _____    ______ ____
DOCKED: ROOT
DOCKED: ATOM      1  C18 UNL     1       8.073  -6.843  -5.356 +0.00 +0.00    +0.106 C  
DOCKED: ENDROOT
DOCKED: BRANCH   1   4
DOCKED: ATOM      2  C17 UNL     1       8.638  -4.631  -6.377 +0.00 +0.00    +0.216 C  
DOCKED: ATOM      3  O4  UNL     1       7.511  -4.459  -6.836 +0.00 -0.00    -0.276 OA 
DOCKED: ATOM      4  N3  UNL     1       8.998  -5.745  -5.664 +0.00 -0.00    -0.310 N  
DOCKED: ATOM      5  H32 UNL     1       9.945  -5.879  -5.333 +0.00 +0.00    +0.149 HD 
DOCKED: BRANCH   2   6
DOCKED: ATOM      6  C16 UNL     1       9.727  -3.597  -6.552 +0.00 +0.00    +0.129 C  
DOCKED: BRANCH   6   7
DOCKED: ATOM      7  C15 UNL     1      11.022  -4.130  -7.167 +0.00 +0.00    +0.143 C  
DOCKED: BRANCH   7   8
DOCKED: ATOM      8  O3  UNL     1      11.082  -5.555  -6.960 +0.00 -0.00    -0.389 OA 
DOCKED: ATOM      9  H29 UNL     1      11.125  -5.718  -5.995 +0.00 +0.00    +0.210 HD 
DOCKED: ENDBRANCH   7   8
DOCKED: BRANCH   7  10
DOCKED: ATOM     10  C6  UNL     1      12.358  -3.471  -6.717 +0.00 +0.00    +0.102 C  
DOCKED: BRANCH  10  11
DOCKED: ATOM     11  N1  UNL     1      12.950  -4.292  -5.651 +0.00 -0.00    -0.308 N  
DOCKED: ATOM     12  C7  UNL     1      14.270  -4.213  -5.273 +0.00 +0.00    +0.234 C  
DOCKED: ATOM     13  O1  UNL     1      15.055  -3.379  -5.730 +0.00 -0.00    -0.274 OA 
DOCKED: ATOM     14  H13 UNL     1      12.343  -4.979  -5.217 +0.00 +0.00    +0.149 HD 
DOCKED: BRANCH  12  15
DOCKED: ATOM     15  C8  UNL     1      14.687  -5.252  -4.202 +0.00 +0.00    +0.159 C  
DOCKED: BRANCH  15  16
DOCKED: ATOM     16  N2  UNL     1      14.512  -6.566  -4.809 +0.00 -0.00    -0.304 N  
DOCKED: ATOM     17  C13 UNL     1      13.243  -7.048  -5.045 +0.00 +0.00    +0.211 C  
DOCKED: ATOM     18  C14 UNL     1      13.215  -8.271  -5.920 +0.00 +0.00    +0.109 C  
DOCKED: ATOM     19  O2  UNL     1      12.221  -6.533  -4.595 +0.00 -0.00    -0.276 OA 
DOCKED: ATOM     20  H24 UNL     1      15.204  -6.803  -5.513 +0.00 +0.00    +0.149 HD 
DOCKED: ENDBRANCH  15  16
DOCKED: BRANCH  15  21
DOCKED: ATOM     21  C9  UNL     1      16.139  -5.014  -3.761 +0.00 +0.00    +0.034 C  
DOCKED: BRANCH  21  22
DOCKED: ATOM     22  C10 UNL     1      16.527  -5.490  -2.346 +0.00 -0.00    -0.015 C  
DOCKED: ATOM     23  C11 UNL     1      15.666  -6.649  -1.837 +0.00 +0.00    +0.007 C  
DOCKED: ATOM     24  C12 UNL     1      16.546  -4.354  -1.323 +0.00 +0.00    +0.007 C  
DOCKED: ENDBRANCH  21  22
DOCKED: ENDBRANCH  15  21
DOCKED: ENDBRANCH  12  15
DOCKED: ENDBRANCH  10  11
DOCKED: BRANCH  10  25
DOCKED: ATOM     25  C5  UNL     1      13.412  -3.342  -7.844 +0.00 +0.00    +0.028 C  
DOCKED: BRANCH  25  26
DOCKED: ATOM     26  C3  UNL     1      13.383  -4.419  -8.942 +0.00 -0.00    -0.013 C  
DOCKED: ATOM     27  C4  UNL     1      14.170  -3.952 -10.170 +0.00 +0.00    +0.007 C  
DOCKED: BRANCH  26  29
DOCKED: ATOM     28  C1  UNL     1      13.172  -7.014  -9.027 +0.00 +0.00    +0.004 C  
DOCKED: ATOM     29  C2  UNL     1      13.878  -5.795  -8.442 +0.00 -0.00    -0.000 C  
DOCKED: ENDBRANCH  26  29
DOCKED: ENDBRANCH  25  26
DOCKED: ENDBRANCH  10  25
DOCKED: ENDBRANCH   7  10
DOCKED: ENDBRANCH   6   7
DOCKED: ENDBRANCH   2   6
DOCKED: ENDBRANCH   1   4
DOCKED: BRANCH   1  30
DOCKED: ATOM     30  C19 UNL     1       7.241  -7.233  -6.605 +0.00 +0.00    +0.060 C  
DOCKED: BRANCH  30  31
DOCKED: ATOM     31  C20 UNL     1       7.954  -7.302  -7.941 +0.00 -0.00    -0.046 A  
DOCKED: ATOM     32  C21 UNL     1       7.390  -6.650  -9.050 +0.00 +0.00    +0.004 A  
DOCKED: ATOM     33  C22 UNL     1       8.058  -6.612 -10.276 +0.00 +0.00    +0.000 A  
DOCKED: ATOM     34  C23 UNL     1       9.286  -7.251 -10.424 +0.00 +0.00    +0.000 A  
DOCKED: ATOM     35  C24 UNL     1       9.858  -7.896  -9.333 +0.00 +0.00    +0.000 A  
DOCKED: ATOM     36  C25 UNL     1       9.210  -7.899  -8.094 +0.00 +0.00    +0.004 A  
DOCKED: ENDBRANCH  30  31
DOCKED: ENDBRANCH   1  30
DOCKED: BRANCH   1  37
DOCKED: ATOM     37  C26 UNL     1       8.887  -8.067  -4.856 +0.00 +0.00    +0.144 C  
DOCKED: BRANCH  37  38
DOCKED: ATOM     38  O5  UNL     1      10.287  -7.752  -4.946 +0.00 -0.00    -0.389 OA 
DOCKED: ATOM     39  H42 UNL     1      10.381  -7.182  -5.737 +0.00 +0.00    +0.210 HD 
DOCKED: ENDBRANCH  37  38
DOCKED: BRANCH  37  40
DOCKED: ATOM     40  C27 UNL     1       8.555  -8.420  -3.402 +0.00 +0.00    +0.129 C  
DOCKED: BRANCH  40  41
DOCKED: ATOM     41  C28 UNL     1       8.584  -7.181  -2.533 +0.00 +0.00    +0.216 C  
DOCKED: ATOM     42  O6  UNL     1       7.722  -6.926  -1.697 +0.00 -0.00    -0.276 OA 
DOCKED: ATOM     43  N4  UNL     1       9.675  -6.382  -2.770 +0.00 -0.00    -0.304 N  
DOCKED: ATOM     44  H45 UNL     1      10.317  -6.604  -3.527 +0.00 +0.00    +0.149 HD 
DOCKED: BRANCH  43  45
DOCKED: ATOM     45  C29 UNL     1       9.953  -5.146  -2.037 +0.00 +0.00    +0.161 C  
DOCKED: BRANCH  45  46
DOCKED: ATOM     46  C30 UNL     1      10.344  -4.130  -3.130 +0.00 +0.00    +0.234 C  
DOCKED: ATOM     47  O7  UNL     1      10.854  -4.489  -4.190 +0.00 -0.00    -0.274 OA 
DOCKED: ATOM     48  N5  UNL     1      10.105  -2.810  -2.822 +0.00 -0.00    -0.310 N  
DOCKED: ATOM     49  H47 UNL     1       9.804  -2.572  -1.888 +0.00 +0.00    +0.149 HD 
DOCKED: BRANCH  48  50
DOCKED: ATOM     50  C31 UNL     1      10.615  -1.742  -3.651 +0.00 +0.00    +0.139 C  
DOCKED: BRANCH  50  51
DOCKED: ATOM     51  C32 UNL     1      12.113  -1.627  -3.501 +0.00 -0.00    -0.030 A  
DOCKED: ATOM     52  C33 UNL     1      12.866  -0.935  -4.462 +0.00 +0.00    +0.006 A  
DOCKED: ATOM     53  C34 UNL     1      14.258  -0.872  -4.370 +0.00 +0.00    +0.015 A  
DOCKED: ATOM     54  C35 UNL     1      14.920  -1.498  -3.308 +0.00 +0.00    +0.059 A  
DOCKED: ATOM     55  C37 UNL     1      14.179  -2.190  -2.343 +0.00 +0.00    +0.015 A  
DOCKED: ATOM     56  C38 UNL     1      12.784  -2.257  -2.442 +0.00 +0.00    +0.006 A  
DOCKED: BRANCH  54  57
DOCKED: ATOM     57  C36 UNL     1      16.401  -1.410  -3.247 +0.00 +0.00    +0.337 C  
DOCKED: ATOM     58  O8  UNL     1      17.052  -0.940  -2.330 +0.00 -0.00    -0.245 OA 
DOCKED: BRANCH  57  59
DOCKED: ATOM     59  O9  UNL     1      17.000  -1.900  -4.345 +0.00 -0.00    -0.477 OA 
DOCKED: ATOM     60  H52 UNL     1      16.270  -2.354  -4.820 +0.00 +0.00    +0.295 HD 
DOCKED: ENDBRANCH  57  59
DOCKED: ENDBRANCH  54  57
DOCKED: ENDBRANCH  50  51
DOCKED: ENDBRANCH  48  50
DOCKED: ENDBRANCH  45  46
DOCKED: BRANCH  45  61
DOCKED: ATOM     61  C39 UNL     1      11.095  -5.343  -1.011 +0.00 +0.00    +0.012 C  
DOCKED: ATOM     62  C40 UNL     1      11.228  -4.154  -0.055 +0.00 +0.00    +0.009 C  
DOCKED: ATOM     63  C41 UNL     1      12.448  -5.565  -1.697 +0.00 +0.00    +0.009 C  
DOCKED: ENDBRANCH  45  61
DOCKED: ENDBRANCH  43  45
DOCKED: ENDBRANCH  40  41
DOCKED: ENDBRANCH  37  40
DOCKED: ENDBRANCH   1  37
DOCKED: TORSDOF 26
DOCKED: TER
DOCKED: ENDMDL
________________________________________________________________________________


    FINAL DOCKED STATE:
    ________________________


Run:   18 / 20
Time taken for this run:   3.577s

DOCKED: MODEL        18
DOCKED: USER    Run = 18
DOCKED: USER
DOCKED: USER    Estimated Free Energy of Binding    =  +7.76 kcal/mol  [=(1)+(2)+(3)-(4)]
DOCKED: USER
DOCKED: USER    (1) Final Intermolecular Energy     =  +0.00 kcal/mol
DOCKED: USER        vdW + Hbond + desolv Energy     =  +0.00 kcal/mol
DOCKED: USER        Electrostatic Energy            =  +0.00 kcal/mol
DOCKED: USER        Moving Ligand-Fixed Receptor    =  +0.00 kcal/mol
DOCKED: USER        Moving Ligand-Moving Receptor   =  +0.00 kcal/mol
DOCKED: USER    (2) Final Total Internal Energy     = -17.45 kcal/mol
DOCKED: USER    (3) Torsional Free Energy           =  +7.76 kcal/mol
DOCKED: USER    (4) Unbound System's Energy         = -17.45 kcal/mol
DOCKED: USER
DOCKED: USER
DOCKED: REMARK  Name = ligands/ligand_4.pdb
DOCKED: REMARK  33 active torsions:
DOCKED: REMARK  status: ('A' for Active; 'I' for Inactive)
DOCKED: REMARK    1  A    between atoms: C1_1  and  C2_2
DOCKED: REMARK    2  A    between atoms: C2_2  and  C3_3
DOCKED: REMARK    3  A    between atoms: C3_3  and  C4_4
DOCKED: REMARK    4  A    between atoms: C3_3  and  C5_5
DOCKED: REMARK    5  A    between atoms: C5_5  and  C6_6
DOCKED: REMARK    6  A    between atoms: C6_6  and  N1_7
DOCKED: REMARK    7  A    between atoms: C6_6  and  C15_19
DOCKED: REMARK    8  A    between atoms: C7_8  and  C8_10
DOCKED: REMARK    9  A    between atoms: C8_10  and  C9_11
DOCKED: REMARK   10  A    between atoms: C8_10  and  N2_15
DOCKED: REMARK   11  A    between atoms: C9_11  and  C10_12
DOCKED: REMARK   12  A    between atoms: C10_12  and  C11_13
DOCKED: REMARK   13  A    between atoms: C10_12  and  C12_14
DOCKED: REMARK   14  A    between atoms: C13_16  and  C14_17
DOCKED: REMARK   15  A    between atoms: C15_19  and  O3_20
DOCKED: REMARK   16  A    between atoms: C15_19  and  C16_21
DOCKED: REMARK   17  A    between atoms: C16_21  and  C17_22
DOCKED: REMARK   18  A    between atoms: N3_24  and  C18_25
DOCKED: REMARK   19  A    between atoms: C18_25  and  C19_26
DOCKED: REMARK   20  A    between atoms: C18_25  and  C26_33
DOCKED: REMARK   21  A    between atoms: C19_26  and  C20_27
DOCKED: REMARK   22  A    between atoms: C26_33  and  O5_34
DOCKED: REMARK   23  A    between atoms: C26_33  and  C27_35
DOCKED: REMARK   24  A    between atoms: C27_35  and  C28_36
DOCKED: REMARK   25  A    between atoms: N4_38  and  C29_39
DOCKED: REMARK   26  A    between atoms: C29_39  and  C30_40
DOCKED: REMARK   27  A    between atoms: C29_39  and  C39_53
DOCKED: REMARK   28  A    between atoms: N5_42  and  C31_43
DOCKED: REMARK   29  A    between atoms: C31_43  and  C32_44
DOCKED: REMARK   30  A    between atoms: C35_47  and  C36_48
DOCKED: REMARK   31  A    between atoms: C36_48  and  O9_50
DOCKED: REMARK   32  A    between atoms: C39_53  and  C40_54
DOCKED: REMARK   33  A    between atoms: C39_53  and  C41_55
DOCKED: REMARK                            x       y       z     vdW  Elec       q    Type
DOCKED: REMARK                         _______ _______ _______ _____ _____    ______ ____
DOCKED: USER                              x       y       z     vdW  Elec       q    Type
DOCKED: USER                           _______ _______ _______ _____ _____    ______ ____
DOCKED: ROOT
DOCKED: ATOM      1  C18 UNL     1      10.823   2.781  -6.253 +0.00 +0.00    +0.106 C  
DOCKED: ENDROOT
DOCKED: BRANCH   1   4
DOCKED: ATOM      2  C17 UNL     1       9.350   4.659  -5.507 +0.00 +0.00    +0.216 C  
DOCKED: ATOM      3  O4  UNL     1       9.834   5.465  -6.297 +0.00 -0.00    -0.276 OA 
DOCKED: ATOM      4  N3  UNL     1       9.768   3.357  -5.411 +0.00 -0.00    -0.310 N  
DOCKED: ATOM      5  H32 UNL     1       9.379   2.726  -4.722 +0.00 +0.00    +0.149 HD 
DOCKED: BRANCH   2   6
DOCKED: ATOM      6  C16 UNL     1       8.223   5.046  -4.576 +0.00 +0.00    +0.129 C  
DOCKED: BRANCH   6   7
DOCKED: ATOM      7  C15 UNL     1       8.496   4.777  -3.095 +0.00 +0.00    +0.143 C  
DOCKED: BRANCH   7   8
DOCKED: ATOM      8  O3  UNL     1       9.520   3.769  -2.987 +0.00 -0.00    -0.389 OA 
DOCKED: ATOM      9  H29 UNL     1       9.172   2.943  -3.383 +0.00 +0.00    +0.210 HD 
DOCKED: ENDBRANCH   7   8
DOCKED: BRANCH   7  10
DOCKED: ATOM     10  C6  UNL     1       7.282   4.401  -2.196 +0.00 +0.00    +0.102 C  
DOCKED: BRANCH  10  11
DOCKED: ATOM     11  N1  UNL     1       7.233   2.938  -2.064 +0.00 -0.00    -0.308 N  
DOCKED: ATOM     12  C7  UNL     1       6.533   2.285  -1.077 +0.00 +0.00    +0.234 C  
DOCKED: ATOM     13  O1  UNL     1       5.806   2.865  -0.268 +0.00 -0.00    -0.274 OA 
DOCKED: ATOM     14  H13 UNL     1       7.790   2.403  -2.723 +0.00 +0.00    +0.149 HD 
DOCKED: BRANCH  12  15
DOCKED: ATOM     15  C8  UNL     1       6.717   0.747  -1.079 +0.00 +0.00    +0.159 C  
DOCKED: BRANCH  15  16
DOCKED: ATOM     16  N2  UNL     1       8.131   0.498  -0.830 +0.00 -0.00    -0.304 N  
DOCKED: ATOM     17  C13 UNL     1       9.060   0.791  -1.804 +0.00 +0.00    +0.211 C  
DOCKED: ATOM     18  C14 UNL     1      10.482   0.752  -1.314 +0.00 +0.00    +0.109 C  
DOCKED: ATOM     19  O2  UNL     1       8.769   1.068  -2.966 +0.00 -0.00    -0.276 OA 
DOCKED: ATOM     20  H24 UNL     1       8.431   0.676   0.124 +0.00 +0.00    +0.149 HD 
DOCKED: ENDBRANCH  15  16
DOCKED: BRANCH  15  21
DOCKED: ATOM     21  C9  UNL     1       5.824   0.099  -0.009 +0.00 +0.00    +0.034 C  
DOCKED: BRANCH  21  22
DOCKED: ATOM     22  C10 UNL     1       5.358  -1.349  -0.271 +0.00 -0.00    -0.015 C  
DOCKED: ATOM     23  C11 UNL     1       6.319  -2.145  -1.157 +0.00 +0.00    +0.007 C  
DOCKED: ATOM     24  C12 UNL     1       3.937  -1.422  -0.828 +0.00 +0.00    +0.007 C  
DOCKED: ENDBRANCH  21  22
DOCKED: ENDBRANCH  15  21
DOCKED: ENDBRANCH  12  15
DOCKED: ENDBRANCH  10  11
DOCKED: BRANCH  10  25
DOCKED: ATOM     25  C5  UNL     1       7.346   4.993  -0.767 +0.00 +0.00    +0.028 C  
DOCKED: BRANCH  25  26
DOCKED: ATOM     26  C3  UNL     1       8.748   5.200  -0.167 +0.00 -0.00    -0.013 C  
DOCKED: ATOM     27  C4  UNL     1       8.680   6.144   1.037 +0.00 +0.00    +0.007 C  
DOCKED: BRANCH  26  29
DOCKED: ATOM     28  C1  UNL     1      10.953   3.823  -0.022 +0.00 +0.00    +0.004 C  
DOCKED: ATOM     29  C2  UNL     1       9.444   3.869   0.195 +0.00 -0.00    -0.000 C  
DOCKED: ENDBRANCH  26  29
DOCKED: ENDBRANCH  25  26
DOCKED: ENDBRANCH  10  25
DOCKED: ENDBRANCH   7  10
DOCKED: ENDBRANCH   6   7
DOCKED: ENDBRANCH   2   6
DOCKED: ENDBRANCH   1   4
DOCKED: BRANCH   1  30
DOCKED: ATOM     30  C19 UNL     1      12.040   3.737  -6.348 +0.00 +0.00    +0.060 C  
DOCKED: BRANCH  30  31
DOCKED: ATOM     31  C20 UNL     1      12.492   4.439  -5.083 +0.00 -0.00    -0.046 A  
DOCKED: ATOM     32  C21 UNL     1      12.694   5.829  -5.107 +0.00 +0.00    +0.004 A  
DOCKED: ATOM     33  C22 UNL     1      13.023   6.527  -3.944 +0.00 +0.00    +0.000 A  
DOCKED: ATOM     34  C23 UNL     1      13.187   5.845  -2.741 +0.00 +0.00    +0.000 A  
DOCKED: ATOM     35  C24 UNL     1      12.987   4.470  -2.702 +0.00 +0.00    +0.000 A  
DOCKED: ATOM     36  C25 UNL     1      12.615   3.776  -3.857 +0.00 +0.00    +0.004 A  
DOCKED: ENDBRANCH  30  31
DOCKED: ENDBRANCH   1  30
DOCKED: BRANCH   1  37
DOCKED: ATOM     37  C26 UNL     1      11.263   1.418  -5.655 +0.00 +0.00    +0.144 C  
DOCKED: BRANCH  37  38
DOCKED: ATOM     38  O5  UNL     1      10.583   1.229  -4.401 +0.00 -0.00    -0.389 OA 
DOCKED: ATOM     39  H42 UNL     1      10.462   2.126  -4.027 +0.00 +0.00    +0.210 HD 
DOCKED: ENDBRANCH  37  38
DOCKED: BRANCH  37  40
DOCKED: ATOM     40  C27 UNL     1      10.920   0.248  -6.582 +0.00 +0.00    +0.129 C  
DOCKED: BRANCH  40  41
DOCKED: ATOM     41  C28 UNL     1       9.491   0.355  -7.069 +0.00 +0.00    +0.216 C  
DOCKED: ATOM     42  O6  UNL     1       9.172   0.232  -8.249 +0.00 -0.00    -0.276 OA 
DOCKED: ATOM     43  N4  UNL     1       8.593   0.596  -6.059 +0.00 -0.00    -0.304 N  
DOCKED: ATOM     44  H45 UNL     1       8.922   0.765  -5.112 +0.00 +0.00    +0.149 HD 
DOCKED: BRANCH  43  45
DOCKED: ATOM     45  C29 UNL     1       7.148   0.707  -6.264 +0.00 +0.00    +0.161 C  
DOCKED: BRANCH  45  46
DOCKED: ATOM     46  C30 UNL     1       6.752   1.999  -5.520 +0.00 +0.00    +0.234 C  
DOCKED: ATOM     47  O7  UNL     1       7.400   2.413  -4.559 +0.00 -0.00    -0.274 OA 
DOCKED: ATOM     48  N5  UNL     1       5.623   2.629  -5.989 +0.00 -0.00    -0.310 N  
DOCKED: ATOM     49  H47 UNL     1       5.066   2.172  -6.697 +0.00 +0.00    +0.149 HD 
DOCKED: BRANCH  48  50
DOCKED: ATOM     50  C31 UNL     1       5.013   3.719  -5.263 +0.00 +0.00    +0.139 C  
DOCKED: BRANCH  50  51
DOCKED: ATOM     51  C32 UNL     1       4.328   3.206  -4.019 +0.00 -0.00    -0.030 A  
DOCKED: ATOM     52  C33 UNL     1       3.953   4.098  -3.003 +0.00 +0.00    +0.006 A  
DOCKED: ATOM     53  C34 UNL     1       3.375   3.632  -1.820 +0.00 +0.00    +0.015 A  
DOCKED: ATOM     54  C35 UNL     1       3.158   2.262  -1.637 +0.00 +0.00    +0.059 A  
DOCKED: ATOM     55  C37 UNL     1       3.527   1.363  -2.645 +0.00 +0.00    +0.015 A  
DOCKED: ATOM     56  C38 UNL     1       4.113   1.833  -3.826 +0.00 +0.00    +0.006 A  
DOCKED: BRANCH  54  57
DOCKED: ATOM     57  C36 UNL     1       2.542   1.806  -0.365 +0.00 +0.00    +0.337 C  
DOCKED: ATOM     58  O8  UNL     1       1.426   1.334  -0.240 +0.00 -0.00    -0.245 OA 
DOCKED: BRANCH  57  59
DOCKED: ATOM     59  O9  UNL     1       3.347   1.977   0.696 +0.00 -0.00    -0.477 OA 
DOCKED: ATOM     60  H52 UNL     1       4.169   2.344   0.303 +0.00 +0.00    +0.295 HD 
DOCKED: ENDBRANCH  57  59
DOCKED: ENDBRANCH  54  57
DOCKED: ENDBRANCH  50  51
DOCKED: ENDBRANCH  48  50
DOCKED: ENDBRANCH  45  46
DOCKED: BRANCH  45  61
DOCKED: ATOM     61  C39 UNL     1       6.401  -0.525  -5.698 +0.00 +0.00    +0.012 C  
DOCKED: ATOM     62  C40 UNL     1       4.924  -0.543  -6.099 +0.00 +0.00    +0.009 C  
DOCKED: ATOM     63  C41 UNL     1       6.487  -0.593  -4.169 +0.00 +0.00    +0.009 C  
DOCKED: ENDBRANCH  45  61
DOCKED: ENDBRANCH  43  45
DOCKED: ENDBRANCH  40  41
DOCKED: ENDBRANCH  37  40
DOCKED: ENDBRANCH   1  37
DOCKED: TORSDOF 26
DOCKED: TER
DOCKED: ENDMDL
________________________________________________________________________________


    FINAL DOCKED STATE:
    ________________________


Run:   19 / 20
Time taken for this run:   3.577s

DOCKED: MODEL        19
DOCKED: USER    Run = 19
DOCKED: USER
DOCKED: USER    Estimated Free Energy of Binding    =  +7.76 kcal/mol  [=(1)+(2)+(3)-(4)]
DOCKED: USER
DOCKED: USER    (1) Final Intermolecular Energy     =  +0.00 kcal/mol
DOCKED: USER        vdW + Hbond + desolv Energy     =  +0.00 kcal/mol
DOCKED: USER        Electrostatic Energy            =  +0.00 kcal/mol
DOCKED: USER        Moving Ligand-Fixed Receptor    =  +0.00 kcal/mol
DOCKED: USER        Moving Ligand-Moving Receptor   =  +0.00 kcal/mol
DOCKED: USER    (2) Final Total Internal Energy     = -17.39 kcal/mol
DOCKED: USER    (3) Torsional Free Energy           =  +7.76 kcal/mol
DOCKED: USER    (4) Unbound System's Energy         = -17.39 kcal/mol
DOCKED: USER
DOCKED: USER
DOCKED: REMARK  Name = ligands/ligand_4.pdb
DOCKED: REMARK  33 active torsions:
DOCKED: REMARK  status: ('A' for Active; 'I' for Inactive)
DOCKED: REMARK    1  A    between atoms: C1_1  and  C2_2
DOCKED: REMARK    2  A    between atoms: C2_2  and  C3_3
DOCKED: REMARK    3  A    between atoms: C3_3  and  C4_4
DOCKED: REMARK    4  A    between atoms: C3_3  and  C5_5
DOCKED: REMARK    5  A    between atoms: C5_5  and  C6_6
DOCKED: REMARK    6  A    between atoms: C6_6  and  N1_7
DOCKED: REMARK    7  A    between atoms: C6_6  and  C15_19
DOCKED: REMARK    8  A    between atoms: C7_8  and  C8_10
DOCKED: REMARK    9  A    between atoms: C8_10  and  C9_11
DOCKED: REMARK   10  A    between atoms: C8_10  and  N2_15
DOCKED: REMARK   11  A    between atoms: C9_11  and  C10_12
DOCKED: REMARK   12  A    between atoms: C10_12  and  C11_13
DOCKED: REMARK   13  A    between atoms: C10_12  and  C12_14
DOCKED: REMARK   14  A    between atoms: C13_16  and  C14_17
DOCKED: REMARK   15  A    between atoms: C15_19  and  O3_20
DOCKED: REMARK   16  A    between atoms: C15_19  and  C16_21
DOCKED: REMARK   17  A    between atoms: C16_21  and  C17_22
DOCKED: REMARK   18  A    between atoms: N3_24  and  C18_25
DOCKED: REMARK   19  A    between atoms: C18_25  and  C19_26
DOCKED: REMARK   20  A    between atoms: C18_25  and  C26_33
DOCKED: REMARK   21  A    between atoms: C19_26  and  C20_27
DOCKED: REMARK   22  A    between atoms: C26_33  and  O5_34
DOCKED: REMARK   23  A    between atoms: C26_33  and  C27_35
DOCKED: REMARK   24  A    between atoms: C27_35  and  C28_36
DOCKED: REMARK   25  A    between atoms: N4_38  and  C29_39
DOCKED: REMARK   26  A    between atoms: C29_39  and  C30_40
DOCKED: REMARK   27  A    between atoms: C29_39  and  C39_53
DOCKED: REMARK   28  A    between atoms: N5_42  and  C31_43
DOCKED: REMARK   29  A    between atoms: C31_43  and  C32_44
DOCKED: REMARK   30  A    between atoms: C35_47  and  C36_48
DOCKED: REMARK   31  A    between atoms: C36_48  and  O9_50
DOCKED: REMARK   32  A    between atoms: C39_53  and  C40_54
DOCKED: REMARK   33  A    between atoms: C39_53  and  C41_55
DOCKED: REMARK                            x       y       z     vdW  Elec       q    Type
DOCKED: REMARK                         _______ _______ _______ _____ _____    ______ ____
DOCKED: USER                              x       y       z     vdW  Elec       q    Type
DOCKED: USER                           _______ _______ _______ _____ _____    ______ ____
DOCKED: ROOT
DOCKED: ATOM      1  C18 UNL     1       7.521  -3.666  -2.435 +0.00 +0.00    +0.106 C  
DOCKED: ENDROOT
DOCKED: BRANCH   1   4
DOCKED: ATOM      2  C17 UNL     1       5.777  -2.799  -0.866 +0.00 +0.00    +0.216 C  
DOCKED: ATOM      3  O4  UNL     1       5.643  -1.736  -1.467 +0.00 -0.00    -0.276 OA 
DOCKED: ATOM      4  N3  UNL     1       6.658  -3.776  -1.253 +0.00 -0.00    -0.310 N  
DOCKED: ATOM      5  H32 UNL     1       6.777  -4.624  -0.714 +0.00 +0.00    +0.149 HD 
DOCKED: BRANCH   2   6
DOCKED: ATOM      6  C16 UNL     1       4.951  -3.122   0.359 +0.00 +0.00    +0.129 C  
DOCKED: BRANCH   6   7
DOCKED: ATOM      7  C15 UNL     1       5.752  -3.655   1.548 +0.00 +0.00    +0.143 C  
DOCKED: BRANCH   7   8
DOCKED: ATOM      8  O3  UNL     1       7.153  -3.636   1.210 +0.00 -0.00    -0.389 OA 
DOCKED: ATOM      9  H29 UNL     1       7.313  -4.342   0.550 +0.00 +0.00    +0.210 HD 
DOCKED: ENDBRANCH   7   8
DOCKED: BRANCH   7  10
DOCKED: ATOM     10  C6  UNL     1       5.360  -5.051   2.112 +0.00 +0.00    +0.102 C  
DOCKED: BRANCH  10  11
DOCKED: ATOM     11  N1  UNL     1       6.160  -6.076   1.426 +0.00 -0.00    -0.308 N  
DOCKED: ATOM     12  C7  UNL     1       6.217  -7.391   1.824 +0.00 +0.00    +0.234 C  
DOCKED: ATOM     13  O1  UNL     1       5.528  -7.851   2.736 +0.00 -0.00    -0.274 OA 
DOCKED: ATOM     14  H13 UNL     1       6.728  -5.762   0.646 +0.00 +0.00    +0.149 HD 
DOCKED: BRANCH  12  15
DOCKED: ATOM     15  C8  UNL     1       7.210  -8.258   1.010 +0.00 +0.00    +0.159 C  
DOCKED: BRANCH  15  16
DOCKED: ATOM     16  N2  UNL     1       8.548  -7.808   1.373 +0.00 -0.00    -0.304 N  
DOCKED: ATOM     17  C13 UNL     1       8.973  -6.551   1.001 +0.00 +0.00    +0.211 C  
DOCKED: ATOM     18  C14 UNL     1      10.245  -6.119   1.676 +0.00 +0.00    +0.109 C  
DOCKED: ATOM     19  O2  UNL     1       8.375  -5.837   0.199 +0.00 -0.00    -0.276 OA 
DOCKED: ATOM     20  H24 UNL     1       8.867  -8.121   2.285 +0.00 +0.00    +0.149 HD 
DOCKED: ENDBRANCH  15  16
DOCKED: BRANCH  15  21
DOCKED: ATOM     21  C9  UNL     1       7.003  -9.748   1.324 +0.00 +0.00    +0.034 C  
DOCKED: BRANCH  21  22
DOCKED: ATOM     22  C10 UNL     1       5.961 -10.503   0.471 +0.00 -0.00    -0.015 C  
DOCKED: ATOM     23  C11 UNL     1       6.426 -10.767  -0.962 +0.00 +0.00    +0.007 C  
DOCKED: ATOM     24  C12 UNL     1       4.592  -9.823   0.469 +0.00 +0.00    +0.007 C  
DOCKED: ENDBRANCH  21  22
DOCKED: ENDBRANCH  15  21
DOCKED: ENDBRANCH  12  15
DOCKED: ENDBRANCH  10  11
DOCKED: BRANCH  10  25
DOCKED: ATOM     25  C5  UNL     1       5.606  -5.212   3.632 +0.00 +0.00    +0.028 C  
DOCKED: BRANCH  25  26
DOCKED: ATOM     26  C3  UNL     1       7.072  -5.189   4.100 +0.00 -0.00    -0.013 C  
DOCKED: ATOM     27  C4  UNL     1       7.436  -3.808   4.652 +0.00 +0.00    +0.007 C  
DOCKED: BRANCH  26  29
DOCKED: ATOM     28  C1  UNL     1       8.401  -7.357   4.665 +0.00 +0.00    +0.004 C  
DOCKED: ATOM     29  C2  UNL     1       7.391  -6.307   5.118 +0.00 -0.00    -0.000 C  
DOCKED: ENDBRANCH  26  29
DOCKED: ENDBRANCH  25  26
DOCKED: ENDBRANCH  10  25
DOCKED: ENDBRANCH   7  10
DOCKED: ENDBRANCH   6   7
DOCKED: ENDBRANCH   2   6
DOCKED: ENDBRANCH   1   4
DOCKED: BRANCH   1  30
DOCKED: ATOM     30  C19 UNL     1       6.954  -2.631  -3.441 +0.00 +0.00    +0.060 C  
DOCKED: BRANCH  30  31
DOCKED: ATOM     31  C20 UNL     1       6.107  -3.145  -4.587 +0.00 -0.00    -0.046 A  
DOCKED: ATOM     32  C21 UNL     1       6.375  -4.417  -5.119 +0.00 +0.00    +0.004 A  
DOCKED: ATOM     33  C22 UNL     1       5.563  -4.966  -6.114 +0.00 +0.00    +0.000 A  
DOCKED: ATOM     34  C23 UNL     1       4.487  -4.240  -6.618 +0.00 +0.00    +0.000 A  
DOCKED: ATOM     35  C24 UNL     1       4.207  -2.981  -6.098 +0.00 +0.00    +0.000 A  
DOCKED: ATOM     36  C25 UNL     1       4.994  -2.449  -5.073 +0.00 +0.00    +0.004 A  
DOCKED: ENDBRANCH  30  31
DOCKED: ENDBRANCH   1  30
DOCKED: BRANCH   1  37
DOCKED: ATOM     37  C26 UNL     1       8.946  -3.246  -1.986 +0.00 +0.00    +0.144 C  
DOCKED: BRANCH  37  38
DOCKED: ATOM     38  O5  UNL     1       9.129  -3.645  -0.616 +0.00 -0.00    -0.389 OA 
DOCKED: ATOM     39  H42 UNL     1       8.423  -4.298  -0.433 +0.00 +0.00    +0.210 HD 
DOCKED: ENDBRANCH  37  38
DOCKED: BRANCH  37  40
DOCKED: ATOM     40  C27 UNL     1      10.033  -3.906  -2.840 +0.00 +0.00    +0.129 C  
DOCKED: BRANCH  40  41
DOCKED: ATOM     41  C28 UNL     1       9.554  -5.238  -3.378 +0.00 +0.00    +0.216 C  
DOCKED: ATOM     42  O6  UNL     1       9.718  -5.590  -4.543 +0.00 -0.00    -0.276 OA 
DOCKED: ATOM     43  N4  UNL     1       8.929  -6.008  -2.429 +0.00 -0.00    -0.304 N  
DOCKED: ATOM     44  H45 UNL     1       8.753  -5.635  -1.500 +0.00 +0.00    +0.149 HD 
DOCKED: BRANCH  43  45
DOCKED: ATOM     45  C29 UNL     1       8.407  -7.351  -2.688 +0.00 +0.00    +0.161 C  
DOCKED: BRANCH  45  46
DOCKED: ATOM     46  C30 UNL     1       6.928  -7.280  -2.252 +0.00 +0.00    +0.234 C  
DOCKED: ATOM     47  O7  UNL     1       6.558  -6.527  -1.352 +0.00 -0.00    -0.274 OA 
DOCKED: ATOM     48  N5  UNL     1       6.074  -8.127  -2.919 +0.00 -0.00    -0.310 N  
DOCKED: ATOM     49  H47 UNL     1       6.460  -8.809  -3.556 +0.00 +0.00    +0.149 HD 
DOCKED: BRANCH  48  50
DOCKED: ATOM     50  C31 UNL     1       4.714  -8.325  -2.475 +0.00 +0.00    +0.139 C  
DOCKED: BRANCH  50  51
DOCKED: ATOM     51  C32 UNL     1       4.019  -6.997  -2.292 +0.00 -0.00    -0.030 A  
DOCKED: ATOM     52  C33 UNL     1       3.916  -6.102  -3.368 +0.00 +0.00    +0.006 A  
DOCKED: ATOM     53  C34 UNL     1       3.332  -4.845  -3.198 +0.00 +0.00    +0.015 A  
DOCKED: ATOM     54  C35 UNL     1       2.836  -4.465  -1.946 +0.00 +0.00    +0.059 A  
DOCKED: ATOM     55  C37 UNL     1       2.933  -5.350  -0.866 +0.00 +0.00    +0.015 A  
DOCKED: ATOM     56  C38 UNL     1       3.525  -6.607  -1.037 +0.00 +0.00    +0.006 A  
DOCKED: BRANCH  54  57
DOCKED: ATOM     57  C36 UNL     1       2.223  -3.119  -1.807 +0.00 +0.00    +0.337 C  
DOCKED: ATOM     58  O8  UNL     1       1.306  -2.825  -1.060 +0.00 -0.00    -0.245 OA 
DOCKED: BRANCH  57  59
DOCKED: ATOM     59  O9  UNL     1       2.778  -2.205  -2.620 +0.00 -0.00    -0.477 OA 
DOCKED: ATOM     60  H52 UNL     1       3.684  -2.094  -2.255 +0.00 +0.00    +0.295 HD 
DOCKED: ENDBRANCH  57  59
DOCKED: ENDBRANCH  54  57
DOCKED: ENDBRANCH  50  51
DOCKED: ENDBRANCH  48  50
DOCKED: ENDBRANCH  45  46
DOCKED: BRANCH  45  61
DOCKED: ATOM     61  C39 UNL     1       9.183  -8.422  -1.885 +0.00 +0.00    +0.012 C  
DOCKED: ATOM     62  C40 UNL     1      10.633  -8.009  -1.615 +0.00 +0.00    +0.009 C  
DOCKED: ATOM     63  C41 UNL     1       9.192  -9.779  -2.599 +0.00 +0.00    +0.009 C  
DOCKED: ENDBRANCH  45  61
DOCKED: ENDBRANCH  43  45
DOCKED: ENDBRANCH  40  41
DOCKED: ENDBRANCH  37  40
DOCKED: ENDBRANCH   1  37
DOCKED: TORSDOF 26
DOCKED: TER
DOCKED: ENDMDL
________________________________________________________________________________


    FINAL DOCKED STATE:
    ________________________


Run:   20 / 20
Time taken for this run:   3.577s

DOCKED: MODEL        20
DOCKED: USER    Run = 20
DOCKED: USER
DOCKED: USER    Estimated Free Energy of Binding    =  +7.76 kcal/mol  [=(1)+(2)+(3)-(4)]
DOCKED: USER
DOCKED: USER    (1) Final Intermolecular Energy     =  +0.00 kcal/mol
DOCKED: USER        vdW + Hbond + desolv Energy     =  +0.00 kcal/mol
DOCKED: USER        Electrostatic Energy            =  +0.00 kcal/mol
DOCKED: USER        Moving Ligand-Fixed Receptor    =  +0.00 kcal/mol
DOCKED: USER        Moving Ligand-Moving Receptor   =  +0.00 kcal/mol
DOCKED: USER    (2) Final Total Internal Energy     = -17.59 kcal/mol
DOCKED: USER    (3) Torsional Free Energy           =  +7.76 kcal/mol
DOCKED: USER    (4) Unbound System's Energy         = -17.59 kcal/mol
DOCKED: USER
DOCKED: USER
DOCKED: REMARK  Name = ligands/ligand_4.pdb
DOCKED: REMARK  33 active torsions:
DOCKED: REMARK  status: ('A' for Active; 'I' for Inactive)
DOCKED: REMARK    1  A    between atoms: C1_1  and  C2_2
DOCKED: REMARK    2  A    between atoms: C2_2  and  C3_3
DOCKED: REMARK    3  A    between atoms: C3_3  and  C4_4
DOCKED: REMARK    4  A    between atoms: C3_3  and  C5_5
DOCKED: REMARK    5  A    between atoms: C5_5  and  C6_6
DOCKED: REMARK    6  A    between atoms: C6_6  and  N1_7
DOCKED: REMARK    7  A    between atoms: C6_6  and  C15_19
DOCKED: REMARK    8  A    between atoms: C7_8  and  C8_10
DOCKED: REMARK    9  A    between atoms: C8_10  and  C9_11
DOCKED: REMARK   10  A    between atoms: C8_10  and  N2_15
DOCKED: REMARK   11  A    between atoms: C9_11  and  C10_12
DOCKED: REMARK   12  A    between atoms: C10_12  and  C11_13
DOCKED: REMARK   13  A    between atoms: C10_12  and  C12_14
DOCKED: REMARK   14  A    between atoms: C13_16  and  C14_17
DOCKED: REMARK   15  A    between atoms: C15_19  and  O3_20
DOCKED: REMARK   16  A    between atoms: C15_19  and  C16_21
DOCKED: REMARK   17  A    between atoms: C16_21  and  C17_22
DOCKED: REMARK   18  A    between atoms: N3_24  and  C18_25
DOCKED: REMARK   19  A    between atoms: C18_25  and  C19_26
DOCKED: REMARK   20  A    between atoms: C18_25  and  C26_33
DOCKED: REMARK   21  A    between atoms: C19_26  and  C20_27
DOCKED: REMARK   22  A    between atoms: C26_33  and  O5_34
DOCKED: REMARK   23  A    between atoms: C26_33  and  C27_35
DOCKED: REMARK   24  A    between atoms: C27_35  and  C28_36
DOCKED: REMARK   25  A    between atoms: N4_38  and  C29_39
DOCKED: REMARK   26  A    between atoms: C29_39  and  C30_40
DOCKED: REMARK   27  A    between atoms: C29_39  and  C39_53
DOCKED: REMARK   28  A    between atoms: N5_42  and  C31_43
DOCKED: REMARK   29  A    between atoms: C31_43  and  C32_44
DOCKED: REMARK   30  A    between atoms: C35_47  and  C36_48
DOCKED: REMARK   31  A    between atoms: C36_48  and  O9_50
DOCKED: REMARK   32  A    between atoms: C39_53  and  C40_54
DOCKED: REMARK   33  A    between atoms: C39_53  and  C41_55
DOCKED: REMARK                            x       y       z     vdW  Elec       q    Type
DOCKED: REMARK                         _______ _______ _______ _____ _____    ______ ____
DOCKED: USER                              x       y       z     vdW  Elec       q    Type
DOCKED: USER                           _______ _______ _______ _____ _____    ______ ____
DOCKED: ROOT
DOCKED: ATOM      1  C18 UNL     1       9.434  -8.772  -2.322 +0.00 +0.00    +0.106 C  
DOCKED: ENDROOT
DOCKED: BRANCH   1   4
DOCKED: ATOM      2  C17 UNL     1       8.902  -7.670  -0.141 +0.00 +0.00    +0.216 C  
DOCKED: ATOM      3  O4  UNL     1       9.396  -6.593  -0.467 +0.00 -0.00    -0.276 OA 
DOCKED: ATOM      4  N3  UNL     1       8.884  -8.768  -0.961 +0.00 -0.00    -0.310 N  
DOCKED: ATOM      5  H32 UNL     1       8.507  -9.655  -0.650 +0.00 +0.00    +0.149 HD 
DOCKED: BRANCH   2   6
DOCKED: ATOM      6  C16 UNL     1       8.248  -7.861   1.209 +0.00 +0.00    +0.129 C  
DOCKED: BRANCH   6   7
DOCKED: ATOM      7  C15 UNL     1       6.765  -8.233   1.154 +0.00 +0.00    +0.143 C  
DOCKED: BRANCH   7   8
DOCKED: ATOM      8  O3  UNL     1       6.540  -9.074   0.006 +0.00 -0.00    -0.389 OA 
DOCKED: ATOM      9  H29 UNL     1       5.991  -8.572  -0.632 +0.00 +0.00    +0.210 HD 
DOCKED: ENDBRANCH   7   8
DOCKED: BRANCH   7  10
DOCKED: ATOM     10  C6  UNL     1       5.730  -7.071   1.173 +0.00 +0.00    +0.102 C  
DOCKED: BRANCH  10  11
DOCKED: ATOM     11  N1  UNL     1       5.925  -6.250  -0.031 +0.00 -0.00    -0.308 N  
DOCKED: ATOM     12  C7  UNL     1       6.475  -4.990  -0.013 +0.00 +0.00    +0.234 C  
DOCKED: ATOM     13  O1  UNL     1       6.943  -4.472   1.003 +0.00 -0.00    -0.274 OA 
DOCKED: ATOM     14  H13 UNL     1       5.585  -6.638  -0.905 +0.00 +0.00    +0.149 HD 
DOCKED: BRANCH  12  15
DOCKED: ATOM     15  C8  UNL     1       6.480  -4.279  -1.390 +0.00 +0.00    +0.159 C  
DOCKED: BRANCH  15  16
DOCKED: ATOM     16  N2  UNL     1       7.550  -4.890  -2.168 +0.00 -0.00    -0.304 N  
DOCKED: ATOM     17  C13 UNL     1       8.493  -4.092  -2.780 +0.00 +0.00    +0.211 C  
DOCKED: ATOM     18  C14 UNL     1       9.681  -4.854  -3.302 +0.00 +0.00    +0.109 C  
DOCKED: ATOM     19  O2  UNL     1       8.389  -2.872  -2.890 +0.00 -0.00    -0.276 OA 
DOCKED: ATOM     20  H24 UNL     1       7.901  -5.765  -1.792 +0.00 +0.00    +0.149 HD 
DOCKED: ENDBRANCH  15  16
DOCKED: BRANCH  15  21
DOCKED: ATOM     21  C9  UNL     1       5.114  -4.431  -2.076 +0.00 +0.00    +0.034 C  
DOCKED: BRANCH  21  22
DOCKED: ATOM     22  C10 UNL     1       4.803  -3.463  -3.237 +0.00 -0.00    -0.015 C  
DOCKED: ATOM     23  C11 UNL     1       3.306  -3.222  -3.442 +0.00 +0.00    +0.007 C  
DOCKED: ATOM     24  C12 UNL     1       5.459  -3.885  -4.552 +0.00 +0.00    +0.007 C  
DOCKED: ENDBRANCH  21  22
DOCKED: ENDBRANCH  15  21
DOCKED: ENDBRANCH  12  15
DOCKED: ENDBRANCH  10  11
DOCKED: BRANCH  10  25
DOCKED: ATOM     25  C5  UNL     1       4.254  -7.538   1.182 +0.00 +0.00    +0.028 C  
DOCKED: BRANCH  25  26
DOCKED: ATOM     26  C3  UNL     1       3.184  -6.440   1.315 +0.00 -0.00    -0.013 C  
DOCKED: ATOM     27  C4  UNL     1       3.704  -5.290   2.182 +0.00 +0.00    +0.007 C  
DOCKED: BRANCH  26  29
DOCKED: ATOM     28  C1  UNL     1       1.444  -6.637  -0.613 +0.00 +0.00    +0.004 C  
DOCKED: ATOM     29  C2  UNL     1       2.676  -5.933  -0.053 +0.00 -0.00    -0.000 C  
DOCKED: ENDBRANCH  26  29
DOCKED: ENDBRANCH  25  26
DOCKED: ENDBRANCH  10  25
DOCKED: ENDBRANCH   7  10
DOCKED: ENDBRANCH   6   7
DOCKED: ENDBRANCH   2   6
DOCKED: ENDBRANCH   1   4
DOCKED: BRANCH   1  30
DOCKED: ATOM     30  C19 UNL     1      10.744  -9.598  -2.388 +0.00 +0.00    +0.060 C  
DOCKED: BRANCH  30  31
DOCKED: ATOM     31  C20 UNL     1      10.776 -10.937  -1.678 +0.00 -0.00    -0.046 A  
DOCKED: ATOM     32  C21 UNL     1      11.207 -10.992  -0.342 +0.00 +0.00    +0.004 A  
DOCKED: ATOM     33  C22 UNL     1      11.166 -12.188   0.378 +0.00 +0.00    +0.000 A  
DOCKED: ATOM     34  C23 UNL     1      10.724 -13.357  -0.235 +0.00 +0.00    +0.000 A  
DOCKED: ATOM     35  C24 UNL     1      10.290 -13.317  -1.555 +0.00 +0.00    +0.000 A  
DOCKED: ATOM     36  C25 UNL     1      10.290 -12.112  -2.263 +0.00 +0.00    +0.004 A  
DOCKED: ENDBRANCH  30  31
DOCKED: ENDBRANCH   1  30
DOCKED: BRANCH   1  37
DOCKED: ATOM     37  C26 UNL     1       8.380  -9.366  -3.294 +0.00 +0.00    +0.144 C  
DOCKED: BRANCH  37  38
DOCKED: ATOM     38  O5  UNL     1       7.356 -10.012  -2.518 +0.00 -0.00    -0.389 OA 
DOCKED: ATOM     39  H42 UNL     1       7.058  -9.345  -1.865 +0.00 +0.00    +0.210 HD 
DOCKED: ENDBRANCH  37  38
DOCKED: BRANCH  37  40
DOCKED: ATOM     40  C27 UNL     1       7.730  -8.286  -4.164 +0.00 +0.00    +0.129 C  
DOCKED: BRANCH  40  41
DOCKED: ATOM     41  C28 UNL     1       6.517  -7.702  -3.472 +0.00 +0.00    +0.216 C  
DOCKED: ATOM     42  O6  UNL     1       6.521  -7.344  -2.298 +0.00 -0.00    -0.276 OA 
DOCKED: ATOM     43  N4  UNL     1       5.422  -7.608  -4.294 +0.00 -0.00    -0.304 N  
DOCKED: ATOM     44  H45 UNL     1       5.453  -7.990  -5.235 +0.00 +0.00    +0.149 HD 
DOCKED: BRANCH  43  45
DOCKED: ATOM     45  C29 UNL     1       4.137  -7.045  -3.874 +0.00 +0.00    +0.161 C  
DOCKED: BRANCH  45  46
DOCKED: ATOM     46  C30 UNL     1       3.640  -8.002  -2.770 +0.00 +0.00    +0.234 C  
DOCKED: ATOM     47  O7  UNL     1       4.157  -8.019  -1.654 +0.00 -0.00    -0.274 OA 
DOCKED: ATOM     48  N5  UNL     1       2.608  -8.836  -3.131 +0.00 -0.00    -0.310 N  
DOCKED: ATOM     49  H47 UNL     1       2.314  -8.861  -4.097 +0.00 +0.00    +0.149 HD 
DOCKED: BRANCH  48  50
DOCKED: ATOM     50  C31 UNL     1       2.188  -9.924  -2.279 +0.00 +0.00    +0.139 C  
DOCKED: BRANCH  50  51
DOCKED: ATOM     51  C32 UNL     1       3.388 -10.627  -1.691 +0.00 -0.00    -0.030 A  
DOCKED: ATOM     52  C33 UNL     1       3.624 -10.581  -0.309 +0.00 +0.00    +0.006 A  
DOCKED: ATOM     53  C34 UNL     1       4.762 -11.174   0.242 +0.00 +0.00    +0.015 A  
DOCKED: ATOM     54  C35 UNL     1       5.682 -11.830  -0.585 +0.00 +0.00    +0.059 A  
DOCKED: ATOM     55  C37 UNL     1       5.456 -11.883  -1.965 +0.00 +0.00    +0.015 A  
DOCKED: ATOM     56  C38 UNL     1       4.317 -11.281  -2.515 +0.00 +0.00    +0.006 A  
DOCKED: BRANCH  54  57
DOCKED: ATOM     57  C36 UNL     1       6.880 -12.446   0.040 +0.00 +0.00    +0.337 C  
DOCKED: ATOM     58  O8  UNL     1       6.932 -13.552   0.547 +0.00 -0.00    -0.245 OA 
DOCKED: BRANCH  57  59
DOCKED: ATOM     59  O9  UNL     1       7.956 -11.642   0.013 +0.00 -0.00    -0.477 OA 
DOCKED: ATOM     60  H52 UNL     1       7.653 -10.872  -0.518 +0.00 +0.00    +0.295 HD 
DOCKED: ENDBRANCH  57  59
DOCKED: ENDBRANCH  54  57
DOCKED: ENDBRANCH  50  51
DOCKED: ENDBRANCH  48  50
DOCKED: ENDBRANCH  45  46
DOCKED: BRANCH  45  61
DOCKED: ATOM     61  C39 UNL     1       3.139  -6.976  -5.054 +0.00 +0.00    +0.012 C  
DOCKED: ATOM     62  C40 UNL     1       3.775  -6.393  -6.320 +0.00 +0.00    +0.009 C  
DOCKED: ATOM     63  C41 UNL     1       1.900  -6.142  -4.709 +0.00 +0.00    +0.009 C  
DOCKED: ENDBRANCH  45  61
DOCKED: ENDBRANCH  43  45
DOCKED: ENDBRANCH  40  41
DOCKED: ENDBRANCH  37  40
DOCKED: ENDBRANCH   1  37
DOCKED: TORSDOF 26
DOCKED: TER
DOCKED: ENDMDL
________________________________________________________________________________


    CLUSTERING HISTOGRAM
    ____________________


________________________________________________________________________________
     |           |     |           |     |
Clus | Lowest    | Run | Mean      | Num | Histogram
-ter | Binding   |     | Binding   | in  |
Rank | Energy    |     | Energy    | Clus|    5    10   15   20   25   30   35
_____|___________|_____|___________|_____|____:____|____:____|____:____|____:___
   1 |     +7.76 |   1 |     +7.76 |   1 |#
   2 |     +7.76 |   2 |     +7.76 |   1 |#
   3 |     +7.76 |   3 |     +7.76 |   1 |#
   4 |     +7.76 |   4 |     +7.76 |   1 |#
   5 |     +7.76 |   5 |     +7.76 |   1 |#
   6 |     +7.76 |   6 |     +7.76 |   1 |#
   7 |     +7.76 |   7 |     +7.76 |   1 |#
   8 |     +7.76 |   8 |     +7.76 |   1 |#
   9 |     +7.76 |   9 |     +7.76 |   1 |#
  10 |     +7.76 |  10 |     +7.76 |   1 |#
  11 |     +7.76 |  11 |     +7.76 |   1 |#
  12 |     +7.76 |  12 |     +7.76 |   1 |#
  13 |     +7.76 |  13 |     +7.76 |   1 |#
  14 |     +7.76 |  14 |     +7.76 |   1 |#
  15 |     +7.76 |  15 |     +7.76 |   1 |#
  16 |     +7.76 |  16 |     +7.76 |   1 |#
  17 |     +7.76 |  17 |     +7.76 |   1 |#
  18 |     +7.76 |  18 |     +7.76 |   1 |#
  19 |     +7.76 |  19 |     +7.76 |   1 |#
  20 |     +7.76 |  20 |     +7.76 |   1 |#
_____|___________|_____|___________|_____|______________________________________


    RMSD TABLE
    __________


_______________________________________________________________________
     |      |      |           |         |                 |
Rank | Sub- | Run  | Binding   | Cluster | Reference       | Grep
     | Rank |      | Energy    | RMSD    | RMSD            | Pattern
_____|______|______|___________|_________|_________________|___________
   1      1      1       +7.76      0.00      8.88           RANKING
   2      1      2       +7.76      0.00     16.75           RANKING
   3      1      3       +7.76      0.00     10.02           RANKING
   4      1      4       +7.76      0.00     12.35           RANKING
   5      1      5       +7.76      0.00     13.07           RANKING
   6      1      6       +7.76      0.00      8.74           RANKING
   7      1      7       +7.76      0.00      5.90           RANKING
   8      1      8       +7.76      0.00     13.36           RANKING
   9      1      9       +7.76      0.00      9.96           RANKING
  10      1     10       +7.76      0.00      5.81           RANKING
  11      1     11       +7.76      0.00     10.13           RANKING
  12      1     12       +7.76      0.00      5.71           RANKING
  13      1     13       +7.76      0.00      5.73           RANKING
  14      1     14       +7.76      0.00     13.61           RANKING
  15      1     15       +7.76      0.00     10.28           RANKING
  16      1     16       +7.76      0.00     10.67           RANKING
  17      1     17       +7.76      0.00     11.59           RANKING
  18      1     18       +7.76      0.00      7.91           RANKING
  19      1     19       +7.76      0.00      6.99           RANKING
  20      1     20       +7.76      0.00      8.69           RANKING

Run time 72.151 sec
Idle time 0.430 sec
