AutoDock-GPU version: v1.6

**********************************************************
**    AutoDock-GPU AUTODOCKTOOLS-COMPATIBLE DLG FILE    **
**********************************************************


    DOCKING PARAMETERS
    ________________________


Ligand file:                               ligands/ligand_22.pdbqt
Grid fld file:                             protein.maps.fld

Random seed:                               1770972791, 28527
Number of runs:                            20
Number of energy evaluations:              9755677
Number of generations:                     42000
Size of population:                        150
Rate of crossover:                         80.000000%
Tournament selection probability limit:    60.000000%
Rate of mutation:                          2.000000%
Maximal allowed delta movement:            +/- 6.000000A
Maximal allowed delta angle:               +/- 90.000000

Rate of local search:                      100.000000%
Maximal number of local search iterations: 300
Rho lower bound:                           0.010000
Spread of local search delta movement:     2.000000A
Spread of local search delta angle:        74.999999
Limit of consecutive successes/failures:   4

Handle symmetry during clustering:         YES
RMSD tolerance:                            2.000000A

Program call in command line was:          ./autodock-gpu --ffile protein.maps.fld --lfile ligands/ligand_22.pdbqt --nrun 20 


    GRID PARAMETERS
    ________________________


Receptor name:                             #MACROMOLECULE
Number of grid points (x, y, z):           61, 61, 61
Grid center (x, y, z):                     10.261000, -3.492000, -0.127000A
Grid size (x, y, z):                       22.500000, 22.500000, 22.500000A
Grid spacing:                              0.375000A


    LIGAND PARAMETERS
    ________________________


Ligand name:                               ligands/ligand_22
Number of atoms:                           57
Number of rotatable bonds:                 21
Number of atom types:                      5


    DUMMY DATA (only for ADT-compatibility)
    ________________________


DPF> outlev 1
DPF> ga_run 20
DPF> fld protein.maps.fld
DPF> move ligands/ligand_22.pdbqt


    COUNTER STATES
    ________________________


Number of energy evaluations performed:    4986918
Number of generations used:                200


    INPUT LIGAND PDBQT FILE:
    ________________________


INPUT-LIGAND-PDBQT: REMARK  Name = ligands/ligand_22.pdb
INPUT-LIGAND-PDBQT: REMARK  28 active torsions:
INPUT-LIGAND-PDBQT: REMARK  status: ('A' for Active; 'I' for Inactive)
INPUT-LIGAND-PDBQT: REMARK    1  A    between atoms: C1_1  and  C2_2
INPUT-LIGAND-PDBQT: REMARK    2  A    between atoms: C2_2  and  C3_3
INPUT-LIGAND-PDBQT: REMARK    3  A    between atoms: C3_3  and  C4_4
INPUT-LIGAND-PDBQT: REMARK    4  A    between atoms: C3_3  and  C5_5
INPUT-LIGAND-PDBQT: REMARK    5  A    between atoms: C5_5  and  N1_6
INPUT-LIGAND-PDBQT: REMARK    6  A    between atoms: C5_5  and  C12_15
INPUT-LIGAND-PDBQT: REMARK    7  A    between atoms: C6_7  and  C7_9
INPUT-LIGAND-PDBQT: REMARK    8  A    between atoms: N2_17  and  C13_18
INPUT-LIGAND-PDBQT: REMARK    9  A    between atoms: C13_18  and  C14_19
INPUT-LIGAND-PDBQT: REMARK   10  A    between atoms: C13_18  and  C15_20
INPUT-LIGAND-PDBQT: REMARK   11  A    between atoms: N3_22  and  C16_23
INPUT-LIGAND-PDBQT: REMARK   12  A    between atoms: C16_23  and  C17_24
INPUT-LIGAND-PDBQT: REMARK   13  A    between atoms: C16_23  and  C21_28
INPUT-LIGAND-PDBQT: REMARK   14  A    between atoms: C17_24  and  C18_25
INPUT-LIGAND-PDBQT: REMARK   15  A    between atoms: C18_25  and  C19_26
INPUT-LIGAND-PDBQT: REMARK   16  A    between atoms: C18_25  and  C20_27
INPUT-LIGAND-PDBQT: REMARK   17  A    between atoms: C21_28  and  O5_29
INPUT-LIGAND-PDBQT: REMARK   18  A    between atoms: C21_28  and  C22_30
INPUT-LIGAND-PDBQT: REMARK   19  A    between atoms: C22_30  and  C23_31
INPUT-LIGAND-PDBQT: REMARK   20  A    between atoms: N4_33  and  C24_34
INPUT-LIGAND-PDBQT: REMARK   21  A    between atoms: C24_34  and  C25_35
INPUT-LIGAND-PDBQT: REMARK   22  A    between atoms: C24_34  and  C34_48
INPUT-LIGAND-PDBQT: REMARK   23  A    between atoms: N5_37  and  C26_38
INPUT-LIGAND-PDBQT: REMARK   24  A    between atoms: C26_38  and  C27_39
INPUT-LIGAND-PDBQT: REMARK   25  A    between atoms: C31_43  and  C32_44
INPUT-LIGAND-PDBQT: REMARK   26  A    between atoms: C32_44  and  O9_46
INPUT-LIGAND-PDBQT: REMARK   27  A    between atoms: C34_48  and  C35_49
INPUT-LIGAND-PDBQT: REMARK   28  A    between atoms: C34_48  and  C36_50
INPUT-LIGAND-PDBQT: REMARK                            x       y       z     vdW  Elec       q    Type
INPUT-LIGAND-PDBQT: REMARK                         _______ _______ _______ _____ _____    ______ ____
INPUT-LIGAND-PDBQT: ROOT
INPUT-LIGAND-PDBQT: ATOM      1  C16 UNL     1       0.771  -3.777   0.336  0.00  0.00    +0.102 C 
INPUT-LIGAND-PDBQT: ENDROOT
INPUT-LIGAND-PDBQT: BRANCH   1   4
INPUT-LIGAND-PDBQT: ATOM      2  C15 UNL     1       0.638  -1.825  -1.233  0.00  0.00    +0.233 C 
INPUT-LIGAND-PDBQT: ATOM      3  O4  UNL     1       0.840  -0.994  -0.347  0.00  0.00    -0.274 OA
INPUT-LIGAND-PDBQT: ATOM      4  N3  UNL     1       0.525  -3.174  -0.981  0.00  0.00    -0.308 N 
INPUT-LIGAND-PDBQT: ATOM      5  H26 UNL     1       0.620  -3.815  -1.761  0.00  0.00    +0.149 HD
INPUT-LIGAND-PDBQT: BRANCH   2   6
INPUT-LIGAND-PDBQT: ATOM      6  C13 UNL     1       0.563  -1.458  -2.729  0.00  0.00    +0.156 C 
INPUT-LIGAND-PDBQT: ATOM      7  C14 UNL     1       1.860  -1.862  -3.424  0.00  0.00    +0.038 C 
INPUT-LIGAND-PDBQT: BRANCH   6  10
INPUT-LIGAND-PDBQT: ATOM      8  C12 UNL     1      -0.929   0.485  -3.000  0.00  0.00    +0.234 C 
INPUT-LIGAND-PDBQT: ATOM      9  O3  UNL     1      -1.938  -0.224  -3.017  0.00  0.00    -0.274 OA
INPUT-LIGAND-PDBQT: ATOM     10  N2  UNL     1       0.343  -0.028  -2.893  0.00  0.00    -0.303 N 
INPUT-LIGAND-PDBQT: ATOM     11  H21 UNL     1       1.070   0.586  -2.549  0.00  0.00    +0.149 HD
INPUT-LIGAND-PDBQT: BRANCH   8  12
INPUT-LIGAND-PDBQT: ATOM     12  C5  UNL     1      -1.007   2.025  -3.111  0.00  0.00    +0.162 C 
INPUT-LIGAND-PDBQT: BRANCH  12  13
INPUT-LIGAND-PDBQT: ATOM     13  N1  UNL     1      -2.229   2.325  -3.862  0.00  0.00    -0.302 N 
INPUT-LIGAND-PDBQT: ATOM     14  C6  UNL     1      -2.200   2.378  -5.247  0.00  0.00    +0.243 C 
INPUT-LIGAND-PDBQT: ATOM     15  O1  UNL     1      -1.150   2.385  -5.888  0.00  0.00    -0.273 OA
INPUT-LIGAND-PDBQT: ATOM     16  H11 UNL     1      -3.079   1.954  -3.451  0.00  0.00    +0.150 HD
INPUT-LIGAND-PDBQT: BRANCH  14  17
INPUT-LIGAND-PDBQT: ATOM     17  C7  UNL     1      -3.602   2.417  -5.898  0.00  0.00    +0.204 C 
INPUT-LIGAND-PDBQT: ATOM     18  C8  UNL     1      -4.225   1.014  -5.868  0.00  0.00    +0.041 C 
INPUT-LIGAND-PDBQT: ATOM     19  C9  UNL     1      -3.696   0.149  -7.005  0.00  0.00    +0.005 C 
INPUT-LIGAND-PDBQT: ATOM     20  C10 UNL     1      -3.740   0.877  -8.347  0.00  0.00    +0.028 C 
INPUT-LIGAND-PDBQT: ATOM     21  C11 UNL     1      -4.244   2.306  -8.214  0.00  0.00    +0.161 C 
INPUT-LIGAND-PDBQT: ATOM     22  O2  UNL     1      -3.536   3.003  -7.199  0.00  0.00    -0.367 OA
INPUT-LIGAND-PDBQT: ENDBRANCH  14  17
INPUT-LIGAND-PDBQT: ENDBRANCH  12  13
INPUT-LIGAND-PDBQT: BRANCH  12  23
INPUT-LIGAND-PDBQT: ATOM     23  C3  UNL     1      -1.012   2.764  -1.750  0.00  0.00    +0.015 C 
INPUT-LIGAND-PDBQT: ATOM     24  C4  UNL     1      -2.054   2.203  -0.775  0.00  0.00    +0.010 C 
INPUT-LIGAND-PDBQT: BRANCH  23  26
INPUT-LIGAND-PDBQT: ATOM     25  C1  UNL     1       0.534   3.856  -0.031  0.00  0.00    +0.004 C 
INPUT-LIGAND-PDBQT: ATOM     26  C2  UNL     1       0.393   2.794  -1.116  0.00  0.00    +0.002 C 
INPUT-LIGAND-PDBQT: ENDBRANCH  23  26
INPUT-LIGAND-PDBQT: ENDBRANCH  12  23
INPUT-LIGAND-PDBQT: ENDBRANCH   8  12
INPUT-LIGAND-PDBQT: ENDBRANCH   6  10
INPUT-LIGAND-PDBQT: ENDBRANCH   2   6
INPUT-LIGAND-PDBQT: ENDBRANCH   1   4
INPUT-LIGAND-PDBQT: BRANCH   1  27
INPUT-LIGAND-PDBQT: ATOM     27  C21 UNL     1       2.252  -4.252   0.421  0.00  0.00    +0.143 C 
INPUT-LIGAND-PDBQT: BRANCH  27  28
INPUT-LIGAND-PDBQT: ATOM     28  O5  UNL     1       2.555  -5.021  -0.761  0.00  0.00    -0.389 OA
INPUT-LIGAND-PDBQT: ATOM     29  H38 UNL     1       3.371  -5.519  -0.573  0.00  0.00    +0.210 HD
INPUT-LIGAND-PDBQT: ENDBRANCH  27  28
INPUT-LIGAND-PDBQT: BRANCH  27  30
INPUT-LIGAND-PDBQT: ATOM     30  C22 UNL     1       3.258  -3.105   0.525  0.00  0.00    +0.129 C 
INPUT-LIGAND-PDBQT: BRANCH  30  31
INPUT-LIGAND-PDBQT: ATOM     31  C23 UNL     1       3.212  -2.452   1.887  0.00  0.00    +0.216 C 
INPUT-LIGAND-PDBQT: ATOM     32  O6  UNL     1       3.011  -3.097   2.912  0.00  0.00    -0.276 OA
INPUT-LIGAND-PDBQT: ATOM     33  N4  UNL     1       3.497  -1.108   1.885  0.00  0.00    -0.304 N 
INPUT-LIGAND-PDBQT: ATOM     34  H41 UNL     1       3.343  -0.597   1.017  0.00  0.00    +0.149 HD
INPUT-LIGAND-PDBQT: BRANCH  33  35
INPUT-LIGAND-PDBQT: ATOM     35  C24 UNL     1       3.365  -0.308   3.102  0.00  0.00    +0.161 C 
INPUT-LIGAND-PDBQT: BRANCH  35  36
INPUT-LIGAND-PDBQT: ATOM     36  C25 UNL     1       2.357   0.820   2.815  0.00  0.00    +0.234 C 
INPUT-LIGAND-PDBQT: ATOM     37  O7  UNL     1       2.256   1.333   1.700  0.00  0.00    -0.274 OA
INPUT-LIGAND-PDBQT: ATOM     38  N5  UNL     1       1.617   1.219   3.907  0.00  0.00    -0.310 N 
INPUT-LIGAND-PDBQT: ATOM     39  H43 UNL     1       1.621   0.629   4.731  0.00  0.00    +0.149 HD
INPUT-LIGAND-PDBQT: BRANCH  38  40
INPUT-LIGAND-PDBQT: ATOM     40  C26 UNL     1       0.497   2.123   3.767  0.00  0.00    +0.139 C 
INPUT-LIGAND-PDBQT: BRANCH  40  41
INPUT-LIGAND-PDBQT: ATOM     41  C27 UNL     1      -0.802   1.365   3.645  0.00  0.00    -0.030 A 
INPUT-LIGAND-PDBQT: ATOM     42  C28 UNL     1      -1.052   0.544   2.534  0.00  0.00    +0.005 A 
INPUT-LIGAND-PDBQT: ATOM     43  C29 UNL     1      -2.250  -0.163   2.421  0.00  0.00    +0.001 A 
INPUT-LIGAND-PDBQT: ATOM     44  C30 UNL     1      -3.219  -0.051   3.413  0.00  0.00    +0.015 A 
INPUT-LIGAND-PDBQT: ATOM     45  C31 UNL     1      -2.994   0.771   4.525  0.00  0.00    +0.059 A 
INPUT-LIGAND-PDBQT: ATOM     46  C33 UNL     1      -1.786   1.474   4.639  0.00  0.00    +0.020 A 
INPUT-LIGAND-PDBQT: BRANCH  45  47
INPUT-LIGAND-PDBQT: ATOM     47  C32 UNL     1      -4.059   0.866   5.556  0.00  0.00    +0.337 C 
INPUT-LIGAND-PDBQT: ATOM     48  O8  UNL     1      -5.125   0.279   5.541  0.00  0.00    -0.245 OA
INPUT-LIGAND-PDBQT: BRANCH  47  49
INPUT-LIGAND-PDBQT: ATOM     49  O9  UNL     1      -3.738   1.696   6.565  0.00  0.00    -0.477 OA
INPUT-LIGAND-PDBQT: ATOM     50  H49 UNL     1      -4.516   1.650   7.160  0.00  0.00    +0.295 HD
INPUT-LIGAND-PDBQT: ENDBRANCH  47  49
INPUT-LIGAND-PDBQT: ENDBRANCH  45  47
INPUT-LIGAND-PDBQT: ENDBRANCH  40  41
INPUT-LIGAND-PDBQT: ENDBRANCH  38  40
INPUT-LIGAND-PDBQT: ENDBRANCH  35  36
INPUT-LIGAND-PDBQT: BRANCH  35  51
INPUT-LIGAND-PDBQT: ATOM     51  C34 UNL     1       4.709   0.258   3.609  0.00  0.00    +0.012 C 
INPUT-LIGAND-PDBQT: ATOM     52  C35 UNL     1       5.622  -0.868   4.102  0.00  0.00    +0.009 C 
INPUT-LIGAND-PDBQT: ATOM     53  C36 UNL     1       5.447   1.101   2.564  0.00  0.00    +0.009 C 
INPUT-LIGAND-PDBQT: ENDBRANCH  35  51
INPUT-LIGAND-PDBQT: ENDBRANCH  33  35
INPUT-LIGAND-PDBQT: ENDBRANCH  30  31
INPUT-LIGAND-PDBQT: ENDBRANCH  27  30
INPUT-LIGAND-PDBQT: ENDBRANCH   1  27
INPUT-LIGAND-PDBQT: BRANCH   1  54
INPUT-LIGAND-PDBQT: ATOM     54  C17 UNL     1      -0.212  -4.961   0.505  0.00  0.00    +0.028 C 
INPUT-LIGAND-PDBQT: BRANCH  54  55
INPUT-LIGAND-PDBQT: ATOM     55  C18 UNL     1      -0.870  -5.047   1.898  0.00  0.00    -0.015 C 
INPUT-LIGAND-PDBQT: ATOM     56  C19 UNL     1      -1.924  -6.158   1.902  0.00  0.00    +0.007 C 
INPUT-LIGAND-PDBQT: ATOM     57  C20 UNL     1       0.135  -5.293   3.020  0.00  0.00    +0.007 C 
INPUT-LIGAND-PDBQT: ENDBRANCH  54  55
INPUT-LIGAND-PDBQT: ENDBRANCH   1  54
INPUT-LIGAND-PDBQT: TORSDOF 21


    FINAL DOCKED STATE:
    ________________________


Run:   1 / 20
Time taken for this run:   1.466s

DOCKED: MODEL        1
DOCKED: USER    Run = 1
DOCKED: USER
DOCKED: USER    Estimated Free Energy of Binding    =  +6.26 kcal/mol  [=(1)+(2)+(3)-(4)]
DOCKED: USER
DOCKED: USER    (1) Final Intermolecular Energy     =  +0.00 kcal/mol
DOCKED: USER        vdW + Hbond + desolv Energy     =  +0.00 kcal/mol
DOCKED: USER        Electrostatic Energy            =  +0.00 kcal/mol
DOCKED: USER        Moving Ligand-Fixed Receptor    =  +0.00 kcal/mol
DOCKED: USER        Moving Ligand-Moving Receptor   =  +0.00 kcal/mol
DOCKED: USER    (2) Final Total Internal Energy     = -16.05 kcal/mol
DOCKED: USER    (3) Torsional Free Energy           =  +6.26 kcal/mol
DOCKED: USER    (4) Unbound System's Energy         = -16.05 kcal/mol
DOCKED: USER
DOCKED: USER
DOCKED: REMARK  Name = ligands/ligand_22.pdb
DOCKED: REMARK  28 active torsions:
DOCKED: REMARK  status: ('A' for Active; 'I' for Inactive)
DOCKED: REMARK    1  A    between atoms: C1_1  and  C2_2
DOCKED: REMARK    2  A    between atoms: C2_2  and  C3_3
DOCKED: REMARK    3  A    between atoms: C3_3  and  C4_4
DOCKED: REMARK    4  A    between atoms: C3_3  and  C5_5
DOCKED: REMARK    5  A    between atoms: C5_5  and  N1_6
DOCKED: REMARK    6  A    between atoms: C5_5  and  C12_15
DOCKED: REMARK    7  A    between atoms: C6_7  and  C7_9
DOCKED: REMARK    8  A    between atoms: N2_17  and  C13_18
DOCKED: REMARK    9  A    between atoms: C13_18  and  C14_19
DOCKED: REMARK   10  A    between atoms: C13_18  and  C15_20
DOCKED: REMARK   11  A    between atoms: N3_22  and  C16_23
DOCKED: REMARK   12  A    between atoms: C16_23  and  C17_24
DOCKED: REMARK   13  A    between atoms: C16_23  and  C21_28
DOCKED: REMARK   14  A    between atoms: C17_24  and  C18_25
DOCKED: REMARK   15  A    between atoms: C18_25  and  C19_26
DOCKED: REMARK   16  A    between atoms: C18_25  and  C20_27
DOCKED: REMARK   17  A    between atoms: C21_28  and  O5_29
DOCKED: REMARK   18  A    between atoms: C21_28  and  C22_30
DOCKED: REMARK   19  A    between atoms: C22_30  and  C23_31
DOCKED: REMARK   20  A    between atoms: N4_33  and  C24_34
DOCKED: REMARK   21  A    between atoms: C24_34  and  C25_35
DOCKED: REMARK   22  A    between atoms: C24_34  and  C34_48
DOCKED: REMARK   23  A    between atoms: N5_37  and  C26_38
DOCKED: REMARK   24  A    between atoms: C26_38  and  C27_39
DOCKED: REMARK   25  A    between atoms: C31_43  and  C32_44
DOCKED: REMARK   26  A    between atoms: C32_44  and  O9_46
DOCKED: REMARK   27  A    between atoms: C34_48  and  C35_49
DOCKED: REMARK   28  A    between atoms: C34_48  and  C36_50
DOCKED: REMARK                            x       y       z     vdW  Elec       q    Type
DOCKED: REMARK                         _______ _______ _______ _____ _____    ______ ____
DOCKED: USER                              x       y       z     vdW  Elec       q    Type
DOCKED: USER                           _______ _______ _______ _____ _____    ______ ____
DOCKED: ROOT
DOCKED: ATOM      1  C16 UNL     1      16.389  -1.310  -3.820 +0.00 +0.00    +0.102 C  
DOCKED: ENDROOT
DOCKED: BRANCH   1   4
DOCKED: ATOM      2  C15 UNL     1      14.878  -1.603  -1.840 +0.00 +0.00    +0.233 C  
DOCKED: ATOM      3  O4  UNL     1      14.688  -2.800  -2.059 +0.00 -0.00    -0.274 OA 
DOCKED: ATOM      4  N3  UNL     1      15.627  -0.801  -2.671 +0.00 -0.00    -0.308 N  
DOCKED: ATOM      5  H26 UNL     1      15.957   0.087  -2.308 +0.00 +0.00    +0.149 HD 
DOCKED: BRANCH   2   6
DOCKED: ATOM      6  C13 UNL     1      14.363  -0.887  -0.575 +0.00 +0.00    +0.156 C  
DOCKED: ATOM      7  C14 UNL     1      12.860  -0.653  -0.692 +0.00 +0.00    +0.038 C  
DOCKED: BRANCH   6  10
DOCKED: ATOM      8  C12 UNL     1      14.865   1.132   0.747 +0.00 +0.00    +0.234 C  
DOCKED: ATOM      9  O3  UNL     1      14.089   0.801   1.647 +0.00 -0.00    -0.274 OA 
DOCKED: ATOM     10  N2  UNL     1      15.046   0.386  -0.395 +0.00 -0.00    -0.303 N  
DOCKED: ATOM     11  H21 UNL     1      15.907   0.517  -0.910 +0.00 +0.00    +0.149 HD 
DOCKED: BRANCH   8  12
DOCKED: ATOM     12  C5  UNL     1      15.699   2.431   0.820 +0.00 +0.00    +0.162 C  
DOCKED: BRANCH  12  13
DOCKED: ATOM     13  N1  UNL     1      15.201   3.304  -0.246 +0.00 -0.00    -0.302 N  
DOCKED: ATOM     14  C6  UNL     1      15.493   3.021  -1.572 +0.00 +0.00    +0.243 C  
DOCKED: ATOM     15  O1  UNL     1      16.327   2.178  -1.901 +0.00 -0.00    -0.273 OA 
DOCKED: ATOM     16  H11 UNL     1      14.286   3.705  -0.071 +0.00 +0.00    +0.150 HD 
DOCKED: BRANCH  14  17
DOCKED: ATOM     17  C7  UNL     1      14.670   3.853  -2.582 +0.00 +0.00    +0.204 C  
DOCKED: ATOM     18  C8  UNL     1      15.582   4.876  -3.274 +0.00 +0.00    +0.041 C  
DOCKED: ATOM     19  C9  UNL     1      15.796   6.106  -2.400 +0.00 +0.00    +0.005 C  
DOCKED: ATOM     20  C10 UNL     1      14.482   6.646  -1.839 +0.00 +0.00    +0.028 C  
DOCKED: ATOM     21  C11 UNL     1      13.288   5.792  -2.238 +0.00 +0.00    +0.161 C  
DOCKED: ATOM     22  O2  UNL     1      13.523   4.421  -1.949 +0.00 -0.00    -0.367 OA 
DOCKED: ENDBRANCH  14  17
DOCKED: ENDBRANCH  12  13
DOCKED: BRANCH  12  23
DOCKED: ATOM     23  C3  UNL     1      15.636   3.155   2.187 +0.00 +0.00    +0.015 C  
DOCKED: ATOM     24  C4  UNL     1      16.282   2.345   3.317 +0.00 +0.00    +0.010 C  
DOCKED: BRANCH  23  26
DOCKED: ATOM     25  C1  UNL     1      15.178   5.641   1.803 +0.00 +0.00    +0.004 C  
DOCKED: ATOM     26  C2  UNL     1      16.227   4.576   2.104 +0.00 +0.00    +0.002 C  
DOCKED: ENDBRANCH  23  26
DOCKED: ENDBRANCH  12  23
DOCKED: ENDBRANCH   8  12
DOCKED: ENDBRANCH   6  10
DOCKED: ENDBRANCH   2   6
DOCKED: ENDBRANCH   1   4
DOCKED: BRANCH   1  27
DOCKED: ATOM     27  C21 UNL     1      17.783  -0.615  -3.867 +0.00 +0.00    +0.143 C  
DOCKED: BRANCH  27  28
DOCKED: ATOM     28  O5  UNL     1      17.587   0.811  -3.782 +0.00 -0.00    -0.389 OA 
DOCKED: ATOM     29  H38 UNL     1      17.454   1.023  -2.841 +0.00 +0.00    +0.210 HD 
DOCKED: ENDBRANCH  27  28
DOCKED: BRANCH  27  30
DOCKED: ATOM     30  C22 UNL     1      18.720  -1.044  -2.738 +0.00 +0.00    +0.129 C  
DOCKED: BRANCH  30  31
DOCKED: ATOM     31  C23 UNL     1      18.106  -0.783  -1.382 +0.00 +0.00    +0.216 C  
DOCKED: ATOM     32  O6  UNL     1      17.730   0.334  -1.041 +0.00 -0.00    -0.276 OA 
DOCKED: ATOM     33  N4  UNL     1      17.929  -1.906  -0.610 +0.00 -0.00    -0.304 N  
DOCKED: ATOM     34  H41 UNL     1      18.525  -2.709  -0.806 +0.00 +0.00    +0.149 HD 
DOCKED: BRANCH  33  35
DOCKED: ATOM     35  C24 UNL     1      17.470  -1.804   0.775 +0.00 +0.00    +0.161 C  
DOCKED: BRANCH  35  36
DOCKED: ATOM     36  C25 UNL     1      18.536  -1.026   1.567 +0.00 +0.00    +0.234 C  
DOCKED: ATOM     37  O7  UNL     1      19.508  -1.588   2.074 +0.00 -0.00    -0.274 OA 
DOCKED: ATOM     38  N5  UNL     1      18.291   0.325   1.683 +0.00 -0.00    -0.310 N  
DOCKED: ATOM     39  H43 UNL     1      17.584   0.738   1.087 +0.00 +0.00    +0.149 HD 
DOCKED: BRANCH  38  40
DOCKED: ATOM     40  C26 UNL     1      19.285   1.226   2.222 +0.00 +0.00    +0.139 C  
DOCKED: BRANCH  40  41
DOCKED: ATOM     41  C27 UNL     1      19.296   2.536   1.472 +0.00 -0.00    -0.030 A  
DOCKED: ATOM     42  C28 UNL     1      19.515   3.747   2.147 +0.00 +0.00    +0.005 A  
DOCKED: ATOM     43  C29 UNL     1      19.532   4.959   1.456 +0.00 +0.00    +0.001 A  
DOCKED: ATOM     44  C30 UNL     1      19.320   4.978   0.081 +0.00 +0.00    +0.015 A  
DOCKED: ATOM     45  C31 UNL     1      19.090   3.781  -0.611 +0.00 +0.00    +0.059 A  
DOCKED: ATOM     46  C33 UNL     1      19.081   2.564   0.086 +0.00 +0.00    +0.020 A  
DOCKED: BRANCH  45  47
DOCKED: ATOM     47  C32 UNL     1      18.862   3.849  -2.077 +0.00 +0.00    +0.337 C  
DOCKED: ATOM     48  O8  UNL     1      18.674   4.860  -2.727 +0.00 -0.00    -0.245 OA 
DOCKED: BRANCH  47  49
DOCKED: ATOM     49  O9  UNL     1      18.879   2.639  -2.665 +0.00 -0.00    -0.477 OA 
DOCKED: ATOM     50  H49 UNL     1      18.194   2.134  -2.179 +0.00 +0.00    +0.295 HD 
DOCKED: ENDBRANCH  47  49
DOCKED: ENDBRANCH  45  47
DOCKED: ENDBRANCH  40  41
DOCKED: ENDBRANCH  38  40
DOCKED: ENDBRANCH  35  36
DOCKED: BRANCH  35  51
DOCKED: ATOM     51  C34 UNL     1      17.180  -3.175   1.424 +0.00 +0.00    +0.012 C  
DOCKED: ATOM     52  C35 UNL     1      15.934  -3.103   2.311 +0.00 +0.00    +0.009 C  
DOCKED: ATOM     53  C36 UNL     1      17.024  -4.309   0.406 +0.00 +0.00    +0.009 C  
DOCKED: ENDBRANCH  35  51
DOCKED: ENDBRANCH  33  35
DOCKED: ENDBRANCH  30  31
DOCKED: ENDBRANCH  27  30
DOCKED: ENDBRANCH   1  27
DOCKED: BRANCH   1  54
DOCKED: ATOM     54  C17 UNL     1      15.568  -1.016  -5.099 +0.00 +0.00    +0.028 C  
DOCKED: BRANCH  54  55
DOCKED: ATOM     55  C18 UNL     1      14.402  -0.027  -4.893 +0.00 -0.00    -0.015 C  
DOCKED: ATOM     56  C19 UNL     1      14.889   1.403  -5.143 +0.00 +0.00    +0.007 C  
DOCKED: ATOM     57  C20 UNL     1      13.202  -0.322  -5.788 +0.00 +0.00    +0.007 C  
DOCKED: ENDBRANCH  54  55
DOCKED: ENDBRANCH   1  54
DOCKED: TORSDOF 21
DOCKED: TER
DOCKED: ENDMDL
________________________________________________________________________________


    FINAL DOCKED STATE:
    ________________________


Run:   2 / 20
Time taken for this run:   1.466s

DOCKED: MODEL        2
DOCKED: USER    Run = 2
DOCKED: USER
DOCKED: USER    Estimated Free Energy of Binding    =  +6.26 kcal/mol  [=(1)+(2)+(3)-(4)]
DOCKED: USER
DOCKED: USER    (1) Final Intermolecular Energy     =  +0.00 kcal/mol
DOCKED: USER        vdW + Hbond + desolv Energy     =  +0.00 kcal/mol
DOCKED: USER        Electrostatic Energy            =  +0.00 kcal/mol
DOCKED: USER        Moving Ligand-Fixed Receptor    =  +0.00 kcal/mol
DOCKED: USER        Moving Ligand-Moving Receptor   =  +0.00 kcal/mol
DOCKED: USER    (2) Final Total Internal Energy     = -16.28 kcal/mol
DOCKED: USER    (3) Torsional Free Energy           =  +6.26 kcal/mol
DOCKED: USER    (4) Unbound System's Energy         = -16.28 kcal/mol
DOCKED: USER
DOCKED: USER
DOCKED: REMARK  Name = ligands/ligand_22.pdb
DOCKED: REMARK  28 active torsions:
DOCKED: REMARK  status: ('A' for Active; 'I' for Inactive)
DOCKED: REMARK    1  A    between atoms: C1_1  and  C2_2
DOCKED: REMARK    2  A    between atoms: C2_2  and  C3_3
DOCKED: REMARK    3  A    between atoms: C3_3  and  C4_4
DOCKED: REMARK    4  A    between atoms: C3_3  and  C5_5
DOCKED: REMARK    5  A    between atoms: C5_5  and  N1_6
DOCKED: REMARK    6  A    between atoms: C5_5  and  C12_15
DOCKED: REMARK    7  A    between atoms: C6_7  and  C7_9
DOCKED: REMARK    8  A    between atoms: N2_17  and  C13_18
DOCKED: REMARK    9  A    between atoms: C13_18  and  C14_19
DOCKED: REMARK   10  A    between atoms: C13_18  and  C15_20
DOCKED: REMARK   11  A    between atoms: N3_22  and  C16_23
DOCKED: REMARK   12  A    between atoms: C16_23  and  C17_24
DOCKED: REMARK   13  A    between atoms: C16_23  and  C21_28
DOCKED: REMARK   14  A    between atoms: C17_24  and  C18_25
DOCKED: REMARK   15  A    between atoms: C18_25  and  C19_26
DOCKED: REMARK   16  A    between atoms: C18_25  and  C20_27
DOCKED: REMARK   17  A    between atoms: C21_28  and  O5_29
DOCKED: REMARK   18  A    between atoms: C21_28  and  C22_30
DOCKED: REMARK   19  A    between atoms: C22_30  and  C23_31
DOCKED: REMARK   20  A    between atoms: N4_33  and  C24_34
DOCKED: REMARK   21  A    between atoms: C24_34  and  C25_35
DOCKED: REMARK   22  A    between atoms: C24_34  and  C34_48
DOCKED: REMARK   23  A    between atoms: N5_37  and  C26_38
DOCKED: REMARK   24  A    between atoms: C26_38  and  C27_39
DOCKED: REMARK   25  A    between atoms: C31_43  and  C32_44
DOCKED: REMARK   26  A    between atoms: C32_44  and  O9_46
DOCKED: REMARK   27  A    between atoms: C34_48  and  C35_49
DOCKED: REMARK   28  A    between atoms: C34_48  and  C36_50
DOCKED: REMARK                            x       y       z     vdW  Elec       q    Type
DOCKED: REMARK                         _______ _______ _______ _____ _____    ______ ____
DOCKED: USER                              x       y       z     vdW  Elec       q    Type
DOCKED: USER                           _______ _______ _______ _____ _____    ______ ____
DOCKED: ROOT
DOCKED: ATOM      1  C16 UNL     1      11.809  -1.380   2.441 +0.00 +0.00    +0.102 C  
DOCKED: ENDROOT
DOCKED: BRANCH   1   4
DOCKED: ATOM      2  C15 UNL     1      12.515  -2.779   0.482 +0.00 +0.00    +0.233 C  
DOCKED: ATOM      3  O4  UNL     1      11.555  -2.440  -0.211 +0.00 -0.00    -0.274 OA 
DOCKED: ATOM      4  N3  UNL     1      12.677  -2.369   1.787 +0.00 -0.00    -0.308 N  
DOCKED: ATOM      5  H26 UNL     1      13.595  -2.465   2.207 +0.00 +0.00    +0.149 HD 
DOCKED: BRANCH   2   6
DOCKED: ATOM      6  C13 UNL     1      13.677  -3.640  -0.054 +0.00 +0.00    +0.156 C  
DOCKED: ATOM      7  C14 UNL     1      13.763  -4.941   0.738 +0.00 +0.00    +0.038 C  
DOCKED: BRANCH   6  10
DOCKED: ATOM      8  C12 UNL     1      15.558  -2.749   1.268 +0.00 +0.00    +0.234 C  
DOCKED: ATOM      9  O3  UNL     1      15.069  -3.145   2.329 +0.00 -0.00    -0.274 OA 
DOCKED: ATOM     10  N2  UNL     1      14.937  -2.917   0.051 +0.00 -0.00    -0.303 N  
DOCKED: ATOM     11  H21 UNL     1      15.515  -2.888  -0.779 +0.00 +0.00    +0.149 HD 
DOCKED: BRANCH   8  12
DOCKED: ATOM     12  C5  UNL     1      16.916  -2.013   1.214 +0.00 +0.00    +0.162 C  
DOCKED: BRANCH  12  13
DOCKED: ATOM     13  N1  UNL     1      16.989  -1.191   2.425 +0.00 -0.00    -0.302 N  
DOCKED: ATOM     14  C6  UNL     1      17.882  -0.132   2.495 +0.00 +0.00    +0.243 C  
DOCKED: ATOM     15  O1  UNL     1      18.772   0.040   1.663 +0.00 -0.00    -0.273 OA 
DOCKED: ATOM     16  H11 UNL     1      16.102  -1.053   2.896 +0.00 +0.00    +0.150 HD 
DOCKED: BRANCH  14  17
DOCKED: ATOM     17  C7  UNL     1      17.644   0.804   3.702 +0.00 +0.00    +0.204 C  
DOCKED: ATOM     18  C8  UNL     1      18.659   0.488   4.809 +0.00 +0.00    +0.041 C  
DOCKED: ATOM     19  C9  UNL     1      18.224  -0.719   5.631 +0.00 +0.00    +0.005 C  
DOCKED: ATOM     20  C10 UNL     1      16.763  -0.621   6.065 +0.00 +0.00    +0.028 C  
DOCKED: ATOM     21  C11 UNL     1      16.081   0.626   5.523 +0.00 +0.00    +0.161 C  
DOCKED: ATOM     22  O2  UNL     1      16.279   0.746   4.121 +0.00 -0.00    -0.367 OA 
DOCKED: ENDBRANCH  14  17
DOCKED: ENDBRANCH  12  13
DOCKED: BRANCH  12  23
DOCKED: ATOM     23  C3  UNL     1      18.146  -2.948   1.118 +0.00 +0.00    +0.015 C  
DOCKED: ATOM     24  C4  UNL     1      17.857  -4.363   1.633 +0.00 +0.00    +0.010 C  
DOCKED: BRANCH  23  26
DOCKED: ATOM     25  C1  UNL     1      18.667  -1.621  -1.005 +0.00 +0.00    +0.004 C  
DOCKED: ATOM     26  C2  UNL     1      18.726  -2.977  -0.310 +0.00 +0.00    +0.002 C  
DOCKED: ENDBRANCH  23  26
DOCKED: ENDBRANCH  12  23
DOCKED: ENDBRANCH   8  12
DOCKED: ENDBRANCH   6  10
DOCKED: ENDBRANCH   2   6
DOCKED: ENDBRANCH   1   4
DOCKED: BRANCH   1  27
DOCKED: ATOM     27  C21 UNL     1      12.640  -0.109   2.788 +0.00 +0.00    +0.143 C  
DOCKED: BRANCH  27  28
DOCKED: ATOM     28  O5  UNL     1      13.913  -0.526   3.324 +0.00 -0.00    -0.389 OA 
DOCKED: ATOM     29  H38 UNL     1      14.423   0.284   3.504 +0.00 +0.00    +0.210 HD 
DOCKED: ENDBRANCH  27  28
DOCKED: BRANCH  27  30
DOCKED: ATOM     30  C22 UNL     1      12.894   0.803   1.587 +0.00 +0.00    +0.129 C  
DOCKED: BRANCH  30  31
DOCKED: ATOM     31  C23 UNL     1      14.204   0.472   0.909 +0.00 +0.00    +0.216 C  
DOCKED: ATOM     32  O6  UNL     1      15.265   0.439   1.524 +0.00 -0.00    -0.276 OA 
DOCKED: ATOM     33  N4  UNL     1      14.089   0.132  -0.417 +0.00 -0.00    -0.304 N  
DOCKED: ATOM     34  H41 UNL     1      13.272   0.475  -0.920 +0.00 +0.00    +0.149 HD 
DOCKED: BRANCH  33  35
DOCKED: ATOM     35  C24 UNL     1      15.275  -0.087  -1.244 +0.00 +0.00    +0.161 C  
DOCKED: BRANCH  35  36
DOCKED: ATOM     36  C25 UNL     1      16.072   1.230  -1.279 +0.00 +0.00    +0.234 C  
DOCKED: ATOM     37  O7  UNL     1      15.822   2.119  -2.093 +0.00 -0.00    -0.274 OA 
DOCKED: ATOM     38  N5  UNL     1      17.093   1.307  -0.356 +0.00 -0.00    -0.310 N  
DOCKED: ATOM     39  H43 UNL     1      17.114   0.626   0.394 +0.00 +0.00    +0.149 HD 
DOCKED: BRANCH  38  40
DOCKED: ATOM     40  C26 UNL     1      17.806   2.543  -0.125 +0.00 +0.00    +0.139 C  
DOCKED: BRANCH  40  41
DOCKED: ATOM     41  C27 UNL     1      17.433   3.146   1.207 +0.00 -0.00    -0.030 A  
DOCKED: ATOM     42  C28 UNL     1      18.383   3.844   1.970 +0.00 +0.00    +0.005 A  
DOCKED: ATOM     43  C29 UNL     1      18.040   4.407   3.200 +0.00 +0.00    +0.001 A  
DOCKED: ATOM     44  C30 UNL     1      16.744   4.271   3.689 +0.00 +0.00    +0.015 A  
DOCKED: ATOM     45  C31 UNL     1      15.784   3.569   2.949 +0.00 +0.00    +0.059 A  
DOCKED: ATOM     46  C33 UNL     1      16.131   3.011   1.710 +0.00 +0.00    +0.020 A  
DOCKED: BRANCH  45  47
DOCKED: ATOM     47  C32 UNL     1      14.416   3.442   3.513 +0.00 +0.00    +0.337 C  
DOCKED: ATOM     48  O8  UNL     1      13.612   4.346   3.652 +0.00 -0.00    -0.245 OA 
DOCKED: BRANCH  47  49
DOCKED: ATOM     49  O9  UNL     1      14.115   2.183   3.878 +0.00 -0.00    -0.477 OA 
DOCKED: ATOM     50  H49 UNL     1      14.564   1.632   3.203 +0.00 +0.00    +0.295 HD 
DOCKED: ENDBRANCH  47  49
DOCKED: ENDBRANCH  45  47
DOCKED: ENDBRANCH  40  41
DOCKED: ENDBRANCH  38  40
DOCKED: ENDBRANCH  35  36
DOCKED: BRANCH  35  51
DOCKED: ATOM     51  C34 UNL     1      14.943  -0.578  -2.669 +0.00 +0.00    +0.012 C  
DOCKED: ATOM     52  C35 UNL     1      15.957  -1.627  -3.134 +0.00 +0.00    +0.009 C  
DOCKED: ATOM     53  C36 UNL     1      13.523  -1.138  -2.805 +0.00 +0.00    +0.009 C  
DOCKED: ENDBRANCH  35  51
DOCKED: ENDBRANCH  33  35
DOCKED: ENDBRANCH  30  31
DOCKED: ENDBRANCH  27  30
DOCKED: ENDBRANCH   1  27
DOCKED: BRANCH   1  54
DOCKED: ATOM     54  C17 UNL     1      11.222  -2.036   3.714 +0.00 +0.00    +0.028 C  
DOCKED: BRANCH  54  55
DOCKED: ATOM     55  C18 UNL     1      11.969  -3.303   4.179 +0.00 -0.00    -0.015 C  
DOCKED: ATOM     56  C19 UNL     1      13.180  -2.905   5.028 +0.00 +0.00    +0.007 C  
DOCKED: ATOM     57  C20 UNL     1      11.084  -4.262   4.971 +0.00 +0.00    +0.007 C  
DOCKED: ENDBRANCH  54  55
DOCKED: ENDBRANCH   1  54
DOCKED: TORSDOF 21
DOCKED: TER
DOCKED: ENDMDL
________________________________________________________________________________


    FINAL DOCKED STATE:
    ________________________


Run:   3 / 20
Time taken for this run:   1.466s

DOCKED: MODEL        3
DOCKED: USER    Run = 3
DOCKED: USER
DOCKED: USER    Estimated Free Energy of Binding    =  +6.26 kcal/mol  [=(1)+(2)+(3)-(4)]
DOCKED: USER
DOCKED: USER    (1) Final Intermolecular Energy     =  +0.00 kcal/mol
DOCKED: USER        vdW + Hbond + desolv Energy     =  +0.00 kcal/mol
DOCKED: USER        Electrostatic Energy            =  +0.00 kcal/mol
DOCKED: USER        Moving Ligand-Fixed Receptor    =  +0.00 kcal/mol
DOCKED: USER        Moving Ligand-Moving Receptor   =  +0.00 kcal/mol
DOCKED: USER    (2) Final Total Internal Energy     = -15.75 kcal/mol
DOCKED: USER    (3) Torsional Free Energy           =  +6.26 kcal/mol
DOCKED: USER    (4) Unbound System's Energy         = -15.75 kcal/mol
DOCKED: USER
DOCKED: USER
DOCKED: REMARK  Name = ligands/ligand_22.pdb
DOCKED: REMARK  28 active torsions:
DOCKED: REMARK  status: ('A' for Active; 'I' for Inactive)
DOCKED: REMARK    1  A    between atoms: C1_1  and  C2_2
DOCKED: REMARK    2  A    between atoms: C2_2  and  C3_3
DOCKED: REMARK    3  A    between atoms: C3_3  and  C4_4
DOCKED: REMARK    4  A    between atoms: C3_3  and  C5_5
DOCKED: REMARK    5  A    between atoms: C5_5  and  N1_6
DOCKED: REMARK    6  A    between atoms: C5_5  and  C12_15
DOCKED: REMARK    7  A    between atoms: C6_7  and  C7_9
DOCKED: REMARK    8  A    between atoms: N2_17  and  C13_18
DOCKED: REMARK    9  A    between atoms: C13_18  and  C14_19
DOCKED: REMARK   10  A    between atoms: C13_18  and  C15_20
DOCKED: REMARK   11  A    between atoms: N3_22  and  C16_23
DOCKED: REMARK   12  A    between atoms: C16_23  and  C17_24
DOCKED: REMARK   13  A    between atoms: C16_23  and  C21_28
DOCKED: REMARK   14  A    between atoms: C17_24  and  C18_25
DOCKED: REMARK   15  A    between atoms: C18_25  and  C19_26
DOCKED: REMARK   16  A    between atoms: C18_25  and  C20_27
DOCKED: REMARK   17  A    between atoms: C21_28  and  O5_29
DOCKED: REMARK   18  A    between atoms: C21_28  and  C22_30
DOCKED: REMARK   19  A    between atoms: C22_30  and  C23_31
DOCKED: REMARK   20  A    between atoms: N4_33  and  C24_34
DOCKED: REMARK   21  A    between atoms: C24_34  and  C25_35
DOCKED: REMARK   22  A    between atoms: C24_34  and  C34_48
DOCKED: REMARK   23  A    between atoms: N5_37  and  C26_38
DOCKED: REMARK   24  A    between atoms: C26_38  and  C27_39
DOCKED: REMARK   25  A    between atoms: C31_43  and  C32_44
DOCKED: REMARK   26  A    between atoms: C32_44  and  O9_46
DOCKED: REMARK   27  A    between atoms: C34_48  and  C35_49
DOCKED: REMARK   28  A    between atoms: C34_48  and  C36_50
DOCKED: REMARK                            x       y       z     vdW  Elec       q    Type
DOCKED: REMARK                         _______ _______ _______ _____ _____    ______ ____
DOCKED: USER                              x       y       z     vdW  Elec       q    Type
DOCKED: USER                           _______ _______ _______ _____ _____    ______ ____
DOCKED: ROOT
DOCKED: ATOM      1  C16 UNL     1       7.562  -8.425   2.258 +0.00 +0.00    +0.102 C  
DOCKED: ENDROOT
DOCKED: BRANCH   1   4
DOCKED: ATOM      2  C15 UNL     1       8.181  -6.232   1.209 +0.00 +0.00    +0.233 C  
DOCKED: ATOM      3  O4  UNL     1       7.395  -6.367   0.270 +0.00 -0.00    -0.274 OA 
DOCKED: ATOM      4  N3  UNL     1       8.370  -7.200   2.170 +0.00 -0.00    -0.308 N  
DOCKED: ATOM      5  H26 UNL     1       8.820  -6.931   3.037 +0.00 +0.00    +0.149 HD 
DOCKED: BRANCH   2   6
DOCKED: ATOM      6  C13 UNL     1       8.984  -4.939   1.455 +0.00 +0.00    +0.156 C  
DOCKED: ATOM      7  C14 UNL     1      10.275  -4.972   0.642 +0.00 +0.00    +0.038 C  
DOCKED: BRANCH   6  10
DOCKED: ATOM      8  C12 UNL     1      10.285  -5.553   3.456 +0.00 +0.00    +0.234 C  
DOCKED: ATOM      9  O3  UNL     1      10.915  -6.420   2.847 +0.00 -0.00    -0.274 OA 
DOCKED: ATOM     10  N2  UNL     1       9.298  -4.795   2.870 +0.00 -0.00    -0.303 N  
DOCKED: ATOM     11  H21 UNL     1       9.070  -3.907   3.298 +0.00 +0.00    +0.149 HD 
DOCKED: BRANCH   8  12
DOCKED: ATOM     12  C5  UNL     1      10.544  -5.248   4.950 +0.00 +0.00    +0.162 C  
DOCKED: BRANCH  12  13
DOCKED: ATOM     13  N1  UNL     1       9.232  -5.225   5.601 +0.00 -0.00    -0.302 N  
DOCKED: ATOM     14  C6  UNL     1       8.477  -4.062   5.606 +0.00 +0.00    +0.243 C  
DOCKED: ATOM     15  O1  UNL     1       8.935  -2.973   5.263 +0.00 -0.00    -0.273 OA 
DOCKED: ATOM     16  H11 UNL     1       8.709  -6.091   5.530 +0.00 +0.00    +0.150 HD 
DOCKED: BRANCH  14  17
DOCKED: ATOM     17  C7  UNL     1       7.017  -4.270   6.070 +0.00 +0.00    +0.204 C  
DOCKED: ATOM     18  C8  UNL     1       6.875  -3.843   7.538 +0.00 +0.00    +0.041 C  
DOCKED: ATOM     19  C9  UNL     1       7.355  -4.938   8.482 +0.00 +0.00    +0.005 C  
DOCKED: ATOM     20  C10 UNL     1       6.773  -6.303   8.118 +0.00 +0.00    +0.028 C  
DOCKED: ATOM     21  C11 UNL     1       5.906  -6.248   6.870 +0.00 +0.00    +0.161 C  
DOCKED: ATOM     22  O2  UNL     1       6.590  -5.606   5.803 +0.00 -0.00    -0.367 OA 
DOCKED: ENDBRANCH  14  17
DOCKED: ENDBRANCH  12  13
DOCKED: BRANCH  12  23
DOCKED: ATOM     23  C3  UNL     1      11.481  -6.260   5.655 +0.00 +0.00    +0.015 C  
DOCKED: ATOM     24  C4  UNL     1      11.783  -5.875   7.108 +0.00 +0.00    +0.010 C  
DOCKED: BRANCH  23  26
DOCKED: ATOM     25  C1  UNL     1       9.932  -8.034   6.649 +0.00 +0.00    +0.004 C  
DOCKED: ATOM     26  C2  UNL     1      10.940  -7.700   5.555 +0.00 +0.00    +0.002 C  
DOCKED: ENDBRANCH  23  26
DOCKED: ENDBRANCH  12  23
DOCKED: ENDBRANCH   8  12
DOCKED: ENDBRANCH   6  10
DOCKED: ENDBRANCH   2   6
DOCKED: ENDBRANCH   1   4
DOCKED: BRANCH   1  27
DOCKED: ATOM     27  C21 UNL     1       7.206  -8.705   3.749 +0.00 +0.00    +0.143 C  
DOCKED: BRANCH  27  28
DOCKED: ATOM     28  O5  UNL     1       7.582  -7.554   4.533 +0.00 -0.00    -0.389 OA 
DOCKED: ATOM     29  H38 UNL     1       7.223  -6.772   4.078 +0.00 +0.00    +0.210 HD 
DOCKED: ENDBRANCH  27  28
DOCKED: BRANCH  27  30
DOCKED: ATOM     30  C22 UNL     1       5.721  -8.987   3.981 +0.00 +0.00    +0.129 C  
DOCKED: BRANCH  30  31
DOCKED: ATOM     31  C23 UNL     1       4.851  -7.929   3.342 +0.00 +0.00    +0.216 C  
DOCKED: ATOM     32  O6  UNL     1       4.041  -8.197   2.460 +0.00 -0.00    -0.276 OA 
DOCKED: ATOM     33  N4  UNL     1       4.984  -6.675   3.888 +0.00 -0.00    -0.304 N  
DOCKED: ATOM     34  H41 UNL     1       5.857  -6.463   4.369 +0.00 +0.00    +0.149 HD 
DOCKED: BRANCH  33  35
DOCKED: ATOM     35  C24 UNL     1       4.311  -5.520   3.296 +0.00 +0.00    +0.161 C  
DOCKED: BRANCH  35  36
DOCKED: ATOM     36  C25 UNL     1       5.396  -4.554   2.786 +0.00 +0.00    +0.234 C  
DOCKED: ATOM     37  O7  UNL     1       6.570  -4.648   3.146 +0.00 -0.00    -0.274 OA 
DOCKED: ATOM     38  N5  UNL     1       4.937  -3.574   1.933 +0.00 -0.00    -0.310 N  
DOCKED: ATOM     39  H43 UNL     1       4.009  -3.677   1.540 +0.00 +0.00    +0.149 HD 
DOCKED: BRANCH  38  40
DOCKED: ATOM     40  C26 UNL     1       5.850  -2.714   1.214 +0.00 +0.00    +0.139 C  
DOCKED: BRANCH  40  41
DOCKED: ATOM     41  C27 UNL     1       6.657  -1.863   2.164 +0.00 -0.00    -0.030 A  
DOCKED: ATOM     42  C28 UNL     1       6.025  -0.952   3.025 +0.00 +0.00    +0.005 A  
DOCKED: ATOM     43  C29 UNL     1       6.768  -0.167   3.908 +0.00 +0.00    +0.001 A  
DOCKED: ATOM     44  C30 UNL     1       8.155  -0.276   3.936 +0.00 +0.00    +0.015 A  
DOCKED: ATOM     45  C31 UNL     1       8.806  -1.172   3.077 +0.00 +0.00    +0.059 A  
DOCKED: ATOM     46  C33 UNL     1       8.056  -1.964   2.196 +0.00 +0.00    +0.020 A  
DOCKED: BRANCH  45  47
DOCKED: ATOM     47  C32 UNL     1      10.289  -1.249   3.136 +0.00 +0.00    +0.337 C  
DOCKED: ATOM     48  O8  UNL     1      11.062  -0.328   2.955 +0.00 -0.00    -0.245 OA 
DOCKED: BRANCH  47  49
DOCKED: ATOM     49  O9  UNL     1      10.737  -2.485   3.422 +0.00 -0.00    -0.477 OA 
DOCKED: ATOM     50  H49 UNL     1      10.331  -2.684   4.292 +0.00 +0.00    +0.295 HD 
DOCKED: ENDBRANCH  47  49
DOCKED: ENDBRANCH  45  47
DOCKED: ENDBRANCH  40  41
DOCKED: ENDBRANCH  38  40
DOCKED: ENDBRANCH  35  36
DOCKED: BRANCH  35  51
DOCKED: ATOM     51  C34 UNL     1       3.345  -4.812   4.270 +0.00 +0.00    +0.012 C  
DOCKED: ATOM     52  C35 UNL     1       2.841  -5.784   5.340 +0.00 +0.00    +0.009 C  
DOCKED: ATOM     53  C36 UNL     1       3.954  -3.577   4.941 +0.00 +0.00    +0.009 C  
DOCKED: ENDBRANCH  35  51
DOCKED: ENDBRANCH  33  35
DOCKED: ENDBRANCH  30  31
DOCKED: ENDBRANCH  27  30
DOCKED: ENDBRANCH   1  27
DOCKED: BRANCH   1  54
DOCKED: ATOM     54  C17 UNL     1       8.389  -9.582   1.649 +0.00 +0.00    +0.028 C  
DOCKED: BRANCH  54  55
DOCKED: ATOM     55  C18 UNL     1       9.906  -9.310   1.576 +0.00 -0.00    -0.015 C  
DOCKED: ATOM     56  C19 UNL     1      10.577  -9.786   2.868 +0.00 +0.00    +0.007 C  
DOCKED: ATOM     57  C20 UNL     1      10.577  -9.976   0.378 +0.00 +0.00    +0.007 C  
DOCKED: ENDBRANCH  54  55
DOCKED: ENDBRANCH   1  54
DOCKED: TORSDOF 21
DOCKED: TER
DOCKED: ENDMDL
________________________________________________________________________________


    FINAL DOCKED STATE:
    ________________________


Run:   4 / 20
Time taken for this run:   1.466s

DOCKED: MODEL        4
DOCKED: USER    Run = 4
DOCKED: USER
DOCKED: USER    Estimated Free Energy of Binding    =  +6.26 kcal/mol  [=(1)+(2)+(3)-(4)]
DOCKED: USER
DOCKED: USER    (1) Final Intermolecular Energy     =  +0.00 kcal/mol
DOCKED: USER        vdW + Hbond + desolv Energy     =  +0.00 kcal/mol
DOCKED: USER        Electrostatic Energy            =  +0.00 kcal/mol
DOCKED: USER        Moving Ligand-Fixed Receptor    =  +0.00 kcal/mol
DOCKED: USER        Moving Ligand-Moving Receptor   =  +0.00 kcal/mol
DOCKED: USER    (2) Final Total Internal Energy     = -16.22 kcal/mol
DOCKED: USER    (3) Torsional Free Energy           =  +6.26 kcal/mol
DOCKED: USER    (4) Unbound System's Energy         = -16.22 kcal/mol
DOCKED: USER
DOCKED: USER
DOCKED: REMARK  Name = ligands/ligand_22.pdb
DOCKED: REMARK  28 active torsions:
DOCKED: REMARK  status: ('A' for Active; 'I' for Inactive)
DOCKED: REMARK    1  A    between atoms: C1_1  and  C2_2
DOCKED: REMARK    2  A    between atoms: C2_2  and  C3_3
DOCKED: REMARK    3  A    between atoms: C3_3  and  C4_4
DOCKED: REMARK    4  A    between atoms: C3_3  and  C5_5
DOCKED: REMARK    5  A    between atoms: C5_5  and  N1_6
DOCKED: REMARK    6  A    between atoms: C5_5  and  C12_15
DOCKED: REMARK    7  A    between atoms: C6_7  and  C7_9
DOCKED: REMARK    8  A    between atoms: N2_17  and  C13_18
DOCKED: REMARK    9  A    between atoms: C13_18  and  C14_19
DOCKED: REMARK   10  A    between atoms: C13_18  and  C15_20
DOCKED: REMARK   11  A    between atoms: N3_22  and  C16_23
DOCKED: REMARK   12  A    between atoms: C16_23  and  C17_24
DOCKED: REMARK   13  A    between atoms: C16_23  and  C21_28
DOCKED: REMARK   14  A    between atoms: C17_24  and  C18_25
DOCKED: REMARK   15  A    between atoms: C18_25  and  C19_26
DOCKED: REMARK   16  A    between atoms: C18_25  and  C20_27
DOCKED: REMARK   17  A    between atoms: C21_28  and  O5_29
DOCKED: REMARK   18  A    between atoms: C21_28  and  C22_30
DOCKED: REMARK   19  A    between atoms: C22_30  and  C23_31
DOCKED: REMARK   20  A    between atoms: N4_33  and  C24_34
DOCKED: REMARK   21  A    between atoms: C24_34  and  C25_35
DOCKED: REMARK   22  A    between atoms: C24_34  and  C34_48
DOCKED: REMARK   23  A    between atoms: N5_37  and  C26_38
DOCKED: REMARK   24  A    between atoms: C26_38  and  C27_39
DOCKED: REMARK   25  A    between atoms: C31_43  and  C32_44
DOCKED: REMARK   26  A    between atoms: C32_44  and  O9_46
DOCKED: REMARK   27  A    between atoms: C34_48  and  C35_49
DOCKED: REMARK   28  A    between atoms: C34_48  and  C36_50
DOCKED: REMARK                            x       y       z     vdW  Elec       q    Type
DOCKED: REMARK                         _______ _______ _______ _____ _____    ______ ____
DOCKED: USER                              x       y       z     vdW  Elec       q    Type
DOCKED: USER                           _______ _______ _______ _____ _____    ______ ____
DOCKED: ROOT
DOCKED: ATOM      1  C16 UNL     1      10.760  -5.897  -2.418 +0.00 +0.00    +0.102 C  
DOCKED: ENDROOT
DOCKED: BRANCH   1   4
DOCKED: ATOM      2  C15 UNL     1      11.954  -6.110  -0.223 +0.00 +0.00    +0.233 C  
DOCKED: ATOM      3  O4  UNL     1      12.179  -7.312  -0.368 +0.00 -0.00    -0.274 OA 
DOCKED: ATOM      4  N3  UNL     1      11.224  -5.372  -1.127 +0.00 -0.00    -0.308 N  
DOCKED: ATOM      5  H26 UNL     1      11.295  -4.361  -1.086 +0.00 +0.00    +0.149 HD 
DOCKED: BRANCH   2   6
DOCKED: ATOM      6  C13 UNL     1      12.524  -5.283   0.948 +0.00 +0.00    +0.156 C  
DOCKED: ATOM      7  C14 UNL     1      11.383  -4.774   1.823 +0.00 +0.00    +0.038 C  
DOCKED: BRANCH   6  10
DOCKED: ATOM      8  C12 UNL     1      12.676  -3.056  -0.097 +0.00 +0.00    +0.234 C  
DOCKED: ATOM      9  O3  UNL     1      11.453  -2.979  -0.238 +0.00 -0.00    -0.274 OA 
DOCKED: ATOM     10  N2  UNL     1      13.298  -4.156   0.446 +0.00 -0.00    -0.303 N  
DOCKED: ATOM     11  H21 UNL     1      14.221  -4.027   0.840 +0.00 +0.00    +0.149 HD 
DOCKED: BRANCH   8  12
DOCKED: ATOM     12  C5  UNL     1      13.624  -1.915  -0.533 +0.00 +0.00    +0.162 C  
DOCKED: BRANCH  12  13
DOCKED: ATOM     13  N1  UNL     1      13.046  -1.338  -1.749 +0.00 -0.00    -0.302 N  
DOCKED: ATOM     14  C6  UNL     1      13.823  -0.548  -2.582 +0.00 +0.00    +0.243 C  
DOCKED: ATOM     15  O1  UNL     1      14.934  -0.131  -2.254 +0.00 -0.00    -0.273 OA 
DOCKED: ATOM     16  H11 UNL     1      12.359  -1.924  -2.210 +0.00 +0.00    +0.150 HD 
DOCKED: BRANCH  14  17
DOCKED: ATOM     17  C7  UNL     1      13.168  -0.255  -3.952 +0.00 +0.00    +0.204 C  
DOCKED: ATOM     18  C8  UNL     1      12.556   1.153  -3.941 +0.00 +0.00    +0.041 C  
DOCKED: ATOM     19  C9  UNL     1      11.192   1.159  -3.261 +0.00 +0.00    +0.005 C  
DOCKED: ATOM     20  C10 UNL     1      10.292   0.036  -3.774 +0.00 +0.00    +0.028 C  
DOCKED: ATOM     21  C11 UNL     1      10.994  -0.849  -4.793 +0.00 +0.00    +0.161 C  
DOCKED: ATOM     22  O2  UNL     1      12.250  -1.292  -4.302 +0.00 -0.00    -0.367 OA 
DOCKED: ENDBRANCH  14  17
DOCKED: ENDBRANCH  12  13
DOCKED: BRANCH  12  23
DOCKED: ATOM     23  C3  UNL     1      13.839  -0.818   0.539 +0.00 +0.00    +0.015 C  
DOCKED: ATOM     24  C4  UNL     1      12.713  -0.778   1.579 +0.00 +0.00    +0.010 C  
DOCKED: BRANCH  23  26
DOCKED: ATOM     25  C1  UNL     1      16.321  -1.352   0.237 +0.00 +0.00    +0.004 C  
DOCKED: ATOM     26  C2  UNL     1      15.221  -0.945   1.211 +0.00 +0.00    +0.002 C  
DOCKED: ENDBRANCH  23  26
DOCKED: ENDBRANCH  12  23
DOCKED: ENDBRANCH   8  12
DOCKED: ENDBRANCH   6  10
DOCKED: ENDBRANCH   2   6
DOCKED: ENDBRANCH   1   4
DOCKED: BRANCH   1  27
DOCKED: ATOM     27  C21 UNL     1      11.406  -5.077  -3.574 +0.00 +0.00    +0.143 C  
DOCKED: BRANCH  27  28
DOCKED: ATOM     28  O5  UNL     1      11.334  -3.676  -3.238 +0.00 -0.00    -0.389 OA 
DOCKED: ATOM     29  H38 UNL     1      12.051  -3.231  -3.725 +0.00 +0.00    +0.210 HD 
DOCKED: ENDBRANCH  27  28
DOCKED: BRANCH  27  30
DOCKED: ATOM     30  C22 UNL     1      12.869  -5.438  -3.838 +0.00 +0.00    +0.129 C  
DOCKED: BRANCH  30  31
DOCKED: ATOM     31  C23 UNL     1      13.807  -4.545  -3.059 +0.00 +0.00    +0.216 C  
DOCKED: ATOM     32  O6  UNL     1      13.748  -3.321  -3.128 +0.00 -0.00    -0.276 OA 
DOCKED: ATOM     33  N4  UNL     1      14.660  -5.214  -2.215 +0.00 -0.00    -0.304 N  
DOCKED: ATOM     34  H41 UNL     1      14.870  -6.187  -2.434 +0.00 +0.00    +0.149 HD 
DOCKED: BRANCH  33  35
DOCKED: ATOM     35  C24 UNL     1      15.715  -4.504  -1.493 +0.00 +0.00    +0.161 C  
DOCKED: BRANCH  35  36
DOCKED: ATOM     36  C25 UNL     1      16.651  -3.866  -2.536 +0.00 +0.00    +0.234 C  
DOCKED: ATOM     37  O7  UNL     1      17.584  -4.492  -3.040 +0.00 -0.00    -0.274 OA 
DOCKED: ATOM     38  N5  UNL     1      16.376  -2.547  -2.823 +0.00 -0.00    -0.310 N  
DOCKED: ATOM     39  H43 UNL     1      15.489  -2.164  -2.516 +0.00 +0.00    +0.149 HD 
DOCKED: BRANCH  38  40
DOCKED: ATOM     40  C26 UNL     1      17.029  -1.862  -3.916 +0.00 +0.00    +0.139 C  
DOCKED: BRANCH  40  41
DOCKED: ATOM     41  C27 UNL     1      16.070  -1.613  -5.053 +0.00 -0.00    -0.030 A  
DOCKED: ATOM     42  C28 UNL     1      16.153  -0.438  -5.817 +0.00 +0.00    +0.005 A  
DOCKED: ATOM     43  C29 UNL     1      15.270  -0.206  -6.873 +0.00 +0.00    +0.001 A  
DOCKED: ATOM     44  C30 UNL     1      14.286  -1.142  -7.174 +0.00 +0.00    +0.015 A  
DOCKED: ATOM     45  C31 UNL     1      14.179  -2.317  -6.418 +0.00 +0.00    +0.059 A  
DOCKED: ATOM     46  C33 UNL     1      15.072  -2.550  -5.362 +0.00 +0.00    +0.020 A  
DOCKED: BRANCH  45  47
DOCKED: ATOM     47  C32 UNL     1      13.108  -3.285  -6.769 +0.00 +0.00    +0.337 C  
DOCKED: ATOM     48  O8  UNL     1      13.049  -3.947  -7.788 +0.00 -0.00    -0.245 OA 
DOCKED: BRANCH  47  49
DOCKED: ATOM     49  O9  UNL     1      12.157  -3.380  -5.823 +0.00 -0.00    -0.477 OA 
DOCKED: ATOM     50  H49 UNL     1      12.630  -3.153  -4.995 +0.00 +0.00    +0.295 HD 
DOCKED: ENDBRANCH  47  49
DOCKED: ENDBRANCH  45  47
DOCKED: ENDBRANCH  40  41
DOCKED: ENDBRANCH  38  40
DOCKED: ENDBRANCH  35  36
DOCKED: BRANCH  35  51
DOCKED: ATOM     51  C34 UNL     1      16.498  -5.405  -0.515 +0.00 +0.00    +0.012 C  
DOCKED: ATOM     52  C35 UNL     1      16.790  -4.665   0.793 +0.00 +0.00    +0.009 C  
DOCKED: ATOM     53  C36 UNL     1      15.792  -6.731  -0.211 +0.00 +0.00    +0.009 C  
DOCKED: ENDBRANCH  35  51
DOCKED: ENDBRANCH  33  35
DOCKED: ENDBRANCH  30  31
DOCKED: ENDBRANCH  27  30
DOCKED: ENDBRANCH   1  27
DOCKED: BRANCH   1  54
DOCKED: ATOM     54  C17 UNL     1       9.216  -5.791  -2.445 +0.00 +0.00    +0.028 C  
DOCKED: BRANCH  54  55
DOCKED: ATOM     55  C18 UNL     1       8.637  -4.705  -1.515 +0.00 -0.00    -0.015 C  
DOCKED: ATOM     56  C19 UNL     1       8.427  -3.410  -2.305 +0.00 +0.00    +0.007 C  
DOCKED: ATOM     57  C20 UNL     1       7.324  -5.119  -0.856 +0.00 +0.00    +0.007 C  
DOCKED: ENDBRANCH  54  55
DOCKED: ENDBRANCH   1  54
DOCKED: TORSDOF 21
DOCKED: TER
DOCKED: ENDMDL
________________________________________________________________________________


    FINAL DOCKED STATE:
    ________________________


Run:   5 / 20
Time taken for this run:   1.466s

DOCKED: MODEL        5
DOCKED: USER    Run = 5
DOCKED: USER
DOCKED: USER    Estimated Free Energy of Binding    =  +6.26 kcal/mol  [=(1)+(2)+(3)-(4)]
DOCKED: USER
DOCKED: USER    (1) Final Intermolecular Energy     =  +0.00 kcal/mol
DOCKED: USER        vdW + Hbond + desolv Energy     =  +0.00 kcal/mol
DOCKED: USER        Electrostatic Energy            =  +0.00 kcal/mol
DOCKED: USER        Moving Ligand-Fixed Receptor    =  +0.00 kcal/mol
DOCKED: USER        Moving Ligand-Moving Receptor   =  +0.00 kcal/mol
DOCKED: USER    (2) Final Total Internal Energy     = -15.78 kcal/mol
DOCKED: USER    (3) Torsional Free Energy           =  +6.26 kcal/mol
DOCKED: USER    (4) Unbound System's Energy         = -15.78 kcal/mol
DOCKED: USER
DOCKED: USER
DOCKED: REMARK  Name = ligands/ligand_22.pdb
DOCKED: REMARK  28 active torsions:
DOCKED: REMARK  status: ('A' for Active; 'I' for Inactive)
DOCKED: REMARK    1  A    between atoms: C1_1  and  C2_2
DOCKED: REMARK    2  A    between atoms: C2_2  and  C3_3
DOCKED: REMARK    3  A    between atoms: C3_3  and  C4_4
DOCKED: REMARK    4  A    between atoms: C3_3  and  C5_5
DOCKED: REMARK    5  A    between atoms: C5_5  and  N1_6
DOCKED: REMARK    6  A    between atoms: C5_5  and  C12_15
DOCKED: REMARK    7  A    between atoms: C6_7  and  C7_9
DOCKED: REMARK    8  A    between atoms: N2_17  and  C13_18
DOCKED: REMARK    9  A    between atoms: C13_18  and  C14_19
DOCKED: REMARK   10  A    between atoms: C13_18  and  C15_20
DOCKED: REMARK   11  A    between atoms: N3_22  and  C16_23
DOCKED: REMARK   12  A    between atoms: C16_23  and  C17_24
DOCKED: REMARK   13  A    between atoms: C16_23  and  C21_28
DOCKED: REMARK   14  A    between atoms: C17_24  and  C18_25
DOCKED: REMARK   15  A    between atoms: C18_25  and  C19_26
DOCKED: REMARK   16  A    between atoms: C18_25  and  C20_27
DOCKED: REMARK   17  A    between atoms: C21_28  and  O5_29
DOCKED: REMARK   18  A    between atoms: C21_28  and  C22_30
DOCKED: REMARK   19  A    between atoms: C22_30  and  C23_31
DOCKED: REMARK   20  A    between atoms: N4_33  and  C24_34
DOCKED: REMARK   21  A    between atoms: C24_34  and  C25_35
DOCKED: REMARK   22  A    between atoms: C24_34  and  C34_48
DOCKED: REMARK   23  A    between atoms: N5_37  and  C26_38
DOCKED: REMARK   24  A    between atoms: C26_38  and  C27_39
DOCKED: REMARK   25  A    between atoms: C31_43  and  C32_44
DOCKED: REMARK   26  A    between atoms: C32_44  and  O9_46
DOCKED: REMARK   27  A    between atoms: C34_48  and  C35_49
DOCKED: REMARK   28  A    between atoms: C34_48  and  C36_50
DOCKED: REMARK                            x       y       z     vdW  Elec       q    Type
DOCKED: REMARK                         _______ _______ _______ _____ _____    ______ ____
DOCKED: USER                              x       y       z     vdW  Elec       q    Type
DOCKED: USER                           _______ _______ _______ _____ _____    ______ ____
DOCKED: ROOT
DOCKED: ATOM      1  C16 UNL     1       6.168 -11.731  -3.785 +0.00 +0.00    +0.102 C  
DOCKED: ENDROOT
DOCKED: BRANCH   1   4
DOCKED: ATOM      2  C15 UNL     1       5.279 -11.510  -1.450 +0.00 +0.00    +0.233 C  
DOCKED: ATOM      3  O4  UNL     1       4.320 -12.255  -1.657 +0.00 -0.00    -0.274 OA 
DOCKED: ATOM      4  N3  UNL     1       6.175 -11.156  -2.433 +0.00 -0.00    -0.308 N  
DOCKED: ATOM      5  H26 UNL     1       7.066 -10.765  -2.147 +0.00 +0.00    +0.149 HD 
DOCKED: BRANCH   2   6
DOCKED: ATOM      6  C13 UNL     1       5.625 -10.953  -0.054 +0.00 +0.00    +0.156 C  
DOCKED: ATOM      7  C14 UNL     1       4.375 -10.941   0.820 +0.00 +0.00    +0.038 C  
DOCKED: BRANCH   6  10
DOCKED: ATOM      8  C12 UNL     1       7.419  -9.381  -0.675 +0.00 +0.00    +0.234 C  
DOCKED: ATOM      9  O3  UNL     1       8.174 -10.294  -1.018 +0.00 -0.00    -0.274 OA 
DOCKED: ATOM     10  N2  UNL     1       6.162  -9.604  -0.162 +0.00 -0.00    -0.303 N  
DOCKED: ATOM     11  H21 UNL     1       5.489  -8.851  -0.223 +0.00 +0.00    +0.149 HD 
DOCKED: BRANCH   8  12
DOCKED: ATOM     12  C5  UNL     1       7.829  -7.895  -0.781 +0.00 +0.00    +0.162 C  
DOCKED: BRANCH  12  13
DOCKED: ATOM     13  N1  UNL     1       8.171  -7.658  -2.186 +0.00 -0.00    -0.302 N  
DOCKED: ATOM     14  C6  UNL     1       9.035  -6.630  -2.529 +0.00 +0.00    +0.243 C  
DOCKED: ATOM     15  O1  UNL     1       9.383  -5.762  -1.730 +0.00 -0.00    -0.273 OA 
DOCKED: ATOM     16  H11 UNL     1       8.235  -8.498  -2.752 +0.00 +0.00    +0.150 HD 
DOCKED: BRANCH  14  17
DOCKED: ATOM     17  C7  UNL     1       9.520  -6.688  -3.996 +0.00 +0.00    +0.204 C  
DOCKED: ATOM     18  C8  UNL     1       8.919  -5.516  -4.786 +0.00 +0.00    +0.041 C  
DOCKED: ATOM     19  C9  UNL     1       7.491  -5.817  -5.222 +0.00 +0.00    +0.005 C  
DOCKED: ATOM     20  C10 UNL     1       7.367  -7.197  -5.866 +0.00 +0.00    +0.028 C  
DOCKED: ATOM     21  C11 UNL     1       8.684  -7.958  -5.861 +0.00 +0.00    +0.161 C  
DOCKED: ATOM     22  O2  UNL     1       9.258  -7.973  -4.562 +0.00 -0.00    -0.367 OA 
DOCKED: ENDBRANCH  14  17
DOCKED: ENDBRANCH  12  13
DOCKED: BRANCH  12  23
DOCKED: ATOM     23  C3  UNL     1       6.741  -6.897  -0.313 +0.00 +0.00    +0.015 C  
DOCKED: ATOM     24  C4  UNL     1       7.297  -5.798   0.600 +0.00 +0.00    +0.010 C  
DOCKED: BRANCH  23  26
DOCKED: ATOM     25  C1  UNL     1       5.034  -7.303  -2.173 +0.00 +0.00    +0.004 C  
DOCKED: ATOM     26  C2  UNL     1       5.969  -6.299  -1.506 +0.00 +0.00    +0.002 C  
DOCKED: ENDBRANCH  23  26
DOCKED: ENDBRANCH  12  23
DOCKED: ENDBRANCH   8  12
DOCKED: ENDBRANCH   6  10
DOCKED: ENDBRANCH   2   6
DOCKED: ENDBRANCH   1   4
DOCKED: BRANCH   1  27
DOCKED: ATOM     27  C21 UNL     1       7.352 -11.141  -4.607 +0.00 +0.00    +0.143 C  
DOCKED: BRANCH  27  28
DOCKED: ATOM     28  O5  UNL     1       8.061 -10.198  -3.777 +0.00 -0.00    -0.389 OA 
DOCKED: ATOM     29  H38 UNL     1       8.538 -10.716  -3.104 +0.00 +0.00    +0.210 HD 
DOCKED: ENDBRANCH  27  28
DOCKED: BRANCH  27  30
DOCKED: ATOM     30  C22 UNL     1       8.343 -12.198  -5.096 +0.00 +0.00    +0.129 C  
DOCKED: BRANCH  30  31
DOCKED: ATOM     31  C23 UNL     1       9.728 -11.954  -4.543 +0.00 +0.00    +0.216 C  
DOCKED: ATOM     32  O6  UNL     1      10.308 -12.785  -3.850 +0.00 -0.00    -0.276 OA 
DOCKED: ATOM     33  N4  UNL     1      10.306 -10.775  -4.950 +0.00 -0.00    -0.304 N  
DOCKED: ATOM     34  H41 UNL     1       9.683 -10.024  -5.243 +0.00 +0.00    +0.149 HD 
DOCKED: BRANCH  33  35
DOCKED: ATOM     35  C24 UNL     1      11.586 -10.334  -4.399 +0.00 +0.00    +0.161 C  
DOCKED: BRANCH  35  36
DOCKED: ATOM     36  C25 UNL     1      11.331  -9.827  -2.968 +0.00 +0.00    +0.234 C  
DOCKED: ATOM     37  O7  UNL     1      10.244  -9.355  -2.630 +0.00 -0.00    -0.274 OA 
DOCKED: ATOM     38  N5  UNL     1      12.418  -9.915  -2.126 +0.00 -0.00    -0.310 N  
DOCKED: ATOM     39  H43 UNL     1      13.206 -10.481  -2.417 +0.00 +0.00    +0.149 HD 
DOCKED: BRANCH  38  40
DOCKED: ATOM     40  C26 UNL     1      12.292  -9.667  -0.706 +0.00 +0.00    +0.139 C  
DOCKED: BRANCH  40  41
DOCKED: ATOM     41  C27 UNL     1      11.389 -10.685  -0.054 +0.00 -0.00    -0.030 A  
DOCKED: ATOM     42  C28 UNL     1      11.403 -10.869   1.337 +0.00 +0.00    +0.005 A  
DOCKED: ATOM     43  C29 UNL     1      10.565 -11.806   1.944 +0.00 +0.00    +0.001 A  
DOCKED: ATOM     44  C30 UNL     1       9.708 -12.578   1.167 +0.00 +0.00    +0.015 A  
DOCKED: ATOM     45  C31 UNL     1       9.686 -12.417  -0.225 +0.00 +0.00    +0.059 A  
DOCKED: ATOM     46  C33 UNL     1      10.524 -11.470  -0.831 +0.00 +0.00    +0.020 A  
DOCKED: BRANCH  45  47
DOCKED: ATOM     47  C32 UNL     1       8.760 -13.268  -1.016 +0.00 +0.00    +0.337 C  
DOCKED: ATOM     48  O8  UNL     1       8.480 -14.429  -0.784 +0.00 -0.00    -0.245 OA 
DOCKED: BRANCH  47  49
DOCKED: ATOM     49  O9  UNL     1       8.224 -12.621  -2.067 +0.00 -0.00    -0.477 OA 
DOCKED: ATOM     50  H49 UNL     1       8.889 -11.932  -2.279 +0.00 +0.00    +0.295 HD 
DOCKED: ENDBRANCH  47  49
DOCKED: ENDBRANCH  45  47
DOCKED: ENDBRANCH  40  41
DOCKED: ENDBRANCH  38  40
DOCKED: ENDBRANCH  35  36
DOCKED: BRANCH  35  51
DOCKED: ATOM     51  C34 UNL     1      12.282  -9.256  -5.259 +0.00 +0.00    +0.012 C  
DOCKED: ATOM     52  C35 UNL     1      11.569  -9.089  -6.603 +0.00 +0.00    +0.009 C  
DOCKED: ATOM     53  C36 UNL     1      12.391  -7.897  -4.560 +0.00 +0.00    +0.009 C  
DOCKED: ENDBRANCH  35  51
DOCKED: ENDBRANCH  33  35
DOCKED: ENDBRANCH  30  31
DOCKED: ENDBRANCH  27  30
DOCKED: ENDBRANCH   1  27
DOCKED: BRANCH   1  54
DOCKED: ATOM     54  C17 UNL     1       4.805 -11.392  -4.435 +0.00 +0.00    +0.028 C  
DOCKED: BRANCH  54  55
DOCKED: ATOM     55  C18 UNL     1       4.428  -9.896  -4.378 +0.00 -0.00    -0.015 C  
DOCKED: ATOM     56  C19 UNL     1       4.729  -9.237  -5.727 +0.00 +0.00    +0.007 C  
DOCKED: ATOM     57  C20 UNL     1       2.965  -9.662  -4.011 +0.00 +0.00    +0.007 C  
DOCKED: ENDBRANCH  54  55
DOCKED: ENDBRANCH   1  54
DOCKED: TORSDOF 21
DOCKED: TER
DOCKED: ENDMDL
________________________________________________________________________________


    FINAL DOCKED STATE:
    ________________________


Run:   6 / 20
Time taken for this run:   1.466s

DOCKED: MODEL        6
DOCKED: USER    Run = 6
DOCKED: USER
DOCKED: USER    Estimated Free Energy of Binding    =  +6.26 kcal/mol  [=(1)+(2)+(3)-(4)]
DOCKED: USER
DOCKED: USER    (1) Final Intermolecular Energy     =  +0.00 kcal/mol
DOCKED: USER        vdW + Hbond + desolv Energy     =  +0.00 kcal/mol
DOCKED: USER        Electrostatic Energy            =  +0.00 kcal/mol
DOCKED: USER        Moving Ligand-Fixed Receptor    =  +0.00 kcal/mol
DOCKED: USER        Moving Ligand-Moving Receptor   =  +0.00 kcal/mol
DOCKED: USER    (2) Final Total Internal Energy     = -16.05 kcal/mol
DOCKED: USER    (3) Torsional Free Energy           =  +6.26 kcal/mol
DOCKED: USER    (4) Unbound System's Energy         = -16.05 kcal/mol
DOCKED: USER
DOCKED: USER
DOCKED: REMARK  Name = ligands/ligand_22.pdb
DOCKED: REMARK  28 active torsions:
DOCKED: REMARK  status: ('A' for Active; 'I' for Inactive)
DOCKED: REMARK    1  A    between atoms: C1_1  and  C2_2
DOCKED: REMARK    2  A    between atoms: C2_2  and  C3_3
DOCKED: REMARK    3  A    between atoms: C3_3  and  C4_4
DOCKED: REMARK    4  A    between atoms: C3_3  and  C5_5
DOCKED: REMARK    5  A    between atoms: C5_5  and  N1_6
DOCKED: REMARK    6  A    between atoms: C5_5  and  C12_15
DOCKED: REMARK    7  A    between atoms: C6_7  and  C7_9
DOCKED: REMARK    8  A    between atoms: N2_17  and  C13_18
DOCKED: REMARK    9  A    between atoms: C13_18  and  C14_19
DOCKED: REMARK   10  A    between atoms: C13_18  and  C15_20
DOCKED: REMARK   11  A    between atoms: N3_22  and  C16_23
DOCKED: REMARK   12  A    between atoms: C16_23  and  C17_24
DOCKED: REMARK   13  A    between atoms: C16_23  and  C21_28
DOCKED: REMARK   14  A    between atoms: C17_24  and  C18_25
DOCKED: REMARK   15  A    between atoms: C18_25  and  C19_26
DOCKED: REMARK   16  A    between atoms: C18_25  and  C20_27
DOCKED: REMARK   17  A    between atoms: C21_28  and  O5_29
DOCKED: REMARK   18  A    between atoms: C21_28  and  C22_30
DOCKED: REMARK   19  A    between atoms: C22_30  and  C23_31
DOCKED: REMARK   20  A    between atoms: N4_33  and  C24_34
DOCKED: REMARK   21  A    between atoms: C24_34  and  C25_35
DOCKED: REMARK   22  A    between atoms: C24_34  and  C34_48
DOCKED: REMARK   23  A    between atoms: N5_37  and  C26_38
DOCKED: REMARK   24  A    between atoms: C26_38  and  C27_39
DOCKED: REMARK   25  A    between atoms: C31_43  and  C32_44
DOCKED: REMARK   26  A    between atoms: C32_44  and  O9_46
DOCKED: REMARK   27  A    between atoms: C34_48  and  C35_49
DOCKED: REMARK   28  A    between atoms: C34_48  and  C36_50
DOCKED: REMARK                            x       y       z     vdW  Elec       q    Type
DOCKED: REMARK                         _______ _______ _______ _____ _____    ______ ____
DOCKED: USER                              x       y       z     vdW  Elec       q    Type
DOCKED: USER                           _______ _______ _______ _____ _____    ______ ____
DOCKED: ROOT
DOCKED: ATOM      1  C16 UNL     1       9.212  -1.870   2.797 +0.00 +0.00    +0.102 C  
DOCKED: ENDROOT
DOCKED: BRANCH   1   4
DOCKED: ATOM      2  C15 UNL     1      10.856  -2.968   1.254 +0.00 +0.00    +0.233 C  
DOCKED: ATOM      3  O4  UNL     1       9.982  -3.425   0.516 +0.00 -0.00    -0.274 OA 
DOCKED: ATOM      4  N3  UNL     1      10.571  -2.267   2.404 +0.00 -0.00    -0.308 N  
DOCKED: ATOM      5  H26 UNL     1      11.308  -1.706   2.816 +0.00 +0.00    +0.149 HD 
DOCKED: BRANCH   2   6
DOCKED: ATOM      6  C13 UNL     1      12.362  -3.066   0.935 +0.00 +0.00    +0.156 C  
DOCKED: ATOM      7  C14 UNL     1      12.858  -4.480   1.222 +0.00 +0.00    +0.038 C  
DOCKED: BRANCH   6  10
DOCKED: ATOM      8  C12 UNL     1      14.460  -1.915   1.522 +0.00 +0.00    +0.234 C  
DOCKED: ATOM      9  O3  UNL     1      15.109  -2.562   0.698 +0.00 -0.00    -0.274 OA 
DOCKED: ATOM     10  N2  UNL     1      13.115  -2.109   1.734 +0.00 -0.00    -0.303 N  
DOCKED: ATOM     11  H21 UNL     1      12.590  -1.351   2.149 +0.00 +0.00    +0.149 HD 
DOCKED: BRANCH   8  12
DOCKED: ATOM     12  C5  UNL     1      15.112  -0.827   2.407 +0.00 +0.00    +0.162 C  
DOCKED: BRANCH  12  13
DOCKED: ATOM     13  N1  UNL     1      15.070  -1.331   3.782 +0.00 -0.00    -0.302 N  
DOCKED: ATOM     14  C6  UNL     1      13.866  -1.383   4.469 +0.00 +0.00    +0.243 C  
DOCKED: ATOM     15  O1  UNL     1      12.844  -0.836   4.057 +0.00 -0.00    -0.273 OA 
DOCKED: ATOM     16  H11 UNL     1      15.723  -2.083   3.976 +0.00 +0.00    +0.150 HD 
DOCKED: BRANCH  14  17
DOCKED: ATOM     17  C7  UNL     1      13.934  -2.195   5.783 +0.00 +0.00    +0.204 C  
DOCKED: ATOM     18  C8  UNL     1      13.869  -1.241   6.984 +0.00 +0.00    +0.041 C  
DOCKED: ATOM     19  C9  UNL     1      15.230  -0.620   7.272 +0.00 +0.00    +0.005 C  
DOCKED: ATOM     20  C10 UNL     1      16.343  -1.665   7.302 +0.00 +0.00    +0.028 C  
DOCKED: ATOM     21  C11 UNL     1      15.833  -3.062   6.979 +0.00 +0.00    +0.161 C  
DOCKED: ATOM     22  O2  UNL     1      15.070  -3.061   5.781 +0.00 -0.00    -0.367 OA 
DOCKED: ENDBRANCH  14  17
DOCKED: ENDBRANCH  12  13
DOCKED: BRANCH  12  23
DOCKED: ATOM     23  C3  UNL     1      16.563  -0.463   2.007 +0.00 +0.00    +0.015 C  
DOCKED: ATOM     24  C4  UNL     1      16.646   0.219   0.636 +0.00 +0.00    +0.010 C  
DOCKED: BRANCH  23  26
DOCKED: ATOM     25  C1  UNL     1      18.030  -0.470   4.101 +0.00 +0.00    +0.004 C  
DOCKED: ATOM     26  C2  UNL     1      17.257   0.378   3.097 +0.00 +0.00    +0.002 C  
DOCKED: ENDBRANCH  23  26
DOCKED: ENDBRANCH  12  23
DOCKED: ENDBRANCH   8  12
DOCKED: ENDBRANCH   6  10
DOCKED: ENDBRANCH   2   6
DOCKED: ENDBRANCH   1   4
DOCKED: BRANCH   1  27
DOCKED: ATOM     27  C21 UNL     1       9.232  -0.404   3.325 +0.00 +0.00    +0.143 C  
DOCKED: BRANCH  27  28
DOCKED: ATOM     28  O5  UNL     1      10.273  -0.289   4.316 +0.00 -0.00    -0.389 OA 
DOCKED: ATOM     29  H38 UNL     1      11.111  -0.167   3.834 +0.00 +0.00    +0.210 HD 
DOCKED: ENDBRANCH  27  28
DOCKED: BRANCH  27  30
DOCKED: ATOM     30  C22 UNL     1       9.483   0.637   2.233 +0.00 +0.00    +0.129 C  
DOCKED: BRANCH  30  31
DOCKED: ATOM     31  C23 UNL     1      10.784   0.375   1.510 +0.00 +0.00    +0.216 C  
DOCKED: ATOM     32  O6  UNL     1      11.857   0.309   2.103 +0.00 -0.00    -0.276 OA 
DOCKED: ATOM     33  N4  UNL     1      10.650   0.136   0.164 +0.00 -0.00    -0.304 N  
DOCKED: ATOM     34  H41 UNL     1       9.820   0.506  -0.298 +0.00 +0.00    +0.149 HD 
DOCKED: BRANCH  33  35
DOCKED: ATOM     35  C24 UNL     1      11.824  -0.003  -0.697 +0.00 +0.00    +0.161 C  
DOCKED: BRANCH  35  36
DOCKED: ATOM     36  C25 UNL     1      12.583   1.336  -0.676 +0.00 +0.00    +0.234 C  
DOCKED: ATOM     37  O7  UNL     1      12.300   2.255  -1.445 +0.00 -0.00    -0.274 OA 
DOCKED: ATOM     38  N5  UNL     1      13.610   1.398   0.241 +0.00 -0.00    -0.310 N  
DOCKED: ATOM     39  H43 UNL     1      13.657   0.684   0.958 +0.00 +0.00    +0.149 HD 
DOCKED: BRANCH  38  40
DOCKED: ATOM     40  C26 UNL     1      14.290   2.642   0.525 +0.00 +0.00    +0.139 C  
DOCKED: BRANCH  40  41
DOCKED: ATOM     41  C27 UNL     1      14.606   2.766   1.995 +0.00 -0.00    -0.030 A  
DOCKED: ATOM     42  C28 UNL     1      15.804   3.359   2.424 +0.00 +0.00    +0.005 A  
DOCKED: ATOM     43  C29 UNL     1      16.097   3.480   3.783 +0.00 +0.00    +0.001 A  
DOCKED: ATOM     44  C30 UNL     1      15.200   3.001   4.733 +0.00 +0.00    +0.015 A  
DOCKED: ATOM     45  C31 UNL     1      14.003   2.397   4.326 +0.00 +0.00    +0.059 A  
DOCKED: ATOM     46  C33 UNL     1      13.709   2.284   2.959 +0.00 +0.00    +0.020 A  
DOCKED: BRANCH  45  47
DOCKED: ATOM     47  C32 UNL     1      13.078   1.894   5.373 +0.00 +0.00    +0.337 C  
DOCKED: ATOM     48  O8  UNL     1      13.332   1.778   6.558 +0.00 -0.00    -0.245 OA 
DOCKED: BRANCH  47  49
DOCKED: ATOM     49  O9  UNL     1      11.869   1.558   4.887 +0.00 -0.00    -0.477 OA 
DOCKED: ATOM     50  H49 UNL     1      12.075   0.908   4.183 +0.00 +0.00    +0.295 HD 
DOCKED: ENDBRANCH  47  49
DOCKED: ENDBRANCH  45  47
DOCKED: ENDBRANCH  40  41
DOCKED: ENDBRANCH  38  40
DOCKED: ENDBRANCH  35  36
DOCKED: BRANCH  35  51
DOCKED: ATOM     51  C34 UNL     1      11.475  -0.426  -2.141 +0.00 +0.00    +0.012 C  
DOCKED: ATOM     52  C35 UNL     1      12.476  -1.461  -2.662 +0.00 +0.00    +0.009 C  
DOCKED: ATOM     53  C36 UNL     1      10.049  -0.968  -2.288 +0.00 +0.00    +0.009 C  
DOCKED: ENDBRANCH  35  51
DOCKED: ENDBRANCH  33  35
DOCKED: ENDBRANCH  30  31
DOCKED: ENDBRANCH  27  30
DOCKED: ENDBRANCH   1  27
DOCKED: BRANCH   1  54
DOCKED: ATOM     54  C17 UNL     1       8.728  -2.856   3.887 +0.00 +0.00    +0.028 C  
DOCKED: BRANCH  54  55
DOCKED: ATOM     55  C18 UNL     1       9.843  -3.738   4.487 +0.00 -0.00    -0.015 C  
DOCKED: ATOM     56  C19 UNL     1      10.492  -3.014   5.670 +0.00 +0.00    +0.007 C  
DOCKED: ATOM     57  C20 UNL     1       9.344  -5.108   4.938 +0.00 +0.00    +0.007 C  
DOCKED: ENDBRANCH  54  55
DOCKED: ENDBRANCH   1  54
DOCKED: TORSDOF 21
DOCKED: TER
DOCKED: ENDMDL
________________________________________________________________________________


    FINAL DOCKED STATE:
    ________________________


Run:   7 / 20
Time taken for this run:   1.466s

DOCKED: MODEL        7
DOCKED: USER    Run = 7
DOCKED: USER
DOCKED: USER    Estimated Free Energy of Binding    =  +6.26 kcal/mol  [=(1)+(2)+(3)-(4)]
DOCKED: USER
DOCKED: USER    (1) Final Intermolecular Energy     =  +0.00 kcal/mol
DOCKED: USER        vdW + Hbond + desolv Energy     =  +0.00 kcal/mol
DOCKED: USER        Electrostatic Energy            =  +0.00 kcal/mol
DOCKED: USER        Moving Ligand-Fixed Receptor    =  +0.00 kcal/mol
DOCKED: USER        Moving Ligand-Moving Receptor   =  +0.00 kcal/mol
DOCKED: USER    (2) Final Total Internal Energy     = -15.52 kcal/mol
DOCKED: USER    (3) Torsional Free Energy           =  +6.26 kcal/mol
DOCKED: USER    (4) Unbound System's Energy         = -15.52 kcal/mol
DOCKED: USER
DOCKED: USER
DOCKED: REMARK  Name = ligands/ligand_22.pdb
DOCKED: REMARK  28 active torsions:
DOCKED: REMARK  status: ('A' for Active; 'I' for Inactive)
DOCKED: REMARK    1  A    between atoms: C1_1  and  C2_2
DOCKED: REMARK    2  A    between atoms: C2_2  and  C3_3
DOCKED: REMARK    3  A    between atoms: C3_3  and  C4_4
DOCKED: REMARK    4  A    between atoms: C3_3  and  C5_5
DOCKED: REMARK    5  A    between atoms: C5_5  and  N1_6
DOCKED: REMARK    6  A    between atoms: C5_5  and  C12_15
DOCKED: REMARK    7  A    between atoms: C6_7  and  C7_9
DOCKED: REMARK    8  A    between atoms: N2_17  and  C13_18
DOCKED: REMARK    9  A    between atoms: C13_18  and  C14_19
DOCKED: REMARK   10  A    between atoms: C13_18  and  C15_20
DOCKED: REMARK   11  A    between atoms: N3_22  and  C16_23
DOCKED: REMARK   12  A    between atoms: C16_23  and  C17_24
DOCKED: REMARK   13  A    between atoms: C16_23  and  C21_28
DOCKED: REMARK   14  A    between atoms: C17_24  and  C18_25
DOCKED: REMARK   15  A    between atoms: C18_25  and  C19_26
DOCKED: REMARK   16  A    between atoms: C18_25  and  C20_27
DOCKED: REMARK   17  A    between atoms: C21_28  and  O5_29
DOCKED: REMARK   18  A    between atoms: C21_28  and  C22_30
DOCKED: REMARK   19  A    between atoms: C22_30  and  C23_31
DOCKED: REMARK   20  A    between atoms: N4_33  and  C24_34
DOCKED: REMARK   21  A    between atoms: C24_34  and  C25_35
DOCKED: REMARK   22  A    between atoms: C24_34  and  C34_48
DOCKED: REMARK   23  A    between atoms: N5_37  and  C26_38
DOCKED: REMARK   24  A    between atoms: C26_38  and  C27_39
DOCKED: REMARK   25  A    between atoms: C31_43  and  C32_44
DOCKED: REMARK   26  A    between atoms: C32_44  and  O9_46
DOCKED: REMARK   27  A    between atoms: C34_48  and  C35_49
DOCKED: REMARK   28  A    between atoms: C34_48  and  C36_50
DOCKED: REMARK                            x       y       z     vdW  Elec       q    Type
DOCKED: REMARK                         _______ _______ _______ _____ _____    ______ ____
DOCKED: USER                              x       y       z     vdW  Elec       q    Type
DOCKED: USER                           _______ _______ _______ _____ _____    ______ ____
DOCKED: ROOT
DOCKED: ATOM      1  C16 UNL     1       6.414  -4.185   1.059 +0.00 +0.00    +0.102 C  
DOCKED: ENDROOT
DOCKED: BRANCH   1   4
DOCKED: ATOM      2  C15 UNL     1       8.145  -5.904   1.639 +0.00 +0.00    +0.233 C  
DOCKED: ATOM      3  O4  UNL     1       9.082  -5.109   1.553 +0.00 -0.00    -0.274 OA 
DOCKED: ATOM      4  N3  UNL     1       6.843  -5.559   1.355 +0.00 -0.00    -0.308 N  
DOCKED: ATOM      5  H26 UNL     1       6.104  -6.167   1.690 +0.00 +0.00    +0.149 HD 
DOCKED: BRANCH   2   6
DOCKED: ATOM      6  C13 UNL     1       8.314  -7.351   2.145 +0.00 +0.00    +0.156 C  
DOCKED: ATOM      7  C14 UNL     1       9.393  -8.059   1.330 +0.00 +0.00    +0.038 C  
DOCKED: BRANCH   6  10
DOCKED: ATOM      8  C12 UNL     1       5.989  -7.773   2.846 +0.00 +0.00    +0.234 C  
DOCKED: ATOM      9  O3  UNL     1       6.044  -6.917   3.732 +0.00 -0.00    -0.274 OA 
DOCKED: ATOM     10  N2  UNL     1       7.059  -8.080   2.036 +0.00 -0.00    -0.303 N  
DOCKED: ATOM     11  H21 UNL     1       6.863  -8.517   1.145 +0.00 +0.00    +0.149 HD 
DOCKED: BRANCH   8  12
DOCKED: ATOM     12  C5  UNL     1       4.706  -8.592   2.575 +0.00 +0.00    +0.162 C  
DOCKED: BRANCH  12  13
DOCKED: ATOM     13  N1  UNL     1       3.616  -7.622   2.440 +0.00 -0.00    -0.302 N  
DOCKED: ATOM     14  C6  UNL     1       2.335  -7.952   2.853 +0.00 +0.00    +0.243 C  
DOCKED: ATOM     15  O1  UNL     1       2.009  -9.101   3.148 +0.00 -0.00    -0.273 OA 
DOCKED: ATOM     16  H11 UNL     1       3.891  -6.656   2.580 +0.00 +0.00    +0.150 HD 
DOCKED: BRANCH  14  17
DOCKED: ATOM     17  C7  UNL     1       1.370  -6.745   2.914 +0.00 +0.00    +0.204 C  
DOCKED: ATOM     18  C8  UNL     1       0.432  -6.771   1.699 +0.00 +0.00    +0.041 C  
DOCKED: ATOM     19  C9  UNL     1       1.111  -6.195   0.463 +0.00 +0.00    +0.005 C  
DOCKED: ATOM     20  C10 UNL     1       1.797  -4.862   0.756 +0.00 +0.00    +0.028 C  
DOCKED: ATOM     21  C11 UNL     1       1.689  -4.464   2.220 +0.00 +0.00    +0.161 C  
DOCKED: ATOM     22  O2  UNL     1       2.099  -5.527   3.068 +0.00 -0.00    -0.367 OA 
DOCKED: ENDBRANCH  14  17
DOCKED: ENDBRANCH  12  13
DOCKED: BRANCH  12  23
DOCKED: ATOM     23  C3  UNL     1       4.782  -9.501   1.323 +0.00 +0.00    +0.015 C  
DOCKED: ATOM     24  C4  UNL     1       3.959 -10.786   1.474 +0.00 +0.00    +0.010 C  
DOCKED: BRANCH  23  26
DOCKED: ATOM     25  C1  UNL     1       2.992  -9.061  -0.449 +0.00 +0.00    +0.004 C  
DOCKED: ATOM     26  C2  UNL     1       4.398  -8.734   0.042 +0.00 +0.00    +0.002 C  
DOCKED: ENDBRANCH  23  26
DOCKED: ENDBRANCH  12  23
DOCKED: ENDBRANCH   8  12
DOCKED: ENDBRANCH   6  10
DOCKED: ENDBRANCH   2   6
DOCKED: ENDBRANCH   1   4
DOCKED: BRANCH   1  27
DOCKED: ATOM     27  C21 UNL     1       5.421  -3.703   2.158 +0.00 +0.00    +0.143 C  
DOCKED: BRANCH  27  28
DOCKED: ATOM     28  O5  UNL     1       4.869  -4.861   2.817 +0.00 -0.00    -0.389 OA 
DOCKED: ATOM     29  H38 UNL     1       4.008  -4.593   3.186 +0.00 +0.00    +0.210 HD 
DOCKED: ENDBRANCH  27  28
DOCKED: BRANCH  27  30
DOCKED: ATOM     30  C22 UNL     1       6.065  -2.805   3.214 +0.00 +0.00    +0.129 C  
DOCKED: BRANCH  30  31
DOCKED: ATOM     31  C23 UNL     1       7.345  -3.407   3.745 +0.00 +0.00    +0.216 C  
DOCKED: ATOM     32  O6  UNL     1       8.445  -2.916   3.506 +0.00 -0.00    -0.276 OA 
DOCKED: ATOM     33  N4  UNL     1       7.166  -4.486   4.576 +0.00 -0.00    -0.304 N  
DOCKED: ATOM     34  H41 UNL     1       6.300  -5.014   4.479 +0.00 +0.00    +0.149 HD 
DOCKED: BRANCH  33  35
DOCKED: ATOM     35  C24 UNL     1       8.307  -5.259   5.065 +0.00 +0.00    +0.161 C  
DOCKED: BRANCH  35  36
DOCKED: ATOM     36  C25 UNL     1       7.783  -6.258   6.112 +0.00 +0.00    +0.234 C  
DOCKED: ATOM     37  O7  UNL     1       7.475  -5.904   7.251 +0.00 -0.00    -0.274 OA 
DOCKED: ATOM     38  N5  UNL     1       7.725  -7.565   5.679 +0.00 -0.00    -0.310 N  
DOCKED: ATOM     39  H43 UNL     1       7.812  -7.746   4.686 +0.00 +0.00    +0.149 HD 
DOCKED: BRANCH  38  40
DOCKED: ATOM     40  C26 UNL     1       7.076  -8.590   6.466 +0.00 +0.00    +0.139 C  
DOCKED: BRANCH  40  41
DOCKED: ATOM     41  C27 UNL     1       5.574  -8.483   6.367 +0.00 -0.00    -0.030 A  
DOCKED: ATOM     42  C28 UNL     1       4.767  -9.629   6.434 +0.00 +0.00    +0.005 A  
DOCKED: ATOM     43  C29 UNL     1       3.377  -9.532   6.349 +0.00 +0.00    +0.001 A  
DOCKED: ATOM     44  C30 UNL     1       2.776  -8.288   6.186 +0.00 +0.00    +0.015 A  
DOCKED: ATOM     45  C31 UNL     1       3.564  -7.133   6.107 +0.00 +0.00    +0.059 A  
DOCKED: ATOM     46  C33 UNL     1       4.959  -7.233   6.200 +0.00 +0.00    +0.020 A  
DOCKED: BRANCH  45  47
DOCKED: ATOM     47  C32 UNL     1       2.880  -5.827   5.925 +0.00 +0.00    +0.337 C  
DOCKED: ATOM     48  O8  UNL     1       1.787  -5.523   6.367 +0.00 -0.00    -0.245 OA 
DOCKED: BRANCH  47  49
DOCKED: ATOM     49  O9  UNL     1       3.600  -4.956   5.196 +0.00 -0.00    -0.477 OA 
DOCKED: ATOM     50  H49 UNL     1       3.818  -5.458   4.382 +0.00 +0.00    +0.295 HD 
DOCKED: ENDBRANCH  47  49
DOCKED: ENDBRANCH  45  47
DOCKED: ENDBRANCH  40  41
DOCKED: ENDBRANCH  38  40
DOCKED: ENDBRANCH  35  36
DOCKED: BRANCH  35  51
DOCKED: ATOM     51  C34 UNL     1       9.436  -4.380   5.645 +0.00 +0.00    +0.012 C  
DOCKED: ATOM     52  C35 UNL     1       8.883  -3.401   6.685 +0.00 +0.00    +0.009 C  
DOCKED: ATOM     53  C36 UNL     1      10.584  -5.189   6.257 +0.00 +0.00    +0.009 C  
DOCKED: ENDBRANCH  35  51
DOCKED: ENDBRANCH  33  35
DOCKED: ENDBRANCH  30  31
DOCKED: ENDBRANCH  27  30
DOCKED: ENDBRANCH   1  27
DOCKED: BRANCH   1  54
DOCKED: ATOM     54  C17 UNL     1       5.750  -4.189  -0.340 +0.00 +0.00    +0.028 C  
DOCKED: BRANCH  54  55
DOCKED: ATOM     55  C18 UNL     1       5.284  -5.580  -0.818 +0.00 -0.00    -0.015 C  
DOCKED: ATOM     56  C19 UNL     1       4.022  -5.434  -1.675 +0.00 +0.00    +0.007 C  
DOCKED: ATOM     57  C20 UNL     1       6.353  -6.330  -1.608 +0.00 +0.00    +0.007 C  
DOCKED: ENDBRANCH  54  55
DOCKED: ENDBRANCH   1  54
DOCKED: TORSDOF 21
DOCKED: TER
DOCKED: ENDMDL
________________________________________________________________________________


    FINAL DOCKED STATE:
    ________________________


Run:   8 / 20
Time taken for this run:   1.466s

DOCKED: MODEL        8
DOCKED: USER    Run = 8
DOCKED: USER
DOCKED: USER    Estimated Free Energy of Binding    =  +6.26 kcal/mol  [=(1)+(2)+(3)-(4)]
DOCKED: USER
DOCKED: USER    (1) Final Intermolecular Energy     =  +0.00 kcal/mol
DOCKED: USER        vdW + Hbond + desolv Energy     =  +0.00 kcal/mol
DOCKED: USER        Electrostatic Energy            =  +0.00 kcal/mol
DOCKED: USER        Moving Ligand-Fixed Receptor    =  +0.00 kcal/mol
DOCKED: USER        Moving Ligand-Moving Receptor   =  +0.00 kcal/mol
DOCKED: USER    (2) Final Total Internal Energy     = -15.78 kcal/mol
DOCKED: USER    (3) Torsional Free Energy           =  +6.26 kcal/mol
DOCKED: USER    (4) Unbound System's Energy         = -15.78 kcal/mol
DOCKED: USER
DOCKED: USER
DOCKED: REMARK  Name = ligands/ligand_22.pdb
DOCKED: REMARK  28 active torsions:
DOCKED: REMARK  status: ('A' for Active; 'I' for Inactive)
DOCKED: REMARK    1  A    between atoms: C1_1  and  C2_2
DOCKED: REMARK    2  A    between atoms: C2_2  and  C3_3
DOCKED: REMARK    3  A    between atoms: C3_3  and  C4_4
DOCKED: REMARK    4  A    between atoms: C3_3  and  C5_5
DOCKED: REMARK    5  A    between atoms: C5_5  and  N1_6
DOCKED: REMARK    6  A    between atoms: C5_5  and  C12_15
DOCKED: REMARK    7  A    between atoms: C6_7  and  C7_9
DOCKED: REMARK    8  A    between atoms: N2_17  and  C13_18
DOCKED: REMARK    9  A    between atoms: C13_18  and  C14_19
DOCKED: REMARK   10  A    between atoms: C13_18  and  C15_20
DOCKED: REMARK   11  A    between atoms: N3_22  and  C16_23
DOCKED: REMARK   12  A    between atoms: C16_23  and  C17_24
DOCKED: REMARK   13  A    between atoms: C16_23  and  C21_28
DOCKED: REMARK   14  A    between atoms: C17_24  and  C18_25
DOCKED: REMARK   15  A    between atoms: C18_25  and  C19_26
DOCKED: REMARK   16  A    between atoms: C18_25  and  C20_27
DOCKED: REMARK   17  A    between atoms: C21_28  and  O5_29
DOCKED: REMARK   18  A    between atoms: C21_28  and  C22_30
DOCKED: REMARK   19  A    between atoms: C22_30  and  C23_31
DOCKED: REMARK   20  A    between atoms: N4_33  and  C24_34
DOCKED: REMARK   21  A    between atoms: C24_34  and  C25_35
DOCKED: REMARK   22  A    between atoms: C24_34  and  C34_48
DOCKED: REMARK   23  A    between atoms: N5_37  and  C26_38
DOCKED: REMARK   24  A    between atoms: C26_38  and  C27_39
DOCKED: REMARK   25  A    between atoms: C31_43  and  C32_44
DOCKED: REMARK   26  A    between atoms: C32_44  and  O9_46
DOCKED: REMARK   27  A    between atoms: C34_48  and  C35_49
DOCKED: REMARK   28  A    between atoms: C34_48  and  C36_50
DOCKED: REMARK                            x       y       z     vdW  Elec       q    Type
DOCKED: REMARK                         _______ _______ _______ _____ _____    ______ ____
DOCKED: USER                              x       y       z     vdW  Elec       q    Type
DOCKED: USER                           _______ _______ _______ _____ _____    ______ ____
DOCKED: ROOT
DOCKED: ATOM      1  C16 UNL     1      13.590  -4.053  -4.140 +0.00 +0.00    +0.102 C  
DOCKED: ENDROOT
DOCKED: BRANCH   1   4
DOCKED: ATOM      2  C15 UNL     1      13.488  -5.960  -2.514 +0.00 +0.00    +0.233 C  
DOCKED: ATOM      3  O4  UNL     1      14.038  -5.327  -1.612 +0.00 -0.00    -0.274 OA 
DOCKED: ATOM      4  N3  UNL     1      13.294  -5.446  -3.776 +0.00 -0.00    -0.308 N  
DOCKED: ATOM      5  H26 UNL     1      12.619  -5.903  -4.379 +0.00 +0.00    +0.149 HD 
DOCKED: BRANCH   2   6
DOCKED: ATOM      6  C13 UNL     1      12.890  -7.367  -2.311 +0.00 +0.00    +0.156 C  
DOCKED: ATOM      7  C14 UNL     1      13.577  -8.053  -1.134 +0.00 +0.00    +0.038 C  
DOCKED: BRANCH   6  10
DOCKED: ATOM      8  C12 UNL     1      12.302  -7.926  -4.638 +0.00 +0.00    +0.234 C  
DOCKED: ATOM      9  O3  UNL     1      11.420  -7.065  -4.679 +0.00 -0.00    -0.274 OA 
DOCKED: ATOM     10  N2  UNL     1      13.056  -8.170  -3.513 +0.00 -0.00    -0.303 N  
DOCKED: ATOM     11  H21 UNL     1      13.953  -8.622  -3.638 +0.00 +0.00    +0.149 HD 
DOCKED: BRANCH   8  12
DOCKED: ATOM     12  C5  UNL     1      12.631  -8.822  -5.854 +0.00 +0.00    +0.162 C  
DOCKED: BRANCH  12  13
DOCKED: ATOM     13  N1  UNL     1      12.981  -7.917  -6.952 +0.00 -0.00    -0.302 N  
DOCKED: ATOM     14  C6  UNL     1      12.819  -8.324  -8.268 +0.00 +0.00    +0.243 C  
DOCKED: ATOM     15  O1  UNL     1      12.582  -9.491  -8.577 +0.00 -0.00    -0.273 OA 
DOCKED: ATOM     16  H11 UNL     1      12.799  -6.937  -6.766 +0.00 +0.00    +0.150 HD 
DOCKED: BRANCH  14  17
DOCKED: ATOM     17  C7  UNL     1      12.954  -7.176  -9.295 +0.00 +0.00    +0.204 C  
DOCKED: ATOM     18  C8  UNL     1      14.235  -7.368 -10.120 +0.00 +0.00    +0.041 C  
DOCKED: ATOM     19  C9  UNL     1      15.460  -6.868  -9.365 +0.00 +0.00    +0.005 C  
DOCKED: ATOM     20  C10 UNL     1      15.241  -5.476  -8.776 +0.00 +0.00    +0.028 C  
DOCKED: ATOM     21  C11 UNL     1      13.836  -4.953  -9.035 +0.00 +0.00    +0.161 C  
DOCKED: ATOM     22  O2  UNL     1      12.858  -5.907  -8.646 +0.00 -0.00    -0.367 OA 
DOCKED: ENDBRANCH  14  17
DOCKED: ENDBRANCH  12  13
DOCKED: BRANCH  12  23
DOCKED: ATOM     23  C3  UNL     1      13.770  -9.841  -5.607 +0.00 +0.00    +0.015 C  
DOCKED: ATOM     24  C4  UNL     1      13.502 -11.200  -6.266 +0.00 +0.00    +0.010 C  
DOCKED: BRANCH  23  26
DOCKED: ATOM     25  C1  UNL     1      16.138  -9.214  -4.875 +0.00 +0.00    +0.004 C  
DOCKED: ATOM     26  C2  UNL     1      15.140  -9.273  -6.027 +0.00 +0.00    +0.002 C  
DOCKED: ENDBRANCH  23  26
DOCKED: ENDBRANCH  12  23
DOCKED: ENDBRANCH   8  12
DOCKED: ENDBRANCH   6  10
DOCKED: ENDBRANCH   2   6
DOCKED: ENDBRANCH   1   4
DOCKED: BRANCH   1  27
DOCKED: ATOM     27  C21 UNL     1      13.122  -3.788  -5.602 +0.00 +0.00    +0.143 C  
DOCKED: BRANCH  27  28
DOCKED: ATOM     28  O5  UNL     1      12.694  -5.038  -6.180 +0.00 -0.00    -0.389 OA 
DOCKED: ATOM     29  H38 UNL     1      11.830  -5.252  -5.783 +0.00 +0.00    +0.210 HD 
DOCKED: ENDBRANCH  27  28
DOCKED: BRANCH  27  30
DOCKED: ATOM     30  C22 UNL     1      11.971  -2.786  -5.704 +0.00 +0.00    +0.129 C  
DOCKED: BRANCH  30  31
DOCKED: ATOM     31  C23 UNL     1      10.787  -3.378  -6.433 +0.00 +0.00    +0.216 C  
DOCKED: ATOM     32  O6  UNL     1       9.668  -3.421  -5.930 +0.00 -0.00    -0.276 OA 
DOCKED: ATOM     33  N4  UNL     1      11.051  -3.778  -7.720 +0.00 -0.00    -0.304 N  
DOCKED: ATOM     34  H41 UNL     1      12.018  -4.004  -7.952 +0.00 +0.00    +0.149 HD 
DOCKED: BRANCH  33  35
DOCKED: ATOM     35  C24 UNL     1      10.047  -4.489  -8.510 +0.00 +0.00    +0.161 C  
DOCKED: BRANCH  35  36
DOCKED: ATOM     36  C25 UNL     1       9.819  -5.863  -7.853 +0.00 +0.00    +0.234 C  
DOCKED: ATOM     37  O7  UNL     1      10.726  -6.466  -7.278 +0.00 -0.00    -0.274 OA 
DOCKED: ATOM     38  N5  UNL     1       8.542  -6.361  -7.993 +0.00 -0.00    -0.310 N  
DOCKED: ATOM     39  H43 UNL     1       7.813  -5.731  -8.307 +0.00 +0.00    +0.149 HD 
DOCKED: BRANCH  38  40
DOCKED: ATOM     40  C26 UNL     1       8.111  -7.539  -7.273 +0.00 +0.00    +0.139 C  
DOCKED: BRANCH  40  41
DOCKED: ATOM     41  C27 UNL     1       8.088  -7.288  -5.785 +0.00 -0.00    -0.030 A  
DOCKED: ATOM     42  C28 UNL     1       7.271  -8.057  -4.940 +0.00 +0.00    +0.005 A  
DOCKED: ATOM     43  C29 UNL     1       7.252  -7.831  -3.563 +0.00 +0.00    +0.001 A  
DOCKED: ATOM     44  C30 UNL     1       8.042  -6.827  -3.012 +0.00 +0.00    +0.015 A  
DOCKED: ATOM     45  C31 UNL     1       8.856  -6.041  -3.839 +0.00 +0.00    +0.059 A  
DOCKED: ATOM     46  C33 UNL     1       8.879  -6.276  -5.221 +0.00 +0.00    +0.020 A  
DOCKED: BRANCH  45  47
DOCKED: ATOM     47  C32 UNL     1       9.677  -4.976  -3.208 +0.00 +0.00    +0.337 C  
DOCKED: ATOM     48  O8  UNL     1       9.392  -4.352  -2.203 +0.00 -0.00    -0.245 OA 
DOCKED: BRANCH  47  49
DOCKED: ATOM     49  O9  UNL     1      10.825  -4.740  -3.870 +0.00 -0.00    -0.477 OA 
DOCKED: ATOM     50  H49 UNL     1      10.637  -5.053  -4.780 +0.00 +0.00    +0.295 HD 
DOCKED: ENDBRANCH  47  49
DOCKED: ENDBRANCH  45  47
DOCKED: ENDBRANCH  40  41
DOCKED: ENDBRANCH  38  40
DOCKED: ENDBRANCH  35  36
DOCKED: BRANCH  35  51
DOCKED: ATOM     51  C34 UNL     1      10.432  -4.637  -9.997 +0.00 +0.00    +0.012 C  
DOCKED: ATOM     52  C35 UNL     1       9.206  -4.990 -10.844 +0.00 +0.00    +0.009 C  
DOCKED: ATOM     53  C36 UNL     1      11.118  -3.395 -10.575 +0.00 +0.00    +0.009 C  
DOCKED: ENDBRANCH  35  51
DOCKED: ENDBRANCH  33  35
DOCKED: ENDBRANCH  30  31
DOCKED: ENDBRANCH  27  30
DOCKED: ENDBRANCH   1  27
DOCKED: BRANCH   1  54
DOCKED: ATOM     54  C17 UNL     1      15.116  -3.840  -3.989 +0.00 +0.00    +0.028 C  
DOCKED: BRANCH  54  55
DOCKED: ATOM     55  C18 UNL     1      15.950  -4.340  -5.187 +0.00 -0.00    -0.015 C  
DOCKED: ATOM     56  C19 UNL     1      17.384  -3.816  -5.070 +0.00 +0.00    +0.007 C  
DOCKED: ATOM     57  C20 UNL     1      15.970  -5.861  -5.308 +0.00 +0.00    +0.007 C  
DOCKED: ENDBRANCH  54  55
DOCKED: ENDBRANCH   1  54
DOCKED: TORSDOF 21
DOCKED: TER
DOCKED: ENDMDL
________________________________________________________________________________


    FINAL DOCKED STATE:
    ________________________


Run:   9 / 20
Time taken for this run:   1.466s

DOCKED: MODEL        9
DOCKED: USER    Run = 9
DOCKED: USER
DOCKED: USER    Estimated Free Energy of Binding    =  +6.26 kcal/mol  [=(1)+(2)+(3)-(4)]
DOCKED: USER
DOCKED: USER    (1) Final Intermolecular Energy     =  +0.00 kcal/mol
DOCKED: USER        vdW + Hbond + desolv Energy     =  +0.00 kcal/mol
DOCKED: USER        Electrostatic Energy            =  +0.00 kcal/mol
DOCKED: USER        Moving Ligand-Fixed Receptor    =  +0.00 kcal/mol
DOCKED: USER        Moving Ligand-Moving Receptor   =  +0.00 kcal/mol
DOCKED: USER    (2) Final Total Internal Energy     = -15.65 kcal/mol
DOCKED: USER    (3) Torsional Free Energy           =  +6.26 kcal/mol
DOCKED: USER    (4) Unbound System's Energy         = -15.65 kcal/mol
DOCKED: USER
DOCKED: USER
DOCKED: REMARK  Name = ligands/ligand_22.pdb
DOCKED: REMARK  28 active torsions:
DOCKED: REMARK  status: ('A' for Active; 'I' for Inactive)
DOCKED: REMARK    1  A    between atoms: C1_1  and  C2_2
DOCKED: REMARK    2  A    between atoms: C2_2  and  C3_3
DOCKED: REMARK    3  A    between atoms: C3_3  and  C4_4
DOCKED: REMARK    4  A    between atoms: C3_3  and  C5_5
DOCKED: REMARK    5  A    between atoms: C5_5  and  N1_6
DOCKED: REMARK    6  A    between atoms: C5_5  and  C12_15
DOCKED: REMARK    7  A    between atoms: C6_7  and  C7_9
DOCKED: REMARK    8  A    between atoms: N2_17  and  C13_18
DOCKED: REMARK    9  A    between atoms: C13_18  and  C14_19
DOCKED: REMARK   10  A    between atoms: C13_18  and  C15_20
DOCKED: REMARK   11  A    between atoms: N3_22  and  C16_23
DOCKED: REMARK   12  A    between atoms: C16_23  and  C17_24
DOCKED: REMARK   13  A    between atoms: C16_23  and  C21_28
DOCKED: REMARK   14  A    between atoms: C17_24  and  C18_25
DOCKED: REMARK   15  A    between atoms: C18_25  and  C19_26
DOCKED: REMARK   16  A    between atoms: C18_25  and  C20_27
DOCKED: REMARK   17  A    between atoms: C21_28  and  O5_29
DOCKED: REMARK   18  A    between atoms: C21_28  and  C22_30
DOCKED: REMARK   19  A    between atoms: C22_30  and  C23_31
DOCKED: REMARK   20  A    between atoms: N4_33  and  C24_34
DOCKED: REMARK   21  A    between atoms: C24_34  and  C25_35
DOCKED: REMARK   22  A    between atoms: C24_34  and  C34_48
DOCKED: REMARK   23  A    between atoms: N5_37  and  C26_38
DOCKED: REMARK   24  A    between atoms: C26_38  and  C27_39
DOCKED: REMARK   25  A    between atoms: C31_43  and  C32_44
DOCKED: REMARK   26  A    between atoms: C32_44  and  O9_46
DOCKED: REMARK   27  A    between atoms: C34_48  and  C35_49
DOCKED: REMARK   28  A    between atoms: C34_48  and  C36_50
DOCKED: REMARK                            x       y       z     vdW  Elec       q    Type
DOCKED: REMARK                         _______ _______ _______ _____ _____    ______ ____
DOCKED: USER                              x       y       z     vdW  Elec       q    Type
DOCKED: USER                           _______ _______ _______ _____ _____    ______ ____
DOCKED: ROOT
DOCKED: ATOM      1  C16 UNL     1       9.969  -5.986  -0.706 +0.00 +0.00    +0.102 C  
DOCKED: ENDROOT
DOCKED: BRANCH   1   4
DOCKED: ATOM      2  C15 UNL     1       9.826  -5.271   1.694 +0.00 +0.00    +0.233 C  
DOCKED: ATOM      3  O4  UNL     1      10.180  -4.116   1.456 +0.00 -0.00    -0.274 OA 
DOCKED: ATOM      4  N3  UNL     1       9.762  -6.248   0.725 +0.00 -0.00    -0.308 N  
DOCKED: ATOM      5  H26 UNL     1       9.226  -7.085   0.925 +0.00 +0.00    +0.149 HD 
DOCKED: BRANCH   2   6
DOCKED: ATOM      6  C13 UNL     1       9.345  -5.735   3.084 +0.00 +0.00    +0.156 C  
DOCKED: ATOM      7  C14 UNL     1      10.537  -6.215   3.907 +0.00 +0.00    +0.038 C  
DOCKED: BRANCH   6  10
DOCKED: ATOM      8  C12 UNL     1       8.773  -8.098   2.683 +0.00 +0.00    +0.234 C  
DOCKED: ATOM      9  O3  UNL     1       9.950  -8.406   2.482 +0.00 -0.00    -0.274 OA 
DOCKED: ATOM     10  N2  UNL     1       8.373  -6.811   2.955 +0.00 -0.00    -0.303 N  
DOCKED: ATOM     11  H21 UNL     1       7.489  -6.684   3.431 +0.00 +0.00    +0.149 HD 
DOCKED: BRANCH   8  12
DOCKED: ATOM     12  C5  UNL     1       7.633  -9.142   2.632 +0.00 +0.00    +0.162 C  
DOCKED: BRANCH  12  13
DOCKED: ATOM     13  N1  UNL     1       6.746  -8.734   1.539 +0.00 -0.00    -0.302 N  
DOCKED: ATOM     14  C6  UNL     1       5.388  -9.003   1.607 +0.00 +0.00    +0.243 C  
DOCKED: ATOM     15  O1  UNL     1       4.903  -9.753   2.453 +0.00 -0.00    -0.273 OA 
DOCKED: ATOM     16  H11 UNL     1       7.002  -7.861   1.091 +0.00 +0.00    +0.150 HD 
DOCKED: BRANCH  14  17
DOCKED: ATOM     17  C7  UNL     1       4.553  -8.268   0.533 +0.00 +0.00    +0.204 C  
DOCKED: ATOM     18  C8  UNL     1       3.643  -9.271  -0.190 +0.00 +0.00    +0.041 C  
DOCKED: ATOM     19  C9  UNL     1       4.404 -10.030  -1.269 +0.00 +0.00    +0.005 C  
DOCKED: ATOM     20  C10 UNL     1       5.219  -9.096  -2.161 +0.00 +0.00    +0.028 C  
DOCKED: ATOM     21  C11 UNL     1       5.122  -7.643  -1.719 +0.00 +0.00    +0.161 C  
DOCKED: ATOM     22  O2  UNL     1       5.401  -7.513  -0.333 +0.00 -0.00    -0.367 OA 
DOCKED: ENDBRANCH  14  17
DOCKED: ENDBRANCH  12  13
DOCKED: BRANCH  12  23
DOCKED: ATOM     23  C3  UNL     1       8.111 -10.600   2.427 +0.00 +0.00    +0.015 C  
DOCKED: ATOM     24  C4  UNL     1       7.389 -11.595   3.344 +0.00 +0.00    +0.010 C  
DOCKED: BRANCH  23  26
DOCKED: ATOM     25  C1  UNL     1       9.001 -10.288   0.050 +0.00 +0.00    +0.004 C  
DOCKED: ATOM     26  C2  UNL     1       8.014 -11.026   0.948 +0.00 +0.00    +0.002 C  
DOCKED: ENDBRANCH  23  26
DOCKED: ENDBRANCH  12  23
DOCKED: ENDBRANCH   8  12
DOCKED: ENDBRANCH   6  10
DOCKED: ENDBRANCH   2   6
DOCKED: ENDBRANCH   1   4
DOCKED: BRANCH   1  27
DOCKED: ATOM     27  C21 UNL     1       8.781  -6.580  -1.520 +0.00 +0.00    +0.143 C  
DOCKED: BRANCH  27  28
DOCKED: ATOM     28  O5  UNL     1       7.898  -7.264  -0.608 +0.00 -0.00    -0.389 OA 
DOCKED: ATOM     29  H38 UNL     1       7.402  -6.578  -0.126 +0.00 +0.00    +0.210 HD 
DOCKED: ENDBRANCH  27  28
DOCKED: BRANCH  27  30
DOCKED: ATOM     30  C22 UNL     1       7.973  -5.527  -2.280 +0.00 +0.00    +0.129 C  
DOCKED: BRANCH  30  31
DOCKED: ATOM     31  C23 UNL     1       7.348  -4.524  -1.338 +0.00 +0.00    +0.216 C  
DOCKED: ATOM     32  O6  UNL     1       7.760  -3.371  -1.248 +0.00 -0.00    -0.276 OA 
DOCKED: ATOM     33  N4  UNL     1       6.242  -4.985  -0.667 +0.00 -0.00    -0.304 N  
DOCKED: ATOM     34  H41 UNL     1       6.152  -5.993  -0.546 +0.00 +0.00    +0.149 HD 
DOCKED: BRANCH  33  35
DOCKED: ATOM     35  C24 UNL     1       5.604  -4.181   0.376 +0.00 +0.00    +0.161 C  
DOCKED: BRANCH  35  36
DOCKED: ATOM     36  C25 UNL     1       5.860  -4.876   1.726 +0.00 +0.00    +0.234 C  
DOCKED: ATOM     37  O7  UNL     1       6.325  -6.014   1.793 +0.00 -0.00    -0.274 OA 
DOCKED: ATOM     38  N5  UNL     1       5.496  -4.135   2.830 +0.00 -0.00    -0.310 N  
DOCKED: ATOM     39  H43 UNL     1       5.303  -3.148   2.703 +0.00 +0.00    +0.149 HD 
DOCKED: BRANCH  38  40
DOCKED: ATOM     40  C26 UNL     1       5.849  -4.556   4.167 +0.00 +0.00    +0.139 C  
DOCKED: BRANCH  40  41
DOCKED: ATOM     41  C27 UNL     1       5.304  -5.931   4.466 +0.00 -0.00    -0.030 A  
DOCKED: ATOM     42  C28 UNL     1       6.036  -6.838   5.249 +0.00 +0.00    +0.005 A  
DOCKED: ATOM     43  C29 UNL     1       5.532  -8.109   5.532 +0.00 +0.00    +0.001 A  
DOCKED: ATOM     44  C30 UNL     1       4.294  -8.493   5.028 +0.00 +0.00    +0.015 A  
DOCKED: ATOM     45  C31 UNL     1       3.552  -7.607   4.236 +0.00 +0.00    +0.059 A  
DOCKED: ATOM     46  C33 UNL     1       4.058  -6.329   3.960 +0.00 +0.00    +0.020 A  
DOCKED: BRANCH  45  47
DOCKED: ATOM     47  C32 UNL     1       2.238  -8.063   3.713 +0.00 +0.00    +0.337 C  
DOCKED: ATOM     48  O8  UNL     1       1.147  -7.661   4.070 +0.00 -0.00    -0.245 OA 
DOCKED: BRANCH  47  49
DOCKED: ATOM     49  O9  UNL     1       2.353  -9.006   2.761 +0.00 -0.00    -0.477 OA 
DOCKED: ATOM     50  H49 UNL     1       3.211  -9.436   2.962 +0.00 +0.00    +0.295 HD 
DOCKED: ENDBRANCH  47  49
DOCKED: ENDBRANCH  45  47
DOCKED: ENDBRANCH  40  41
DOCKED: ENDBRANCH  38  40
DOCKED: ENDBRANCH  35  36
DOCKED: BRANCH  35  51
DOCKED: ATOM     51  C34 UNL     1       4.095  -3.959   0.138 +0.00 +0.00    +0.012 C  
DOCKED: ATOM     52  C35 UNL     1       3.790  -3.860  -1.360 +0.00 +0.00    +0.009 C  
DOCKED: ATOM     53  C36 UNL     1       3.214  -5.038   0.774 +0.00 +0.00    +0.009 C  
DOCKED: ENDBRANCH  35  51
DOCKED: ENDBRANCH  33  35
DOCKED: ENDBRANCH  30  31
DOCKED: ENDBRANCH  27  30
DOCKED: ENDBRANCH   1  27
DOCKED: BRANCH   1  54
DOCKED: ATOM     54  C17 UNL     1      11.314  -6.635  -1.115 +0.00 +0.00    +0.028 C  
DOCKED: BRANCH  54  55
DOCKED: ATOM     55  C18 UNL     1      11.614  -7.974  -0.410 +0.00 -0.00    -0.015 C  
DOCKED: ATOM     56  C19 UNL     1      12.088  -9.003  -1.440 +0.00 +0.00    +0.007 C  
DOCKED: ATOM     57  C20 UNL     1      12.654  -7.846   0.699 +0.00 +0.00    +0.007 C  
DOCKED: ENDBRANCH  54  55
DOCKED: ENDBRANCH   1  54
DOCKED: TORSDOF 21
DOCKED: TER
DOCKED: ENDMDL
________________________________________________________________________________


    FINAL DOCKED STATE:
    ________________________


Run:   10 / 20
Time taken for this run:   1.466s

DOCKED: MODEL        10
DOCKED: USER    Run = 10
DOCKED: USER
DOCKED: USER    Estimated Free Energy of Binding    =  +6.26 kcal/mol  [=(1)+(2)+(3)-(4)]
DOCKED: USER
DOCKED: USER    (1) Final Intermolecular Energy     =  +0.00 kcal/mol
DOCKED: USER        vdW + Hbond + desolv Energy     =  +0.00 kcal/mol
DOCKED: USER        Electrostatic Energy            =  +0.00 kcal/mol
DOCKED: USER        Moving Ligand-Fixed Receptor    =  +0.00 kcal/mol
DOCKED: USER        Moving Ligand-Moving Receptor   =  +0.00 kcal/mol
DOCKED: USER    (2) Final Total Internal Energy     = -16.25 kcal/mol
DOCKED: USER    (3) Torsional Free Energy           =  +6.26 kcal/mol
DOCKED: USER    (4) Unbound System's Energy         = -16.25 kcal/mol
DOCKED: USER
DOCKED: USER
DOCKED: REMARK  Name = ligands/ligand_22.pdb
DOCKED: REMARK  28 active torsions:
DOCKED: REMARK  status: ('A' for Active; 'I' for Inactive)
DOCKED: REMARK    1  A    between atoms: C1_1  and  C2_2
DOCKED: REMARK    2  A    between atoms: C2_2  and  C3_3
DOCKED: REMARK    3  A    between atoms: C3_3  and  C4_4
DOCKED: REMARK    4  A    between atoms: C3_3  and  C5_5
DOCKED: REMARK    5  A    between atoms: C5_5  and  N1_6
DOCKED: REMARK    6  A    between atoms: C5_5  and  C12_15
DOCKED: REMARK    7  A    between atoms: C6_7  and  C7_9
DOCKED: REMARK    8  A    between atoms: N2_17  and  C13_18
DOCKED: REMARK    9  A    between atoms: C13_18  and  C14_19
DOCKED: REMARK   10  A    between atoms: C13_18  and  C15_20
DOCKED: REMARK   11  A    between atoms: N3_22  and  C16_23
DOCKED: REMARK   12  A    between atoms: C16_23  and  C17_24
DOCKED: REMARK   13  A    between atoms: C16_23  and  C21_28
DOCKED: REMARK   14  A    between atoms: C17_24  and  C18_25
DOCKED: REMARK   15  A    between atoms: C18_25  and  C19_26
DOCKED: REMARK   16  A    between atoms: C18_25  and  C20_27
DOCKED: REMARK   17  A    between atoms: C21_28  and  O5_29
DOCKED: REMARK   18  A    between atoms: C21_28  and  C22_30
DOCKED: REMARK   19  A    between atoms: C22_30  and  C23_31
DOCKED: REMARK   20  A    between atoms: N4_33  and  C24_34
DOCKED: REMARK   21  A    between atoms: C24_34  and  C25_35
DOCKED: REMARK   22  A    between atoms: C24_34  and  C34_48
DOCKED: REMARK   23  A    between atoms: N5_37  and  C26_38
DOCKED: REMARK   24  A    between atoms: C26_38  and  C27_39
DOCKED: REMARK   25  A    between atoms: C31_43  and  C32_44
DOCKED: REMARK   26  A    between atoms: C32_44  and  O9_46
DOCKED: REMARK   27  A    between atoms: C34_48  and  C35_49
DOCKED: REMARK   28  A    between atoms: C34_48  and  C36_50
DOCKED: REMARK                            x       y       z     vdW  Elec       q    Type
DOCKED: REMARK                         _______ _______ _______ _____ _____    ______ ____
DOCKED: USER                              x       y       z     vdW  Elec       q    Type
DOCKED: USER                           _______ _______ _______ _____ _____    ______ ____
DOCKED: ROOT
DOCKED: ATOM      1  C16 UNL     1       9.704  -8.477   2.295 +0.00 +0.00    +0.102 C  
DOCKED: ENDROOT
DOCKED: BRANCH   1   4
DOCKED: ATOM      2  C15 UNL     1      11.343  -9.801   0.934 +0.00 +0.00    +0.233 C  
DOCKED: ATOM      3  O4  UNL     1      10.534 -10.694   0.678 +0.00 -0.00    -0.274 OA 
DOCKED: ATOM      4  N3  UNL     1      11.046  -8.736   1.755 +0.00 -0.00    -0.308 N  
DOCKED: ATOM      5  H26 UNL     1      11.648  -7.921   1.717 +0.00 +0.00    +0.149 HD 
DOCKED: BRANCH   2   6
DOCKED: ATOM      6  C13 UNL     1      12.750  -9.736   0.308 +0.00 +0.00    +0.156 C  
DOCKED: ATOM      7  C14 UNL     1      13.807  -9.815   1.406 +0.00 +0.00    +0.038 C  
DOCKED: BRANCH   6  10
DOCKED: ATOM      8  C12 UNL     1      13.094  -7.298   0.197 +0.00 +0.00    +0.234 C  
DOCKED: ATOM      9  O3  UNL     1      13.070  -7.185   1.425 +0.00 -0.00    -0.274 OA 
DOCKED: ATOM     10  N2  UNL     1      12.917  -8.501  -0.446 +0.00 -0.00    -0.303 N  
DOCKED: ATOM     11  H21 UNL     1      13.277  -8.589  -1.388 +0.00 +0.00    +0.149 HD 
DOCKED: BRANCH   8  12
DOCKED: ATOM     12  C5  UNL     1      13.315  -6.084  -0.735 +0.00 +0.00    +0.162 C  
DOCKED: BRANCH  12  13
DOCKED: ATOM     13  N1  UNL     1      12.638  -4.948  -0.103 +0.00 -0.00    -0.302 N  
DOCKED: ATOM     14  C6  UNL     1      12.316  -3.826  -0.850 +0.00 +0.00    +0.243 C  
DOCKED: ATOM     15  O1  UNL     1      12.749  -3.640  -1.986 +0.00 -0.00    -0.273 OA 
DOCKED: ATOM     16  H11 UNL     1      11.977  -5.202   0.623 +0.00 +0.00    +0.150 HD 
DOCKED: BRANCH  14  17
DOCKED: ATOM     17  C7  UNL     1      11.362  -2.848  -0.125 +0.00 +0.00    +0.204 C  
DOCKED: ATOM     18  C8  UNL     1      12.167  -1.678   0.458 +0.00 +0.00    +0.041 C  
DOCKED: ATOM     19  C9  UNL     1      12.819  -2.059   1.781 +0.00 +0.00    +0.005 C  
DOCKED: ATOM     20  C10 UNL     1      11.834  -2.738   2.730 +0.00 +0.00    +0.028 C  
DOCKED: ATOM     21  C11 UNL     1      10.460  -2.922   2.104 +0.00 +0.00    +0.161 C  
DOCKED: ATOM     22  O2  UNL     1      10.561  -3.544   0.831 +0.00 -0.00    -0.367 OA 
DOCKED: ENDBRANCH  14  17
DOCKED: ENDBRANCH  12  13
DOCKED: BRANCH  12  23
DOCKED: ATOM     23  C3  UNL     1      14.803  -5.748  -1.003 +0.00 +0.00    +0.015 C  
DOCKED: ATOM     24  C4  UNL     1      15.728  -6.211   0.128 +0.00 +0.00    +0.010 C  
DOCKED: BRANCH  23  26
DOCKED: ATOM     25  C1  UNL     1      14.278  -6.006  -3.493 +0.00 +0.00    +0.004 C  
DOCKED: ATOM     26  C2  UNL     1      15.269  -6.290  -2.369 +0.00 +0.00    +0.002 C  
DOCKED: ENDBRANCH  23  26
DOCKED: ENDBRANCH  12  23
DOCKED: ENDBRANCH   8  12
DOCKED: ENDBRANCH   6  10
DOCKED: ENDBRANCH   2   6
DOCKED: ENDBRANCH   1   4
DOCKED: BRANCH   1  27
DOCKED: ATOM     27  C21 UNL     1       9.159  -7.140   1.711 +0.00 +0.00    +0.143 C  
DOCKED: BRANCH  27  28
DOCKED: ATOM     28  O5  UNL     1      10.221  -6.164   1.733 +0.00 -0.00    -0.389 OA 
DOCKED: ATOM     29  H38 UNL     1      10.002  -5.493   1.062 +0.00 +0.00    +0.210 HD 
DOCKED: ENDBRANCH  27  28
DOCKED: BRANCH  27  30
DOCKED: ATOM     30  C22 UNL     1       8.643  -7.263   0.276 +0.00 +0.00    +0.129 C  
DOCKED: BRANCH  30  31
DOCKED: ATOM     31  C23 UNL     1       9.725  -6.942  -0.729 +0.00 +0.00    +0.216 C  
DOCKED: ATOM     32  O6  UNL     1      10.351  -5.886  -0.697 +0.00 -0.00    -0.276 OA 
DOCKED: ATOM     33  N4  UNL     1      10.001  -7.956  -1.614 +0.00 -0.00    -0.304 N  
DOCKED: ATOM     34  H41 UNL     1       9.266  -8.641  -1.786 +0.00 +0.00    +0.149 HD 
DOCKED: BRANCH  33  35
DOCKED: ATOM     35  C24 UNL     1      10.927  -7.753  -2.727 +0.00 +0.00    +0.161 C  
DOCKED: BRANCH  35  36
DOCKED: ATOM     36  C25 UNL     1      10.350  -6.641  -3.622 +0.00 +0.00    +0.234 C  
DOCKED: ATOM     37  O7  UNL     1       9.529  -6.881  -4.509 +0.00 -0.00    -0.274 OA 
DOCKED: ATOM     38  N5  UNL     1      10.850  -5.383  -3.367 +0.00 -0.00    -0.310 N  
DOCKED: ATOM     39  H43 UNL     1      11.370  -5.238  -2.509 +0.00 +0.00    +0.149 HD 
DOCKED: BRANCH  38  40
DOCKED: ATOM     40  C26 UNL     1      10.274  -4.206  -3.978 +0.00 +0.00    +0.139 C  
DOCKED: BRANCH  40  41
DOCKED: ATOM     41  C27 UNL     1       9.475  -3.408  -2.977 +0.00 -0.00    -0.030 A  
DOCKED: ATOM     42  C28 UNL     1       9.411  -2.008  -3.062 +0.00 +0.00    +0.005 A  
DOCKED: ATOM     43  C29 UNL     1       8.668  -1.268  -2.141 +0.00 +0.00    +0.001 A  
DOCKED: ATOM     44  C30 UNL     1       7.988  -1.917  -1.115 +0.00 +0.00    +0.015 A  
DOCKED: ATOM     45  C31 UNL     1       8.047  -3.313  -1.006 +0.00 +0.00    +0.059 A  
DOCKED: ATOM     46  C33 UNL     1       8.788  -4.054  -1.938 +0.00 +0.00    +0.020 A  
DOCKED: BRANCH  45  47
DOCKED: ATOM     47  C32 UNL     1       7.311  -3.963   0.109 +0.00 +0.00    +0.337 C  
DOCKED: ATOM     48  O8  UNL     1       6.102  -4.036   0.222 +0.00 -0.00    -0.245 OA 
DOCKED: BRANCH  47  49
DOCKED: ATOM     49  O9  UNL     1       8.129  -4.495   1.035 +0.00 -0.00    -0.477 OA 
DOCKED: ATOM     50  H49 UNL     1       8.915  -4.772   0.520 +0.00 +0.00    +0.295 HD 
DOCKED: ENDBRANCH  47  49
DOCKED: ENDBRANCH  45  47
DOCKED: ENDBRANCH  40  41
DOCKED: ENDBRANCH  38  40
DOCKED: ENDBRANCH  35  36
DOCKED: BRANCH  35  51
DOCKED: ATOM     51  C34 UNL     1      11.198  -9.039  -3.538 +0.00 +0.00    +0.012 C  
DOCKED: ATOM     52  C35 UNL     1      12.665  -9.111  -3.969 +0.00 +0.00    +0.009 C  
DOCKED: ATOM     53  C36 UNL     1      10.816 -10.321  -2.790 +0.00 +0.00    +0.009 C  
DOCKED: ENDBRANCH  35  51
DOCKED: ENDBRANCH  33  35
DOCKED: ENDBRANCH  30  31
DOCKED: ENDBRANCH  27  30
DOCKED: ENDBRANCH   1  27
DOCKED: BRANCH   1  54
DOCKED: ATOM     54  C17 UNL     1       9.818  -8.414   3.837 +0.00 +0.00    +0.028 C  
DOCKED: BRANCH  54  55
DOCKED: ATOM     55  C18 UNL     1      11.252  -8.183   4.359 +0.00 -0.00    -0.015 C  
DOCKED: ATOM     56  C19 UNL     1      11.558  -6.683   4.377 +0.00 +0.00    +0.007 C  
DOCKED: ATOM     57  C20 UNL     1      11.483  -8.768   5.750 +0.00 +0.00    +0.007 C  
DOCKED: ENDBRANCH  54  55
DOCKED: ENDBRANCH   1  54
DOCKED: TORSDOF 21
DOCKED: TER
DOCKED: ENDMDL
________________________________________________________________________________


    FINAL DOCKED STATE:
    ________________________


Run:   11 / 20
Time taken for this run:   1.466s

DOCKED: MODEL        11
DOCKED: USER    Run = 11
DOCKED: USER
DOCKED: USER    Estimated Free Energy of Binding    =  +6.26 kcal/mol  [=(1)+(2)+(3)-(4)]
DOCKED: USER
DOCKED: USER    (1) Final Intermolecular Energy     =  +0.00 kcal/mol
DOCKED: USER        vdW + Hbond + desolv Energy     =  +0.00 kcal/mol
DOCKED: USER        Electrostatic Energy            =  +0.00 kcal/mol
DOCKED: USER        Moving Ligand-Fixed Receptor    =  +0.00 kcal/mol
DOCKED: USER        Moving Ligand-Moving Receptor   =  +0.00 kcal/mol
DOCKED: USER    (2) Final Total Internal Energy     = -15.98 kcal/mol
DOCKED: USER    (3) Torsional Free Energy           =  +6.26 kcal/mol
DOCKED: USER    (4) Unbound System's Energy         = -15.98 kcal/mol
DOCKED: USER
DOCKED: USER
DOCKED: REMARK  Name = ligands/ligand_22.pdb
DOCKED: REMARK  28 active torsions:
DOCKED: REMARK  status: ('A' for Active; 'I' for Inactive)
DOCKED: REMARK    1  A    between atoms: C1_1  and  C2_2
DOCKED: REMARK    2  A    between atoms: C2_2  and  C3_3
DOCKED: REMARK    3  A    between atoms: C3_3  and  C4_4
DOCKED: REMARK    4  A    between atoms: C3_3  and  C5_5
DOCKED: REMARK    5  A    between atoms: C5_5  and  N1_6
DOCKED: REMARK    6  A    between atoms: C5_5  and  C12_15
DOCKED: REMARK    7  A    between atoms: C6_7  and  C7_9
DOCKED: REMARK    8  A    between atoms: N2_17  and  C13_18
DOCKED: REMARK    9  A    between atoms: C13_18  and  C14_19
DOCKED: REMARK   10  A    between atoms: C13_18  and  C15_20
DOCKED: REMARK   11  A    between atoms: N3_22  and  C16_23
DOCKED: REMARK   12  A    between atoms: C16_23  and  C17_24
DOCKED: REMARK   13  A    between atoms: C16_23  and  C21_28
DOCKED: REMARK   14  A    between atoms: C17_24  and  C18_25
DOCKED: REMARK   15  A    between atoms: C18_25  and  C19_26
DOCKED: REMARK   16  A    between atoms: C18_25  and  C20_27
DOCKED: REMARK   17  A    between atoms: C21_28  and  O5_29
DOCKED: REMARK   18  A    between atoms: C21_28  and  C22_30
DOCKED: REMARK   19  A    between atoms: C22_30  and  C23_31
DOCKED: REMARK   20  A    between atoms: N4_33  and  C24_34
DOCKED: REMARK   21  A    between atoms: C24_34  and  C25_35
DOCKED: REMARK   22  A    between atoms: C24_34  and  C34_48
DOCKED: REMARK   23  A    between atoms: N5_37  and  C26_38
DOCKED: REMARK   24  A    between atoms: C26_38  and  C27_39
DOCKED: REMARK   25  A    between atoms: C31_43  and  C32_44
DOCKED: REMARK   26  A    between atoms: C32_44  and  O9_46
DOCKED: REMARK   27  A    between atoms: C34_48  and  C35_49
DOCKED: REMARK   28  A    between atoms: C34_48  and  C36_50
DOCKED: REMARK                            x       y       z     vdW  Elec       q    Type
DOCKED: REMARK                         _______ _______ _______ _____ _____    ______ ____
DOCKED: USER                              x       y       z     vdW  Elec       q    Type
DOCKED: USER                           _______ _______ _______ _____ _____    ______ ____
DOCKED: ROOT
DOCKED: ATOM      1  C16 UNL     1       7.713   4.117  -0.972 +0.00 +0.00    +0.102 C  
DOCKED: ENDROOT
DOCKED: BRANCH   1   4
DOCKED: ATOM      2  C15 UNL     1       9.744   5.526  -0.549 +0.00 +0.00    +0.233 C  
DOCKED: ATOM      3  O4  UNL     1       9.322   5.958   0.524 +0.00 -0.00    -0.274 OA 
DOCKED: ATOM      4  N3  UNL     1       9.009   4.691  -1.360 +0.00 -0.00    -0.308 N  
DOCKED: ATOM      5  H26 UNL     1       9.499   4.173  -2.082 +0.00 +0.00    +0.149 HD 
DOCKED: BRANCH   2   6
DOCKED: ATOM      6  C13 UNL     1      11.168   5.811  -1.069 +0.00 +0.00    +0.156 C  
DOCKED: ATOM      7  C14 UNL     1      11.155   7.058  -1.949 +0.00 +0.00    +0.038 C  
DOCKED: BRANCH   6  10
DOCKED: ATOM      8  C12 UNL     1      11.292   4.483  -3.141 +0.00 +0.00    +0.234 C  
DOCKED: ATOM      9  O3  UNL     1      10.483   5.211  -3.721 +0.00 -0.00    -0.274 OA 
DOCKED: ATOM     10  N2  UNL     1      11.669   4.677  -1.832 +0.00 -0.00    -0.303 N  
DOCKED: ATOM     11  H21 UNL     1      12.551   4.283  -1.534 +0.00 +0.00    +0.149 HD 
DOCKED: BRANCH   8  12
DOCKED: ATOM     12  C5  UNL     1      11.950   3.270  -3.839 +0.00 +0.00    +0.162 C  
DOCKED: BRANCH  12  13
DOCKED: ATOM     13  N1  UNL     1      11.422   2.074  -3.177 +0.00 -0.00    -0.302 N  
DOCKED: ATOM     14  C6  UNL     1      12.267   1.019  -2.868 +0.00 +0.00    +0.243 C  
DOCKED: ATOM     15  O1  UNL     1      13.415   0.940  -3.303 +0.00 -0.00    -0.273 OA 
DOCKED: ATOM     16  H11 UNL     1      10.677   2.254  -2.512 +0.00 +0.00    +0.150 HD 
DOCKED: BRANCH  14  17
DOCKED: ATOM     17  C7  UNL     1      11.632  -0.031  -1.927 +0.00 +0.00    +0.204 C  
DOCKED: ATOM     18  C8  UNL     1      11.856  -1.439  -2.497 +0.00 +0.00    +0.041 C  
DOCKED: ATOM     19  C9  UNL     1      10.838  -1.764  -3.583 +0.00 +0.00    +0.005 C  
DOCKED: ATOM     20  C10 UNL     1       9.411  -1.431  -3.149 +0.00 +0.00    +0.028 C  
DOCKED: ATOM     21  C11 UNL     1       9.359  -0.802  -1.765 +0.00 +0.00    +0.161 C  
DOCKED: ATOM     22  O2  UNL     1      10.264   0.288  -1.667 +0.00 -0.00    -0.367 OA 
DOCKED: ENDBRANCH  14  17
DOCKED: ENDBRANCH  12  13
DOCKED: BRANCH  12  23
DOCKED: ATOM     23  C3  UNL     1      11.701   3.199  -5.366 +0.00 +0.00    +0.015 C  
DOCKED: ATOM     24  C4  UNL     1      12.982   2.926  -6.163 +0.00 +0.00    +0.010 C  
DOCKED: BRANCH  23  26
DOCKED: ATOM     25  C1  UNL     1       9.201   2.662  -5.320 +0.00 +0.00    +0.004 C  
DOCKED: ATOM     26  C2  UNL     1      10.595   2.183  -5.713 +0.00 +0.00    +0.002 C  
DOCKED: ENDBRANCH  23  26
DOCKED: ENDBRANCH  12  23
DOCKED: ENDBRANCH   8  12
DOCKED: ENDBRANCH   6  10
DOCKED: ENDBRANCH   2   6
DOCKED: ENDBRANCH   1   4
DOCKED: BRANCH   1  27
DOCKED: ATOM     27  C21 UNL     1       7.329   2.981  -1.967 +0.00 +0.00    +0.143 C  
DOCKED: BRANCH  27  28
DOCKED: ATOM     28  O5  UNL     1       8.527   2.263  -2.326 +0.00 -0.00    -0.389 OA 
DOCKED: ATOM     29  H38 UNL     1       8.796   1.751  -1.541 +0.00 +0.00    +0.210 HD 
DOCKED: ENDBRANCH  27  28
DOCKED: BRANCH  27  30
DOCKED: ATOM     30  C22 UNL     1       6.317   1.986  -1.399 +0.00 +0.00    +0.129 C  
DOCKED: BRANCH  30  31
DOCKED: ATOM     31  C23 UNL     1       6.917   1.167  -0.280 +0.00 +0.00    +0.216 C  
DOCKED: ATOM     32  O6  UNL     1       8.125   1.142  -0.066 +0.00 -0.00    -0.276 OA 
DOCKED: ATOM     33  N4  UNL     1       5.996   0.533   0.519 +0.00 -0.00    -0.304 N  
DOCKED: ATOM     34  H41 UNL     1       5.080   0.340   0.117 +0.00 +0.00    +0.149 HD 
DOCKED: BRANCH  33  35
DOCKED: ATOM     35  C24 UNL     1       6.420  -0.401   1.562 +0.00 +0.00    +0.161 C  
DOCKED: BRANCH  35  36
DOCKED: ATOM     36  C25 UNL     1       6.882   0.428   2.774 +0.00 +0.00    +0.234 C  
DOCKED: ATOM     37  O7  UNL     1       7.078  -0.085   3.876 +0.00 -0.00    -0.274 OA 
DOCKED: ATOM     38  N5  UNL     1       7.021   1.777   2.527 +0.00 -0.00    -0.310 N  
DOCKED: ATOM     39  H43 UNL     1       7.027   2.090   1.563 +0.00 +0.00    +0.149 HD 
DOCKED: BRANCH  38  40
DOCKED: ATOM     40  C26 UNL     1       7.631   2.661   3.495 +0.00 +0.00    +0.139 C  
DOCKED: BRANCH  40  41
DOCKED: ATOM     41  C27 UNL     1       9.056   2.983   3.116 +0.00 -0.00    -0.030 A  
DOCKED: ATOM     42  C28 UNL     1       9.926   3.583   4.039 +0.00 +0.00    +0.005 A  
DOCKED: ATOM     43  C29 UNL     1      11.246   3.877   3.693 +0.00 +0.00    +0.001 A  
DOCKED: ATOM     44  C30 UNL     1      11.711   3.583   2.415 +0.00 +0.00    +0.015 A  
DOCKED: ATOM     45  C31 UNL     1      10.856   2.994   1.475 +0.00 +0.00    +0.059 A  
DOCKED: ATOM     46  C33 UNL     1       9.532   2.693   1.828 +0.00 +0.00    +0.020 A  
DOCKED: BRANCH  45  47
DOCKED: ATOM     47  C32 UNL     1      11.392   2.705   0.120 +0.00 +0.00    +0.337 C  
DOCKED: ATOM     48  O8  UNL     1      12.562   2.520  -0.163 +0.00 -0.00    -0.245 OA 
DOCKED: BRANCH  47  49
DOCKED: ATOM     49  O9  UNL     1      10.434   2.659  -0.823 +0.00 -0.00    -0.477 OA 
DOCKED: ATOM     50  H49 UNL     1      10.077   1.749  -0.748 +0.00 +0.00    +0.295 HD 
DOCKED: ENDBRANCH  47  49
DOCKED: ENDBRANCH  45  47
DOCKED: ENDBRANCH  40  41
DOCKED: ENDBRANCH  38  40
DOCKED: ENDBRANCH  35  36
DOCKED: BRANCH  35  51
DOCKED: ATOM     51  C34 UNL     1       7.523  -1.376   1.097 +0.00 +0.00    +0.012 C  
DOCKED: ATOM     52  C35 UNL     1       8.866  -1.025   1.742 +0.00 +0.00    +0.009 C  
DOCKED: ATOM     53  C36 UNL     1       7.189  -2.846   1.368 +0.00 +0.00    +0.009 C  
DOCKED: ENDBRANCH  35  51
DOCKED: ENDBRANCH  33  35
DOCKED: ENDBRANCH  30  31
DOCKED: ENDBRANCH  27  30
DOCKED: ENDBRANCH   1  27
DOCKED: BRANCH   1  54
DOCKED: ATOM     54  C17 UNL     1       6.667   5.258  -0.988 +0.00 +0.00    +0.028 C  
DOCKED: BRANCH  54  55
DOCKED: ATOM     55  C18 UNL     1       5.832   5.372   0.304 +0.00 -0.00    -0.015 C  
DOCKED: ATOM     56  C19 UNL     1       4.687   4.356   0.269 +0.00 +0.00    +0.007 C  
DOCKED: ATOM     57  C20 UNL     1       6.658   5.166   1.571 +0.00 +0.00    +0.007 C  
DOCKED: ENDBRANCH  54  55
DOCKED: ENDBRANCH   1  54
DOCKED: TORSDOF 21
DOCKED: TER
DOCKED: ENDMDL
________________________________________________________________________________


    FINAL DOCKED STATE:
    ________________________


Run:   12 / 20
Time taken for this run:   1.466s

DOCKED: MODEL        12
DOCKED: USER    Run = 12
DOCKED: USER
DOCKED: USER    Estimated Free Energy of Binding    =  +6.26 kcal/mol  [=(1)+(2)+(3)-(4)]
DOCKED: USER
DOCKED: USER    (1) Final Intermolecular Energy     =  +0.00 kcal/mol
DOCKED: USER        vdW + Hbond + desolv Energy     =  +0.00 kcal/mol
DOCKED: USER        Electrostatic Energy            =  +0.00 kcal/mol
DOCKED: USER        Moving Ligand-Fixed Receptor    =  +0.00 kcal/mol
DOCKED: USER        Moving Ligand-Moving Receptor   =  +0.00 kcal/mol
DOCKED: USER    (2) Final Total Internal Energy     = -15.82 kcal/mol
DOCKED: USER    (3) Torsional Free Energy           =  +6.26 kcal/mol
DOCKED: USER    (4) Unbound System's Energy         = -15.82 kcal/mol
DOCKED: USER
DOCKED: USER
DOCKED: REMARK  Name = ligands/ligand_22.pdb
DOCKED: REMARK  28 active torsions:
DOCKED: REMARK  status: ('A' for Active; 'I' for Inactive)
DOCKED: REMARK    1  A    between atoms: C1_1  and  C2_2
DOCKED: REMARK    2  A    between atoms: C2_2  and  C3_3
DOCKED: REMARK    3  A    between atoms: C3_3  and  C4_4
DOCKED: REMARK    4  A    between atoms: C3_3  and  C5_5
DOCKED: REMARK    5  A    between atoms: C5_5  and  N1_6
DOCKED: REMARK    6  A    between atoms: C5_5  and  C12_15
DOCKED: REMARK    7  A    between atoms: C6_7  and  C7_9
DOCKED: REMARK    8  A    between atoms: N2_17  and  C13_18
DOCKED: REMARK    9  A    between atoms: C13_18  and  C14_19
DOCKED: REMARK   10  A    between atoms: C13_18  and  C15_20
DOCKED: REMARK   11  A    between atoms: N3_22  and  C16_23
DOCKED: REMARK   12  A    between atoms: C16_23  and  C17_24
DOCKED: REMARK   13  A    between atoms: C16_23  and  C21_28
DOCKED: REMARK   14  A    between atoms: C17_24  and  C18_25
DOCKED: REMARK   15  A    between atoms: C18_25  and  C19_26
DOCKED: REMARK   16  A    between atoms: C18_25  and  C20_27
DOCKED: REMARK   17  A    between atoms: C21_28  and  O5_29
DOCKED: REMARK   18  A    between atoms: C21_28  and  C22_30
DOCKED: REMARK   19  A    between atoms: C22_30  and  C23_31
DOCKED: REMARK   20  A    between atoms: N4_33  and  C24_34
DOCKED: REMARK   21  A    between atoms: C24_34  and  C25_35
DOCKED: REMARK   22  A    between atoms: C24_34  and  C34_48
DOCKED: REMARK   23  A    between atoms: N5_37  and  C26_38
DOCKED: REMARK   24  A    between atoms: C26_38  and  C27_39
DOCKED: REMARK   25  A    between atoms: C31_43  and  C32_44
DOCKED: REMARK   26  A    between atoms: C32_44  and  O9_46
DOCKED: REMARK   27  A    between atoms: C34_48  and  C35_49
DOCKED: REMARK   28  A    between atoms: C34_48  and  C36_50
DOCKED: REMARK                            x       y       z     vdW  Elec       q    Type
DOCKED: REMARK                         _______ _______ _______ _____ _____    ______ ____
DOCKED: USER                              x       y       z     vdW  Elec       q    Type
DOCKED: USER                           _______ _______ _______ _____ _____    ______ ____
DOCKED: ROOT
DOCKED: ATOM      1  C16 UNL     1      10.755  -1.591  -1.377 +0.00 +0.00    +0.102 C  
DOCKED: ENDROOT
DOCKED: BRANCH   1   4
DOCKED: ATOM      2  C15 UNL     1      11.984  -3.547  -0.400 +0.00 +0.00    +0.233 C  
DOCKED: ATOM      3  O4  UNL     1      11.299  -3.571   0.623 +0.00 -0.00    -0.274 OA 
DOCKED: ATOM      4  N3  UNL     1      11.831  -2.590  -1.379 +0.00 -0.00    -0.308 N  
DOCKED: ATOM      5  H26 UNL     1      12.232  -2.774  -2.293 +0.00 +0.00    +0.149 HD 
DOCKED: BRANCH   2   6
DOCKED: ATOM      6  C13 UNL     1      13.034  -4.625  -0.735 +0.00 +0.00    +0.156 C  
DOCKED: ATOM      7  C14 UNL     1      13.909  -4.888   0.487 +0.00 +0.00    +0.038 C  
DOCKED: BRANCH   6  10
DOCKED: ATOM      8  C12 UNL     1      14.654  -3.074  -1.758 +0.00 +0.00    +0.234 C  
DOCKED: ATOM      9  O3  UNL     1      14.665  -2.344  -0.764 +0.00 -0.00    -0.274 OA 
DOCKED: ATOM     10  N2  UNL     1      13.866  -4.198  -1.851 +0.00 -0.00    -0.303 N  
DOCKED: ATOM     11  H21 UNL     1      14.143  -4.913  -2.511 +0.00 +0.00    +0.149 HD 
DOCKED: BRANCH   8  12
DOCKED: ATOM     12  C5  UNL     1      15.524  -2.779  -3.001 +0.00 +0.00    +0.162 C  
DOCKED: BRANCH  12  13
DOCKED: ATOM     13  N1  UNL     1      14.597  -2.452  -4.088 +0.00 -0.00    -0.302 N  
DOCKED: ATOM     14  C6  UNL     1      14.930  -2.749  -5.401 +0.00 +0.00    +0.243 C  
DOCKED: ATOM     15  O1  UNL     1      16.062  -3.095  -5.735 +0.00 -0.00    -0.273 OA 
DOCKED: ATOM     16  H11 UNL     1      13.616  -2.546  -3.848 +0.00 +0.00    +0.150 HD 
DOCKED: BRANCH  14  17
DOCKED: ATOM     17  C7  UNL     1      13.748  -2.612  -6.389 +0.00 +0.00    +0.204 C  
DOCKED: ATOM     18  C8  UNL     1      14.182  -1.774  -7.600 +0.00 +0.00    +0.041 C  
DOCKED: ATOM     19  C9  UNL     1      14.127  -0.284  -7.292 +0.00 +0.00    +0.005 C  
DOCKED: ATOM     20  C10 UNL     1      12.808   0.116  -6.634 +0.00 +0.00    +0.028 C  
DOCKED: ATOM     21  C11 UNL     1      11.896  -1.077  -6.393 +0.00 +0.00    +0.161 C  
DOCKED: ATOM     22  O2  UNL     1      12.587  -2.118  -5.719 +0.00 -0.00    -0.367 OA 
DOCKED: ENDBRANCH  14  17
DOCKED: ENDBRANCH  12  13
DOCKED: BRANCH  12  23
DOCKED: ATOM     23  C3  UNL     1      16.553  -1.639  -2.805 +0.00 +0.00    +0.015 C  
DOCKED: ATOM     24  C4  UNL     1      17.953  -2.010  -3.308 +0.00 +0.00    +0.010 C  
DOCKED: BRANCH  23  26
DOCKED: ATOM     25  C1  UNL     1      14.865   0.279  -2.700 +0.00 +0.00    +0.004 C  
DOCKED: ATOM     26  C2  UNL     1      16.062  -0.318  -3.432 +0.00 +0.00    +0.002 C  
DOCKED: ENDBRANCH  23  26
DOCKED: ENDBRANCH  12  23
DOCKED: ENDBRANCH   8  12
DOCKED: ENDBRANCH   6  10
DOCKED: ENDBRANCH   2   6
DOCKED: ENDBRANCH   1   4
DOCKED: BRANCH   1  27
DOCKED: ATOM     27  C21 UNL     1      10.731  -0.849  -2.746 +0.00 +0.00    +0.143 C  
DOCKED: BRANCH  27  28
DOCKED: ATOM     28  O5  UNL     1      11.915  -1.215  -3.485 +0.00 -0.00    -0.389 OA 
DOCKED: ATOM     29  H38 UNL     1      11.854  -2.171  -3.662 +0.00 +0.00    +0.210 HD 
DOCKED: ENDBRANCH  27  28
DOCKED: BRANCH  27  30
DOCKED: ATOM     30  C22 UNL     1       9.506  -1.177  -3.600 +0.00 +0.00    +0.129 C  
DOCKED: BRANCH  30  31
DOCKED: ATOM     31  C23 UNL     1       9.389  -2.663  -3.850 +0.00 +0.00    +0.216 C  
DOCKED: ATOM     32  O6  UNL     1       8.500  -3.341  -3.342 +0.00 -0.00    -0.276 OA 
DOCKED: ATOM     33  N4  UNL     1      10.298  -3.163  -4.750 +0.00 -0.00    -0.304 N  
DOCKED: ATOM     34  H41 UNL     1      11.165  -2.643  -4.879 +0.00 +0.00    +0.149 HD 
DOCKED: BRANCH  33  35
DOCKED: ATOM     35  C24 UNL     1      10.399  -4.600  -4.999 +0.00 +0.00    +0.161 C  
DOCKED: BRANCH  35  36
DOCKED: ATOM     36  C25 UNL     1      11.703  -5.098  -4.349 +0.00 +0.00    +0.234 C  
DOCKED: ATOM     37  O7  UNL     1      12.525  -4.321  -3.863 +0.00 -0.00    -0.274 OA 
DOCKED: ATOM     38  N5  UNL     1      11.879  -6.465  -4.391 +0.00 -0.00    -0.310 N  
DOCKED: ATOM     39  H43 UNL     1      11.083  -7.044  -4.632 +0.00 +0.00    +0.149 HD 
DOCKED: BRANCH  38  40
DOCKED: ATOM     40  C26 UNL     1      12.946  -7.108  -3.657 +0.00 +0.00    +0.139 C  
DOCKED: BRANCH  40  41
DOCKED: ATOM     41  C27 UNL     1      14.297  -6.706  -4.196 +0.00 -0.00    -0.030 A  
DOCKED: ATOM     42  C28 UNL     1      15.422  -6.667  -3.357 +0.00 +0.00    +0.005 A  
DOCKED: ATOM     43  C29 UNL     1      16.674  -6.301  -3.853 +0.00 +0.00    +0.001 A  
DOCKED: ATOM     44  C30 UNL     1      16.816  -5.959  -5.194 +0.00 +0.00    +0.015 A  
DOCKED: ATOM     45  C31 UNL     1      15.704  -5.981  -6.047 +0.00 +0.00    +0.059 A  
DOCKED: ATOM     46  C33 UNL     1      14.450  -6.356  -5.546 +0.00 +0.00    +0.020 A  
DOCKED: BRANCH  45  47
DOCKED: ATOM     47  C32 UNL     1      15.902  -5.601  -7.469 +0.00 +0.00    +0.337 C  
DOCKED: ATOM     48  O8  UNL     1      15.223  -5.969  -8.410 +0.00 -0.00    -0.245 OA 
DOCKED: BRANCH  47  49
DOCKED: ATOM     49  O9  UNL     1      16.946  -4.772  -7.650 +0.00 -0.00    -0.477 OA 
DOCKED: ATOM     50  H49 UNL     1      16.777  -4.045  -7.014 +0.00 +0.00    +0.295 HD 
DOCKED: ENDBRANCH  47  49
DOCKED: ENDBRANCH  45  47
DOCKED: ENDBRANCH  40  41
DOCKED: ENDBRANCH  38  40
DOCKED: ENDBRANCH  35  36
DOCKED: BRANCH  35  51
DOCKED: ATOM     51  C34 UNL     1      10.347  -4.965  -6.498 +0.00 +0.00    +0.012 C  
DOCKED: ATOM     52  C35 UNL     1       9.501  -3.952  -7.275 +0.00 +0.00    +0.009 C  
DOCKED: ATOM     53  C36 UNL     1      11.731  -5.086  -7.144 +0.00 +0.00    +0.009 C  
DOCKED: ENDBRANCH  35  51
DOCKED: ENDBRANCH  33  35
DOCKED: ENDBRANCH  30  31
DOCKED: ENDBRANCH  27  30
DOCKED: ENDBRANCH   1  27
DOCKED: BRANCH   1  54
DOCKED: ATOM     54  C17 UNL     1      11.022  -0.610  -0.209 +0.00 +0.00    +0.028 C  
DOCKED: BRANCH  54  55
DOCKED: ATOM     55  C18 UNL     1      12.479  -0.109  -0.121 +0.00 -0.00    -0.015 C  
DOCKED: ATOM     56  C19 UNL     1      12.518   1.405  -0.349 +0.00 +0.00    +0.007 C  
DOCKED: ATOM     57  C20 UNL     1      13.146  -0.441   1.211 +0.00 +0.00    +0.007 C  
DOCKED: ENDBRANCH  54  55
DOCKED: ENDBRANCH   1  54
DOCKED: TORSDOF 21
DOCKED: TER
DOCKED: ENDMDL
________________________________________________________________________________


    FINAL DOCKED STATE:
    ________________________


Run:   13 / 20
Time taken for this run:   1.466s

DOCKED: MODEL        13
DOCKED: USER    Run = 13
DOCKED: USER
DOCKED: USER    Estimated Free Energy of Binding    =  +6.26 kcal/mol  [=(1)+(2)+(3)-(4)]
DOCKED: USER
DOCKED: USER    (1) Final Intermolecular Energy     =  +0.00 kcal/mol
DOCKED: USER        vdW + Hbond + desolv Energy     =  +0.00 kcal/mol
DOCKED: USER        Electrostatic Energy            =  +0.00 kcal/mol
DOCKED: USER        Moving Ligand-Fixed Receptor    =  +0.00 kcal/mol
DOCKED: USER        Moving Ligand-Moving Receptor   =  +0.00 kcal/mol
DOCKED: USER    (2) Final Total Internal Energy     = -15.81 kcal/mol
DOCKED: USER    (3) Torsional Free Energy           =  +6.26 kcal/mol
DOCKED: USER    (4) Unbound System's Energy         = -15.81 kcal/mol
DOCKED: USER
DOCKED: USER
DOCKED: REMARK  Name = ligands/ligand_22.pdb
DOCKED: REMARK  28 active torsions:
DOCKED: REMARK  status: ('A' for Active; 'I' for Inactive)
DOCKED: REMARK    1  A    between atoms: C1_1  and  C2_2
DOCKED: REMARK    2  A    between atoms: C2_2  and  C3_3
DOCKED: REMARK    3  A    between atoms: C3_3  and  C4_4
DOCKED: REMARK    4  A    between atoms: C3_3  and  C5_5
DOCKED: REMARK    5  A    between atoms: C5_5  and  N1_6
DOCKED: REMARK    6  A    between atoms: C5_5  and  C12_15
DOCKED: REMARK    7  A    between atoms: C6_7  and  C7_9
DOCKED: REMARK    8  A    between atoms: N2_17  and  C13_18
DOCKED: REMARK    9  A    between atoms: C13_18  and  C14_19
DOCKED: REMARK   10  A    between atoms: C13_18  and  C15_20
DOCKED: REMARK   11  A    between atoms: N3_22  and  C16_23
DOCKED: REMARK   12  A    between atoms: C16_23  and  C17_24
DOCKED: REMARK   13  A    between atoms: C16_23  and  C21_28
DOCKED: REMARK   14  A    between atoms: C17_24  and  C18_25
DOCKED: REMARK   15  A    between atoms: C18_25  and  C19_26
DOCKED: REMARK   16  A    between atoms: C18_25  and  C20_27
DOCKED: REMARK   17  A    between atoms: C21_28  and  O5_29
DOCKED: REMARK   18  A    between atoms: C21_28  and  C22_30
DOCKED: REMARK   19  A    between atoms: C22_30  and  C23_31
DOCKED: REMARK   20  A    between atoms: N4_33  and  C24_34
DOCKED: REMARK   21  A    between atoms: C24_34  and  C25_35
DOCKED: REMARK   22  A    between atoms: C24_34  and  C34_48
DOCKED: REMARK   23  A    between atoms: N5_37  and  C26_38
DOCKED: REMARK   24  A    between atoms: C26_38  and  C27_39
DOCKED: REMARK   25  A    between atoms: C31_43  and  C32_44
DOCKED: REMARK   26  A    between atoms: C32_44  and  O9_46
DOCKED: REMARK   27  A    between atoms: C34_48  and  C35_49
DOCKED: REMARK   28  A    between atoms: C34_48  and  C36_50
DOCKED: REMARK                            x       y       z     vdW  Elec       q    Type
DOCKED: REMARK                         _______ _______ _______ _____ _____    ______ ____
DOCKED: USER                              x       y       z     vdW  Elec       q    Type
DOCKED: USER                           _______ _______ _______ _____ _____    ______ ____
DOCKED: ROOT
DOCKED: ATOM      1  C16 UNL     1      11.383  -4.604  -3.437 +0.00 +0.00    +0.102 C  
DOCKED: ENDROOT
DOCKED: BRANCH   1   4
DOCKED: ATOM      2  C15 UNL     1      11.823  -5.785  -1.269 +0.00 +0.00    +0.233 C  
DOCKED: ATOM      3  O4  UNL     1      12.732  -5.021  -0.942 +0.00 -0.00    -0.274 OA 
DOCKED: ATOM      4  N3  UNL     1      11.168  -5.695  -2.477 +0.00 -0.00    -0.308 N  
DOCKED: ATOM      5  H26 UNL     1      10.278  -6.171  -2.574 +0.00 +0.00    +0.149 HD 
DOCKED: BRANCH   2   6
DOCKED: ATOM      6  C13 UNL     1      11.267  -6.878  -0.334 +0.00 +0.00    +0.156 C  
DOCKED: ATOM      7  C14 UNL     1      12.323  -7.258   0.700 +0.00 +0.00    +0.038 C  
DOCKED: BRANCH   6  10
DOCKED: ATOM      8  C12 UNL     1       9.778  -8.040  -1.918 +0.00 +0.00    +0.234 C  
DOCKED: ATOM      9  O3  UNL     1       9.029  -7.065  -2.013 +0.00 -0.00    -0.274 OA 
DOCKED: ATOM     10  N2  UNL     1      10.883  -8.056  -1.099 +0.00 -0.00    -0.303 N  
DOCKED: ATOM     11  H21 UNL     1      11.618  -8.717  -1.315 +0.00 +0.00    +0.149 HD 
DOCKED: BRANCH   8  12
DOCKED: ATOM     12  C5  UNL     1       9.530  -9.344  -2.710 +0.00 +0.00    +0.162 C  
DOCKED: BRANCH  12  13
DOCKED: ATOM     13  N1  UNL     1       9.478  -8.966  -4.125 +0.00 -0.00    -0.302 N  
DOCKED: ATOM     14  C6  UNL     1       8.788  -9.756  -5.032 +0.00 +0.00    +0.243 C  
DOCKED: ATOM     15  O1  UNL     1       8.375 -10.880  -4.752 +0.00 -0.00    -0.273 OA 
DOCKED: ATOM     16  H11 UNL     1       9.447  -7.967  -4.294 +0.00 +0.00    +0.150 HD 
DOCKED: BRANCH  14  17
DOCKED: ATOM     17  C7  UNL     1       8.582  -9.086  -6.410 +0.00 +0.00    +0.204 C  
DOCKED: ATOM     18  C8  UNL     1       9.432  -9.806  -7.467 +0.00 +0.00    +0.041 C  
DOCKED: ATOM     19  C9  UNL     1      10.880  -9.334  -7.428 +0.00 +0.00    +0.005 C  
DOCKED: ATOM     20  C10 UNL     1      10.985  -7.810  -7.402 +0.00 +0.00    +0.028 C  
DOCKED: ATOM     21  C11 UNL     1       9.623  -7.136  -7.362 +0.00 +0.00    +0.161 C  
DOCKED: ATOM     22  O2  UNL     1       8.817  -7.679  -6.325 +0.00 -0.00    -0.367 OA 
DOCKED: ENDBRANCH  14  17
DOCKED: ENDBRANCH  12  13
DOCKED: BRANCH  12  23
DOCKED: ATOM     23  C3  UNL     1      10.597 -10.443  -2.481 +0.00 +0.00    +0.015 C  
DOCKED: ATOM     24  C4  UNL     1       9.981 -11.825  -2.236 +0.00 +0.00    +0.010 C  
DOCKED: BRANCH  23  26
DOCKED: ATOM     25  C1  UNL     1      12.562  -9.278  -3.630 +0.00 +0.00    +0.004 C  
DOCKED: ATOM     26  C2  UNL     1      11.626 -10.482  -3.628 +0.00 +0.00    +0.002 C  
DOCKED: ENDBRANCH  23  26
DOCKED: ENDBRANCH  12  23
DOCKED: ENDBRANCH   8  12
DOCKED: ENDBRANCH   6  10
DOCKED: ENDBRANCH   2   6
DOCKED: ENDBRANCH   1   4
DOCKED: BRANCH   1  27
DOCKED: ATOM     27  C21 UNL     1      10.424  -4.784  -4.651 +0.00 +0.00    +0.143 C  
DOCKED: BRANCH  27  28
DOCKED: ATOM     28  O5  UNL     1       9.657  -5.989  -4.454 +0.00 -0.00    -0.389 OA 
DOCKED: ATOM     29  H38 UNL     1       9.011  -5.801  -3.749 +0.00 +0.00    +0.210 HD 
DOCKED: ENDBRANCH  27  28
DOCKED: BRANCH  27  30
DOCKED: ATOM     30  C22 UNL     1       9.455  -3.618  -4.846 +0.00 +0.00    +0.129 C  
DOCKED: BRANCH  30  31
DOCKED: ATOM     31  C23 UNL     1       8.018  -4.069  -4.730 +0.00 +0.00    +0.216 C  
DOCKED: ATOM     32  O6  UNL     1       7.256  -3.609  -3.885 +0.00 -0.00    -0.276 OA 
DOCKED: ATOM     33  N4  UNL     1       7.621  -4.962  -5.696 +0.00 -0.00    -0.304 N  
DOCKED: ATOM     34  H41 UNL     1       8.346  -5.521  -6.145 +0.00 +0.00    +0.149 HD 
DOCKED: BRANCH  33  35
DOCKED: ATOM     35  C24 UNL     1       6.303  -5.592  -5.644 +0.00 +0.00    +0.161 C  
DOCKED: BRANCH  35  36
DOCKED: ATOM     36  C25 UNL     1       6.336  -6.659  -4.534 +0.00 +0.00    +0.234 C  
DOCKED: ATOM     37  O7  UNL     1       7.380  -7.224  -4.206 +0.00 -0.00    -0.274 OA 
DOCKED: ATOM     38  N5  UNL     1       5.108  -6.944  -3.976 +0.00 -0.00    -0.310 N  
DOCKED: ATOM     39  H43 UNL     1       4.338  -6.312  -4.161 +0.00 +0.00    +0.149 HD 
DOCKED: BRANCH  38  40
DOCKED: ATOM     40  C26 UNL     1       4.993  -7.771  -2.796 +0.00 +0.00    +0.139 C  
DOCKED: BRANCH  40  41
DOCKED: ATOM     41  C27 UNL     1       5.685  -7.136  -1.615 +0.00 -0.00    -0.030 A  
DOCKED: ATOM     42  C28 UNL     1       5.440  -7.589  -0.310 +0.00 +0.00    +0.005 A  
DOCKED: ATOM     43  C29 UNL     1       6.083  -7.007   0.784 +0.00 +0.00    +0.001 A  
DOCKED: ATOM     44  C30 UNL     1       6.973  -5.957   0.587 +0.00 +0.00    +0.015 A  
DOCKED: ATOM     45  C31 UNL     1       7.225  -5.482  -0.707 +0.00 +0.00    +0.059 A  
DOCKED: ATOM     46  C33 UNL     1       6.583  -6.074  -1.803 +0.00 +0.00    +0.020 A  
DOCKED: BRANCH  45  47
DOCKED: ATOM     47  C32 UNL     1       8.178  -4.354  -0.869 +0.00 +0.00    +0.337 C  
DOCKED: ATOM     48  O8  UNL     1       8.283  -3.393  -0.129 +0.00 -0.00    -0.245 OA 
DOCKED: BRANCH  47  49
DOCKED: ATOM     49  O9  UNL     1       8.960  -4.481  -1.956 +0.00 -0.00    -0.477 OA 
DOCKED: ATOM     50  H49 UNL     1       8.419  -5.022  -2.569 +0.00 +0.00    +0.295 HD 
DOCKED: ENDBRANCH  47  49
DOCKED: ENDBRANCH  45  47
DOCKED: ENDBRANCH  40  41
DOCKED: ENDBRANCH  38  40
DOCKED: ENDBRANCH  35  36
DOCKED: BRANCH  35  51
DOCKED: ATOM     51  C34 UNL     1       5.864  -6.202  -6.993 +0.00 +0.00    +0.012 C  
DOCKED: ATOM     52  C35 UNL     1       6.820  -5.786  -8.114 +0.00 +0.00    +0.009 C  
DOCKED: ATOM     53  C36 UNL     1       5.740  -7.729  -6.959 +0.00 +0.00    +0.009 C  
DOCKED: ENDBRANCH  35  51
DOCKED: ENDBRANCH  33  35
DOCKED: ENDBRANCH  30  31
DOCKED: ENDBRANCH  27  30
DOCKED: ENDBRANCH   1  27
DOCKED: BRANCH   1  54
DOCKED: ATOM     54  C17 UNL     1      12.866  -4.647  -3.878 +0.00 +0.00    +0.028 C  
DOCKED: BRANCH  54  55
DOCKED: ATOM     55  C18 UNL     1      13.360  -6.042  -4.313 +0.00 -0.00    -0.015 C  
DOCKED: ATOM     56  C19 UNL     1      13.572  -6.064  -5.829 +0.00 +0.00    +0.007 C  
DOCKED: ATOM     57  C20 UNL     1      14.647  -6.467  -3.612 +0.00 +0.00    +0.007 C  
DOCKED: ENDBRANCH  54  55
DOCKED: ENDBRANCH   1  54
DOCKED: TORSDOF 21
DOCKED: TER
DOCKED: ENDMDL
________________________________________________________________________________


    FINAL DOCKED STATE:
    ________________________


Run:   14 / 20
Time taken for this run:   1.466s

DOCKED: MODEL        14
DOCKED: USER    Run = 14
DOCKED: USER
DOCKED: USER    Estimated Free Energy of Binding    =  +6.26 kcal/mol  [=(1)+(2)+(3)-(4)]
DOCKED: USER
DOCKED: USER    (1) Final Intermolecular Energy     =  +0.00 kcal/mol
DOCKED: USER        vdW + Hbond + desolv Energy     =  +0.00 kcal/mol
DOCKED: USER        Electrostatic Energy            =  +0.00 kcal/mol
DOCKED: USER        Moving Ligand-Fixed Receptor    =  +0.00 kcal/mol
DOCKED: USER        Moving Ligand-Moving Receptor   =  +0.00 kcal/mol
DOCKED: USER    (2) Final Total Internal Energy     = -15.76 kcal/mol
DOCKED: USER    (3) Torsional Free Energy           =  +6.26 kcal/mol
DOCKED: USER    (4) Unbound System's Energy         = -15.76 kcal/mol
DOCKED: USER
DOCKED: USER
DOCKED: REMARK  Name = ligands/ligand_22.pdb
DOCKED: REMARK  28 active torsions:
DOCKED: REMARK  status: ('A' for Active; 'I' for Inactive)
DOCKED: REMARK    1  A    between atoms: C1_1  and  C2_2
DOCKED: REMARK    2  A    between atoms: C2_2  and  C3_3
DOCKED: REMARK    3  A    between atoms: C3_3  and  C4_4
DOCKED: REMARK    4  A    between atoms: C3_3  and  C5_5
DOCKED: REMARK    5  A    between atoms: C5_5  and  N1_6
DOCKED: REMARK    6  A    between atoms: C5_5  and  C12_15
DOCKED: REMARK    7  A    between atoms: C6_7  and  C7_9
DOCKED: REMARK    8  A    between atoms: N2_17  and  C13_18
DOCKED: REMARK    9  A    between atoms: C13_18  and  C14_19
DOCKED: REMARK   10  A    between atoms: C13_18  and  C15_20
DOCKED: REMARK   11  A    between atoms: N3_22  and  C16_23
DOCKED: REMARK   12  A    between atoms: C16_23  and  C17_24
DOCKED: REMARK   13  A    between atoms: C16_23  and  C21_28
DOCKED: REMARK   14  A    between atoms: C17_24  and  C18_25
DOCKED: REMARK   15  A    between atoms: C18_25  and  C19_26
DOCKED: REMARK   16  A    between atoms: C18_25  and  C20_27
DOCKED: REMARK   17  A    between atoms: C21_28  and  O5_29
DOCKED: REMARK   18  A    between atoms: C21_28  and  C22_30
DOCKED: REMARK   19  A    between atoms: C22_30  and  C23_31
DOCKED: REMARK   20  A    between atoms: N4_33  and  C24_34
DOCKED: REMARK   21  A    between atoms: C24_34  and  C25_35
DOCKED: REMARK   22  A    between atoms: C24_34  and  C34_48
DOCKED: REMARK   23  A    between atoms: N5_37  and  C26_38
DOCKED: REMARK   24  A    between atoms: C26_38  and  C27_39
DOCKED: REMARK   25  A    between atoms: C31_43  and  C32_44
DOCKED: REMARK   26  A    between atoms: C32_44  and  O9_46
DOCKED: REMARK   27  A    between atoms: C34_48  and  C35_49
DOCKED: REMARK   28  A    between atoms: C34_48  and  C36_50
DOCKED: REMARK                            x       y       z     vdW  Elec       q    Type
DOCKED: REMARK                         _______ _______ _______ _____ _____    ______ ____
DOCKED: USER                              x       y       z     vdW  Elec       q    Type
DOCKED: USER                           _______ _______ _______ _____ _____    ______ ____
DOCKED: ROOT
DOCKED: ATOM      1  C16 UNL     1       8.416  -0.692  -5.963 +0.00 +0.00    +0.102 C  
DOCKED: ENDROOT
DOCKED: BRANCH   1   4
DOCKED: ATOM      2  C15 UNL     1       9.258  -3.024  -5.584 +0.00 +0.00    +0.233 C  
DOCKED: ATOM      3  O4  UNL     1      10.435  -2.719  -5.780 +0.00 -0.00    -0.274 OA 
DOCKED: ATOM      4  N3  UNL     1       8.222  -2.127  -5.715 +0.00 -0.00    -0.308 N  
DOCKED: ATOM      5  H26 UNL     1       7.329  -2.363  -5.295 +0.00 +0.00    +0.149 HD 
DOCKED: BRANCH   2   6
DOCKED: ATOM      6  C13 UNL     1       8.821  -4.420  -5.097 +0.00 +0.00    +0.156 C  
DOCKED: ATOM      7  C14 UNL     1       9.859  -5.459  -5.513 +0.00 +0.00    +0.038 C  
DOCKED: BRANCH   6  10
DOCKED: ATOM      8  C12 UNL     1       6.359  -4.311  -5.087 +0.00 +0.00    +0.234 C  
DOCKED: ATOM      9  O3  UNL     1       6.339  -3.630  -4.059 +0.00 -0.00    -0.274 OA 
DOCKED: ATOM     10  N2  UNL     1       7.523  -4.772  -5.656 +0.00 -0.00    -0.303 N  
DOCKED: ATOM     11  H21 UNL     1       7.502  -5.015  -6.638 +0.00 +0.00    +0.149 HD 
DOCKED: BRANCH   8  12
DOCKED: ATOM     12  C5  UNL     1       5.063  -4.720  -5.824 +0.00 +0.00    +0.162 C  
DOCKED: BRANCH  12  13
DOCKED: ATOM     13  N1  UNL     1       4.847  -3.716  -6.870 +0.00 -0.00    -0.302 N  
DOCKED: ATOM     14  C6  UNL     1       5.002  -2.368  -6.585 +0.00 +0.00    +0.243 C  
DOCKED: ATOM     15  O1  UNL     1       5.118  -1.944  -5.436 +0.00 -0.00    -0.273 OA 
DOCKED: ATOM     16  H11 UNL     1       5.130  -4.007  -7.800 +0.00 +0.00    +0.150 HD 
DOCKED: BRANCH  14  17
DOCKED: ATOM     17  C7  UNL     1       5.025  -1.465  -7.839 +0.00 +0.00    +0.204 C  
DOCKED: ATOM     18  C8  UNL     1       3.654  -0.797  -8.020 +0.00 +0.00    +0.041 C  
DOCKED: ATOM     19  C9  UNL     1       2.663  -1.741  -8.689 +0.00 +0.00    +0.005 C  
DOCKED: ATOM     20  C10 UNL     1       3.255  -2.410  -9.928 +0.00 +0.00    +0.028 C  
DOCKED: ATOM     21  C11 UNL     1       4.707  -2.018 -10.159 +0.00 +0.00    +0.161 C  
DOCKED: ATOM     22  O2  UNL     1       5.476  -2.198  -8.979 +0.00 -0.00    -0.367 OA 
DOCKED: ENDBRANCH  14  17
DOCKED: ENDBRANCH  12  13
DOCKED: BRANCH  12  23
DOCKED: ATOM     23  C3  UNL     1       5.098  -6.142  -6.437 +0.00 +0.00    +0.015 C  
DOCKED: ATOM     24  C4  UNL     1       5.114  -7.245  -5.372 +0.00 +0.00    +0.010 C  
DOCKED: BRANCH  23  26
DOCKED: ATOM     25  C1  UNL     1       4.404  -6.206  -8.897 +0.00 +0.00    +0.004 C  
DOCKED: ATOM     26  C2  UNL     1       3.953  -6.352  -7.448 +0.00 +0.00    +0.002 C  
DOCKED: ENDBRANCH  23  26
DOCKED: ENDBRANCH  12  23
DOCKED: ENDBRANCH   8  12
DOCKED: ENDBRANCH   6  10
DOCKED: ENDBRANCH   2   6
DOCKED: ENDBRANCH   1   4
DOCKED: BRANCH   1  27
DOCKED: ATOM     27  C21 UNL     1       7.863   0.123  -4.757 +0.00 +0.00    +0.143 C  
DOCKED: BRANCH  27  28
DOCKED: ATOM     28  O5  UNL     1       6.731  -0.581  -4.208 +0.00 -0.00    -0.389 OA 
DOCKED: ATOM     29  H38 UNL     1       6.919  -1.533  -4.299 +0.00 +0.00    +0.210 HD 
DOCKED: ENDBRANCH  27  28
DOCKED: BRANCH  27  30
DOCKED: ATOM     30  C22 UNL     1       8.887   0.338  -3.642 +0.00 +0.00    +0.129 C  
DOCKED: BRANCH  30  31
DOCKED: ATOM     31  C23 UNL     1      10.241   0.712  -4.200 +0.00 +0.00    +0.216 C  
DOCKED: ATOM     32  O6  UNL     1      10.579   1.881  -4.360 +0.00 -0.00    -0.276 OA 
DOCKED: ATOM     33  N4  UNL     1      11.078  -0.353  -4.427 +0.00 -0.00    -0.304 N  
DOCKED: ATOM     34  H41 UNL     1      10.648  -1.265  -4.574 +0.00 +0.00    +0.149 HD 
DOCKED: BRANCH  33  35
DOCKED: ATOM     35  C24 UNL     1      12.370  -0.169  -5.087 +0.00 +0.00    +0.161 C  
DOCKED: BRANCH  35  36
DOCKED: ATOM     36  C25 UNL     1      12.098   0.277  -6.535 +0.00 +0.00    +0.234 C  
DOCKED: ATOM     37  O7  UNL     1      12.251   1.445  -6.895 +0.00 -0.00    -0.274 OA 
DOCKED: ATOM     38  N5  UNL     1      11.644  -0.723  -7.367 +0.00 -0.00    -0.310 N  
DOCKED: ATOM     39  H43 UNL     1      11.725  -1.683  -7.053 +0.00 +0.00    +0.149 HD 
DOCKED: BRANCH  38  40
DOCKED: ATOM     40  C26 UNL     1      11.529  -0.520  -8.794 +0.00 +0.00    +0.139 C  
DOCKED: BRANCH  40  41
DOCKED: ATOM     41  C27 UNL     1      10.311  -1.218  -9.347 +0.00 -0.00    -0.030 A  
DOCKED: ATOM     42  C28 UNL     1       9.617  -0.688 -10.446 +0.00 +0.00    +0.005 A  
DOCKED: ATOM     43  C29 UNL     1       8.493  -1.334 -10.963 +0.00 +0.00    +0.001 A  
DOCKED: ATOM     44  C30 UNL     1       8.043  -2.515 -10.383 +0.00 +0.00    +0.015 A  
DOCKED: ATOM     45  C31 UNL     1       8.715  -3.057  -9.279 +0.00 +0.00    +0.059 A  
DOCKED: ATOM     46  C33 UNL     1       9.848  -2.408  -8.766 +0.00 +0.00    +0.020 A  
DOCKED: BRANCH  45  47
DOCKED: ATOM     47  C32 UNL     1       8.195  -4.315  -8.687 +0.00 +0.00    +0.337 C  
DOCKED: ATOM     48  O8  UNL     1       8.863  -5.262  -8.315 +0.00 -0.00    -0.245 OA 
DOCKED: BRANCH  47  49
DOCKED: ATOM     49  O9  UNL     1       6.853  -4.331  -8.586 +0.00 -0.00    -0.477 OA 
DOCKED: ATOM     50  H49 UNL     1       6.601  -3.390  -8.696 +0.00 +0.00    +0.295 HD 
DOCKED: ENDBRANCH  47  49
DOCKED: ENDBRANCH  45  47
DOCKED: ENDBRANCH  40  41
DOCKED: ENDBRANCH  38  40
DOCKED: ENDBRANCH  35  36
DOCKED: BRANCH  35  51
DOCKED: ATOM     51  C34 UNL     1      13.261  -1.429  -5.047 +0.00 +0.00    +0.012 C  
DOCKED: ATOM     52  C35 UNL     1      14.742  -1.047  -4.986 +0.00 +0.00    +0.009 C  
DOCKED: ATOM     53  C36 UNL     1      12.924  -2.376  -3.891 +0.00 +0.00    +0.009 C  
DOCKED: ENDBRANCH  35  51
DOCKED: ENDBRANCH  33  35
DOCKED: ENDBRANCH  30  31
DOCKED: ENDBRANCH  27  30
DOCKED: ENDBRANCH   1  27
DOCKED: BRANCH   1  54
DOCKED: ATOM     54  C17 UNL     1       7.675  -0.333  -7.274 +0.00 +0.00    +0.028 C  
DOCKED: BRANCH  54  55
DOCKED: ATOM     55  C18 UNL     1       7.674   1.172  -7.613 +0.00 -0.00    -0.015 C  
DOCKED: ATOM     56  C19 UNL     1       9.111   1.702  -7.603 +0.00 +0.00    +0.007 C  
DOCKED: ATOM     57  C20 UNL     1       7.025   1.482  -8.959 +0.00 +0.00    +0.007 C  
DOCKED: ENDBRANCH  54  55
DOCKED: ENDBRANCH   1  54
DOCKED: TORSDOF 21
DOCKED: TER
DOCKED: ENDMDL
________________________________________________________________________________


    FINAL DOCKED STATE:
    ________________________


Run:   15 / 20
Time taken for this run:   1.466s

DOCKED: MODEL        15
DOCKED: USER    Run = 15
DOCKED: USER
DOCKED: USER    Estimated Free Energy of Binding    =  +6.26 kcal/mol  [=(1)+(2)+(3)-(4)]
DOCKED: USER
DOCKED: USER    (1) Final Intermolecular Energy     =  +0.00 kcal/mol
DOCKED: USER        vdW + Hbond + desolv Energy     =  +0.00 kcal/mol
DOCKED: USER        Electrostatic Energy            =  +0.00 kcal/mol
DOCKED: USER        Moving Ligand-Fixed Receptor    =  +0.00 kcal/mol
DOCKED: USER        Moving Ligand-Moving Receptor   =  +0.00 kcal/mol
DOCKED: USER    (2) Final Total Internal Energy     = -16.06 kcal/mol
DOCKED: USER    (3) Torsional Free Energy           =  +6.26 kcal/mol
DOCKED: USER    (4) Unbound System's Energy         = -16.06 kcal/mol
DOCKED: USER
DOCKED: USER
DOCKED: REMARK  Name = ligands/ligand_22.pdb
DOCKED: REMARK  28 active torsions:
DOCKED: REMARK  status: ('A' for Active; 'I' for Inactive)
DOCKED: REMARK    1  A    between atoms: C1_1  and  C2_2
DOCKED: REMARK    2  A    between atoms: C2_2  and  C3_3
DOCKED: REMARK    3  A    between atoms: C3_3  and  C4_4
DOCKED: REMARK    4  A    between atoms: C3_3  and  C5_5
DOCKED: REMARK    5  A    between atoms: C5_5  and  N1_6
DOCKED: REMARK    6  A    between atoms: C5_5  and  C12_15
DOCKED: REMARK    7  A    between atoms: C6_7  and  C7_9
DOCKED: REMARK    8  A    between atoms: N2_17  and  C13_18
DOCKED: REMARK    9  A    between atoms: C13_18  and  C14_19
DOCKED: REMARK   10  A    between atoms: C13_18  and  C15_20
DOCKED: REMARK   11  A    between atoms: N3_22  and  C16_23
DOCKED: REMARK   12  A    between atoms: C16_23  and  C17_24
DOCKED: REMARK   13  A    between atoms: C16_23  and  C21_28
DOCKED: REMARK   14  A    between atoms: C17_24  and  C18_25
DOCKED: REMARK   15  A    between atoms: C18_25  and  C19_26
DOCKED: REMARK   16  A    between atoms: C18_25  and  C20_27
DOCKED: REMARK   17  A    between atoms: C21_28  and  O5_29
DOCKED: REMARK   18  A    between atoms: C21_28  and  C22_30
DOCKED: REMARK   19  A    between atoms: C22_30  and  C23_31
DOCKED: REMARK   20  A    between atoms: N4_33  and  C24_34
DOCKED: REMARK   21  A    between atoms: C24_34  and  C25_35
DOCKED: REMARK   22  A    between atoms: C24_34  and  C34_48
DOCKED: REMARK   23  A    between atoms: N5_37  and  C26_38
DOCKED: REMARK   24  A    between atoms: C26_38  and  C27_39
DOCKED: REMARK   25  A    between atoms: C31_43  and  C32_44
DOCKED: REMARK   26  A    between atoms: C32_44  and  O9_46
DOCKED: REMARK   27  A    between atoms: C34_48  and  C35_49
DOCKED: REMARK   28  A    between atoms: C34_48  and  C36_50
DOCKED: REMARK                            x       y       z     vdW  Elec       q    Type
DOCKED: REMARK                         _______ _______ _______ _____ _____    ______ ____
DOCKED: USER                              x       y       z     vdW  Elec       q    Type
DOCKED: USER                           _______ _______ _______ _____ _____    ______ ____
DOCKED: ROOT
DOCKED: ATOM      1  C16 UNL     1       7.961  -0.107  -4.718 +0.00 +0.00    +0.102 C  
DOCKED: ENDROOT
DOCKED: BRANCH   1   4
DOCKED: ATOM      2  C15 UNL     1       7.928  -2.597  -5.015 +0.00 +0.00    +0.233 C  
DOCKED: ATOM      3  O4  UNL     1       9.056  -2.636  -5.507 +0.00 -0.00    -0.274 OA 
DOCKED: ATOM      4  N3  UNL     1       7.303  -1.419  -4.670 +0.00 -0.00    -0.308 N  
DOCKED: ATOM      5  H26 UNL     1       6.507  -1.467  -4.043 +0.00 +0.00    +0.149 HD 
DOCKED: BRANCH   2   6
DOCKED: ATOM      6  C13 UNL     1       7.120  -3.862  -4.662 +0.00 +0.00    +0.156 C  
DOCKED: ATOM      7  C14 UNL     1       6.556  -4.485  -5.936 +0.00 +0.00    +0.038 C  
DOCKED: BRANCH   6  10
DOCKED: ATOM      8  C12 UNL     1       5.302  -4.527  -3.136 +0.00 +0.00    +0.234 C  
DOCKED: ATOM      9  O3  UNL     1       5.485  -5.727  -3.353 +0.00 -0.00    -0.274 OA 
DOCKED: ATOM     10  N2  UNL     1       6.032  -3.536  -3.751 +0.00 -0.00    -0.303 N  
DOCKED: ATOM     11  H21 UNL     1       6.075  -2.633  -3.297 +0.00 +0.00    +0.149 HD 
DOCKED: BRANCH   8  12
DOCKED: ATOM     12  C5  UNL     1       4.219  -4.027  -2.153 +0.00 +0.00    +0.162 C  
DOCKED: BRANCH  12  13
DOCKED: ATOM     13  N1  UNL     1       3.241  -3.287  -2.955 +0.00 -0.00    -0.302 N  
DOCKED: ATOM     14  C6  UNL     1       3.559  -2.036  -3.461 +0.00 +0.00    +0.243 C  
DOCKED: ATOM     15  O1  UNL     1       4.558  -1.412  -3.104 +0.00 -0.00    -0.273 OA 
DOCKED: ATOM     16  H11 UNL     1       2.653  -3.866  -3.545 +0.00 +0.00    +0.150 HD 
DOCKED: BRANCH  14  17
DOCKED: ATOM     17  C7  UNL     1       2.552  -1.514  -4.511 +0.00 +0.00    +0.204 C  
DOCKED: ATOM     18  C8  UNL     1       1.717  -0.377  -3.906 +0.00 +0.00    +0.041 C  
DOCKED: ATOM     19  C9  UNL     1       0.579  -0.920  -3.051 +0.00 +0.00    +0.005 C  
DOCKED: ATOM     20  C10 UNL     1      -0.201  -2.020  -3.767 +0.00 +0.00    +0.028 C  
DOCKED: ATOM     21  C11 UNL     1       0.383  -2.349  -5.133 +0.00 +0.00    +0.161 C  
DOCKED: ATOM     22  O2  UNL     1       1.779  -2.591  -5.045 +0.00 -0.00    -0.367 OA 
DOCKED: ENDBRANCH  14  17
DOCKED: ENDBRANCH  12  13
DOCKED: BRANCH  12  23
DOCKED: ATOM     23  C3  UNL     1       3.520  -5.151  -1.348 +0.00 +0.00    +0.015 C  
DOCKED: ATOM     24  C4  UNL     1       4.476  -5.882  -0.398 +0.00 +0.00    +0.010 C  
DOCKED: BRANCH  23  26
DOCKED: ATOM     25  C1  UNL     1       0.991  -4.779  -1.404 +0.00 +0.00    +0.004 C  
DOCKED: ATOM     26  C2  UNL     1       2.278  -4.625  -0.601 +0.00 +0.00    +0.002 C  
DOCKED: ENDBRANCH  23  26
DOCKED: ENDBRANCH  12  23
DOCKED: ENDBRANCH   8  12
DOCKED: ENDBRANCH   6  10
DOCKED: ENDBRANCH   2   6
DOCKED: ENDBRANCH   1   4
DOCKED: BRANCH   1  27
DOCKED: ATOM     27  C21 UNL     1       7.594   0.706  -3.441 +0.00 +0.00    +0.143 C  
DOCKED: BRANCH  27  28
DOCKED: ATOM     28  O5  UNL     1       6.161   0.686  -3.281 +0.00 -0.00    -0.389 OA 
DOCKED: ATOM     29  H38 UNL     1       5.934  -0.164  -2.862 +0.00 +0.00    +0.210 HD 
DOCKED: ENDBRANCH  27  28
DOCKED: BRANCH  27  30
DOCKED: ATOM     30  C22 UNL     1       8.232   0.159  -2.163 +0.00 +0.00    +0.129 C  
DOCKED: BRANCH  30  31
DOCKED: ATOM     31  C23 UNL     1       7.854  -1.285  -1.931 +0.00 +0.00    +0.216 C  
DOCKED: ATOM     32  O6  UNL     1       6.683  -1.649  -1.861 +0.00 -0.00    -0.276 OA 
DOCKED: ATOM     33  N4  UNL     1       8.917  -2.155  -1.894 +0.00 -0.00    -0.304 N  
DOCKED: ATOM     34  H41 UNL     1       9.828  -1.771  -1.647 +0.00 +0.00    +0.149 HD 
DOCKED: BRANCH  33  35
DOCKED: ATOM     35  C24 UNL     1       8.728  -3.563  -1.548 +0.00 +0.00    +0.161 C  
DOCKED: BRANCH  35  36
DOCKED: ATOM     36  C25 UNL     1       8.223  -3.625  -0.095 +0.00 +0.00    +0.234 C  
DOCKED: ATOM     37  O7  UNL     1       8.999  -3.642   0.862 +0.00 -0.00    -0.274 OA 
DOCKED: ATOM     38  N5  UNL     1       6.853  -3.693   0.034 +0.00 -0.00    -0.310 N  
DOCKED: ATOM     39  H43 UNL     1       6.284  -3.485  -0.778 +0.00 +0.00    +0.149 HD 
DOCKED: BRANCH  38  40
DOCKED: ATOM     40  C26 UNL     1       6.211  -3.560   1.323 +0.00 +0.00    +0.139 C  
DOCKED: BRANCH  40  41
DOCKED: ATOM     41  C27 UNL     1       4.931  -2.768   1.213 +0.00 -0.00    -0.030 A  
DOCKED: ATOM     42  C28 UNL     1       3.821  -3.086   2.012 +0.00 +0.00    +0.005 A  
DOCKED: ATOM     43  C29 UNL     1       2.637  -2.352   1.917 +0.00 +0.00    +0.001 A  
DOCKED: ATOM     44  C30 UNL     1       2.544  -1.297   1.016 +0.00 +0.00    +0.015 A  
DOCKED: ATOM     45  C31 UNL     1       3.637  -0.970   0.202 +0.00 +0.00    +0.059 A  
DOCKED: ATOM     46  C33 UNL     1       4.827  -1.704   0.305 +0.00 +0.00    +0.020 A  
DOCKED: BRANCH  45  47
DOCKED: ATOM     47  C32 UNL     1       3.490   0.160  -0.751 +0.00 +0.00    +0.337 C  
DOCKED: ATOM     48  O8  UNL     1       2.447   0.702  -1.065 +0.00 -0.00    -0.245 OA 
DOCKED: BRANCH  47  49
DOCKED: ATOM     49  O9  UNL     1       4.664   0.561  -1.271 +0.00 -0.00    -0.477 OA 
DOCKED: ATOM     50  H49 UNL     1       5.020  -0.249  -1.694 +0.00 +0.00    +0.295 HD 
DOCKED: ENDBRANCH  47  49
DOCKED: ENDBRANCH  45  47
DOCKED: ENDBRANCH  40  41
DOCKED: ENDBRANCH  38  40
DOCKED: ENDBRANCH  35  36
DOCKED: BRANCH  35  51
DOCKED: ATOM     51  C34 UNL     1      10.002  -4.414  -1.735 +0.00 +0.00    +0.012 C  
DOCKED: ATOM     52  C35 UNL     1       9.657  -5.790  -2.310 +0.00 +0.00    +0.009 C  
DOCKED: ATOM     53  C36 UNL     1      11.062  -3.738  -2.612 +0.00 +0.00    +0.009 C  
DOCKED: ENDBRANCH  35  51
DOCKED: ENDBRANCH  33  35
DOCKED: ENDBRANCH  30  31
DOCKED: ENDBRANCH  27  30
DOCKED: ENDBRANCH   1  27
DOCKED: BRANCH   1  54
DOCKED: ATOM     54  C17 UNL     1       7.483   0.614  -6.002 +0.00 +0.00    +0.028 C  
DOCKED: BRANCH  54  55
DOCKED: ATOM     55  C18 UNL     1       6.281  -0.058  -6.699 +0.00 -0.00    -0.015 C  
DOCKED: ATOM     56  C19 UNL     1       4.976   0.504  -6.128 +0.00 +0.00    +0.007 C  
DOCKED: ATOM     57  C20 UNL     1       6.293   0.119  -8.215 +0.00 +0.00    +0.007 C  
DOCKED: ENDBRANCH  54  55
DOCKED: ENDBRANCH   1  54
DOCKED: TORSDOF 21
DOCKED: TER
DOCKED: ENDMDL
________________________________________________________________________________


    FINAL DOCKED STATE:
    ________________________


Run:   16 / 20
Time taken for this run:   1.466s

DOCKED: MODEL        16
DOCKED: USER    Run = 16
DOCKED: USER
DOCKED: USER    Estimated Free Energy of Binding    =  +6.26 kcal/mol  [=(1)+(2)+(3)-(4)]
DOCKED: USER
DOCKED: USER    (1) Final Intermolecular Energy     =  +0.00 kcal/mol
DOCKED: USER        vdW + Hbond + desolv Energy     =  +0.00 kcal/mol
DOCKED: USER        Electrostatic Energy            =  +0.00 kcal/mol
DOCKED: USER        Moving Ligand-Fixed Receptor    =  +0.00 kcal/mol
DOCKED: USER        Moving Ligand-Moving Receptor   =  +0.00 kcal/mol
DOCKED: USER    (2) Final Total Internal Energy     = -16.19 kcal/mol
DOCKED: USER    (3) Torsional Free Energy           =  +6.26 kcal/mol
DOCKED: USER    (4) Unbound System's Energy         = -16.19 kcal/mol
DOCKED: USER
DOCKED: USER
DOCKED: REMARK  Name = ligands/ligand_22.pdb
DOCKED: REMARK  28 active torsions:
DOCKED: REMARK  status: ('A' for Active; 'I' for Inactive)
DOCKED: REMARK    1  A    between atoms: C1_1  and  C2_2
DOCKED: REMARK    2  A    between atoms: C2_2  and  C3_3
DOCKED: REMARK    3  A    between atoms: C3_3  and  C4_4
DOCKED: REMARK    4  A    between atoms: C3_3  and  C5_5
DOCKED: REMARK    5  A    between atoms: C5_5  and  N1_6
DOCKED: REMARK    6  A    between atoms: C5_5  and  C12_15
DOCKED: REMARK    7  A    between atoms: C6_7  and  C7_9
DOCKED: REMARK    8  A    between atoms: N2_17  and  C13_18
DOCKED: REMARK    9  A    between atoms: C13_18  and  C14_19
DOCKED: REMARK   10  A    between atoms: C13_18  and  C15_20
DOCKED: REMARK   11  A    between atoms: N3_22  and  C16_23
DOCKED: REMARK   12  A    between atoms: C16_23  and  C17_24
DOCKED: REMARK   13  A    between atoms: C16_23  and  C21_28
DOCKED: REMARK   14  A    between atoms: C17_24  and  C18_25
DOCKED: REMARK   15  A    between atoms: C18_25  and  C19_26
DOCKED: REMARK   16  A    between atoms: C18_25  and  C20_27
DOCKED: REMARK   17  A    between atoms: C21_28  and  O5_29
DOCKED: REMARK   18  A    between atoms: C21_28  and  C22_30
DOCKED: REMARK   19  A    between atoms: C22_30  and  C23_31
DOCKED: REMARK   20  A    between atoms: N4_33  and  C24_34
DOCKED: REMARK   21  A    between atoms: C24_34  and  C25_35
DOCKED: REMARK   22  A    between atoms: C24_34  and  C34_48
DOCKED: REMARK   23  A    between atoms: N5_37  and  C26_38
DOCKED: REMARK   24  A    between atoms: C26_38  and  C27_39
DOCKED: REMARK   25  A    between atoms: C31_43  and  C32_44
DOCKED: REMARK   26  A    between atoms: C32_44  and  O9_46
DOCKED: REMARK   27  A    between atoms: C34_48  and  C35_49
DOCKED: REMARK   28  A    between atoms: C34_48  and  C36_50
DOCKED: REMARK                            x       y       z     vdW  Elec       q    Type
DOCKED: REMARK                         _______ _______ _______ _____ _____    ______ ____
DOCKED: USER                              x       y       z     vdW  Elec       q    Type
DOCKED: USER                           _______ _______ _______ _____ _____    ______ ____
DOCKED: ROOT
DOCKED: ATOM      1  C16 UNL     1       6.148   0.039   0.025 +0.00 +0.00    +0.102 C  
DOCKED: ENDROOT
DOCKED: BRANCH   1   4
DOCKED: ATOM      2  C15 UNL     1       7.942  -1.709   0.157 +0.00 +0.00    +0.233 C  
DOCKED: ATOM      3  O4  UNL     1       8.835  -0.936  -0.193 +0.00 -0.00    -0.274 OA 
DOCKED: ATOM      4  N3  UNL     1       6.617  -1.339   0.224 +0.00 -0.00    -0.308 N  
DOCKED: ATOM      5  H26 UNL     1       5.984  -1.925   0.756 +0.00 +0.00    +0.149 HD 
DOCKED: BRANCH   2   6
DOCKED: ATOM      6  C13 UNL     1       8.215  -3.151   0.629 +0.00 +0.00    +0.156 C  
DOCKED: ATOM      7  C14 UNL     1       7.562  -4.140  -0.334 +0.00 +0.00    +0.038 C  
DOCKED: BRANCH   6  10
DOCKED: ATOM      8  C12 UNL     1       6.340  -3.484   2.194 +0.00 +0.00    +0.234 C  
DOCKED: ATOM      9  O3  UNL     1       5.501  -3.382   1.295 +0.00 -0.00    -0.274 OA 
DOCKED: ATOM     10  N2  UNL     1       7.691  -3.356   1.972 +0.00 -0.00    -0.303 N  
DOCKED: ATOM     11  H21 UNL     1       8.320  -3.775   2.645 +0.00 +0.00    +0.149 HD 
DOCKED: BRANCH   8  12
DOCKED: ATOM     12  C5  UNL     1       5.940  -3.755   3.662 +0.00 +0.00    +0.162 C  
DOCKED: BRANCH  12  13
DOCKED: ATOM     13  N1  UNL     1       4.662  -3.069   3.877 +0.00 -0.00    -0.302 N  
DOCKED: ATOM     14  C6  UNL     1       4.208  -2.830   5.164 +0.00 +0.00    +0.243 C  
DOCKED: ATOM     15  O1  UNL     1       4.724  -3.344   6.156 +0.00 -0.00    -0.273 OA 
DOCKED: ATOM     16  H11 UNL     1       4.447  -2.353   3.191 +0.00 +0.00    +0.150 HD 
DOCKED: BRANCH  14  17
DOCKED: ATOM     17  C7  UNL     1       3.007  -1.858   5.230 +0.00 +0.00    +0.204 C  
DOCKED: ATOM     18  C8  UNL     1       1.704  -2.655   5.386 +0.00 +0.00    +0.041 C  
DOCKED: ATOM     19  C9  UNL     1       1.222  -3.195   4.045 +0.00 +0.00    +0.005 C  
DOCKED: ATOM     20  C10 UNL     1       1.229  -2.122   2.959 +0.00 +0.00    +0.028 C  
DOCKED: ATOM     21  C11 UNL     1       1.771  -0.792   3.462 +0.00 +0.00    +0.161 C  
DOCKED: ATOM     22  O2  UNL     1       3.021  -0.966   4.114 +0.00 -0.00    -0.367 OA 
DOCKED: ENDBRANCH  14  17
DOCKED: ENDBRANCH  12  13
DOCKED: BRANCH  12  23
DOCKED: ATOM     23  C3  UNL     1       5.817  -5.255   4.025 +0.00 +0.00    +0.015 C  
DOCKED: ATOM     24  C4  UNL     1       5.570  -6.143   2.799 +0.00 +0.00    +0.010 C  
DOCKED: BRANCH  23  26
DOCKED: ATOM     25  C1  UNL     1       7.463  -4.757   5.917 +0.00 +0.00    +0.004 C  
DOCKED: ATOM     26  C2  UNL     1       7.034  -5.743   4.837 +0.00 +0.00    +0.002 C  
DOCKED: ENDBRANCH  23  26
DOCKED: ENDBRANCH  12  23
DOCKED: ENDBRANCH   8  12
DOCKED: ENDBRANCH   6  10
DOCKED: ENDBRANCH   2   6
DOCKED: ENDBRANCH   1   4
DOCKED: BRANCH   1  27
DOCKED: ATOM     27  C21 UNL     1       5.427   0.534   1.314 +0.00 +0.00    +0.143 C  
DOCKED: BRANCH  27  28
DOCKED: ATOM     28  O5  UNL     1       4.593  -0.533   1.810 +0.00 -0.00    -0.389 OA 
DOCKED: ATOM     29  H38 UNL     1       4.193  -0.216   2.640 +0.00 +0.00    +0.210 HD 
DOCKED: ENDBRANCH  27  28
DOCKED: BRANCH  27  30
DOCKED: ATOM     30  C22 UNL     1       6.387   0.958   2.427 +0.00 +0.00    +0.129 C  
DOCKED: BRANCH  30  31
DOCKED: ATOM     31  C23 UNL     1       6.681  -0.187   3.368 +0.00 +0.00    +0.216 C  
DOCKED: ATOM     32  O6  UNL     1       5.790  -0.784   3.966 +0.00 -0.00    -0.276 OA 
DOCKED: ATOM     33  N4  UNL     1       8.004  -0.552   3.426 +0.00 -0.00    -0.304 N  
DOCKED: ATOM     34  H41 UNL     1       8.696   0.151   3.171 +0.00 +0.00    +0.149 HD 
DOCKED: BRANCH  33  35
DOCKED: ATOM     35  C24 UNL     1       8.469  -1.553   4.386 +0.00 +0.00    +0.161 C  
DOCKED: BRANCH  35  36
DOCKED: ATOM     36  C25 UNL     1       8.168  -1.022   5.800 +0.00 +0.00    +0.234 C  
DOCKED: ATOM     37  O7  UNL     1       8.945  -0.272   6.392 +0.00 -0.00    -0.274 OA 
DOCKED: ATOM     38  N5  UNL     1       6.989  -1.482   6.346 +0.00 -0.00    -0.310 N  
DOCKED: ATOM     39  H43 UNL     1       6.321  -1.936   5.733 +0.00 +0.00    +0.149 HD 
DOCKED: BRANCH  38  40
DOCKED: ATOM     40  C26 UNL     1       6.464  -0.931   7.575 +0.00 +0.00    +0.139 C  
DOCKED: BRANCH  40  41
DOCKED: ATOM     41  C27 UNL     1       5.167  -0.199   7.334 +0.00 -0.00    -0.030 A  
DOCKED: ATOM     42  C28 UNL     1       4.104  -0.302   8.245 +0.00 +0.00    +0.005 A  
DOCKED: ATOM     43  C29 UNL     1       2.905   0.378   8.027 +0.00 +0.00    +0.001 A  
DOCKED: ATOM     44  C30 UNL     1       2.748   1.164   6.890 +0.00 +0.00    +0.015 A  
DOCKED: ATOM     45  C31 UNL     1       3.793   1.273   5.963 +0.00 +0.00    +0.059 A  
DOCKED: ATOM     46  C33 UNL     1       4.999   0.594   6.188 +0.00 +0.00    +0.020 A  
DOCKED: BRANCH  45  47
DOCKED: ATOM     47  C32 UNL     1       3.579   2.117   4.759 +0.00 +0.00    +0.337 C  
DOCKED: ATOM     48  O8  UNL     1       3.200   3.273   4.754 +0.00 -0.00    -0.245 OA 
DOCKED: BRANCH  47  49
DOCKED: ATOM     49  O9  UNL     1       3.853   1.471   3.611 +0.00 -0.00    -0.477 OA 
DOCKED: ATOM     50  H49 UNL     1       4.093   0.567   3.905 +0.00 +0.00    +0.295 HD 
DOCKED: ENDBRANCH  47  49
DOCKED: ENDBRANCH  45  47
DOCKED: ENDBRANCH  40  41
DOCKED: ENDBRANCH  38  40
DOCKED: ENDBRANCH  35  36
DOCKED: BRANCH  35  51
DOCKED: ATOM     51  C34 UNL     1       9.964  -1.904   4.227 +0.00 +0.00    +0.012 C  
DOCKED: ATOM     52  C35 UNL     1      10.194  -3.404   4.426 +0.00 +0.00    +0.009 C  
DOCKED: ATOM     53  C36 UNL     1      10.551  -1.465   2.881 +0.00 +0.00    +0.009 C  
DOCKED: ENDBRANCH  35  51
DOCKED: ENDBRANCH  33  35
DOCKED: ENDBRANCH  30  31
DOCKED: ENDBRANCH  27  30
DOCKED: ENDBRANCH   1  27
DOCKED: BRANCH   1  54
DOCKED: ATOM     54  C17 UNL     1       5.192   0.042  -1.193 +0.00 +0.00    +0.028 C  
DOCKED: BRANCH  54  55
DOCKED: ATOM     55  C18 UNL     1       4.558  -1.330  -1.507 +0.00 -0.00    -0.015 C  
DOCKED: ATOM     56  C19 UNL     1       3.235  -1.472  -0.749 +0.00 +0.00    +0.007 C  
DOCKED: ATOM     57  C20 UNL     1       4.318  -1.550  -2.998 +0.00 +0.00    +0.007 C  
DOCKED: ENDBRANCH  54  55
DOCKED: ENDBRANCH   1  54
DOCKED: TORSDOF 21
DOCKED: TER
DOCKED: ENDMDL
________________________________________________________________________________


    FINAL DOCKED STATE:
    ________________________


Run:   17 / 20
Time taken for this run:   1.466s

DOCKED: MODEL        17
DOCKED: USER    Run = 17
DOCKED: USER
DOCKED: USER    Estimated Free Energy of Binding    =  +6.26 kcal/mol  [=(1)+(2)+(3)-(4)]
DOCKED: USER
DOCKED: USER    (1) Final Intermolecular Energy     =  +0.00 kcal/mol
DOCKED: USER        vdW + Hbond + desolv Energy     =  +0.00 kcal/mol
DOCKED: USER        Electrostatic Energy            =  +0.00 kcal/mol
DOCKED: USER        Moving Ligand-Fixed Receptor    =  +0.00 kcal/mol
DOCKED: USER        Moving Ligand-Moving Receptor   =  +0.00 kcal/mol
DOCKED: USER    (2) Final Total Internal Energy     = -16.05 kcal/mol
DOCKED: USER    (3) Torsional Free Energy           =  +6.26 kcal/mol
DOCKED: USER    (4) Unbound System's Energy         = -16.05 kcal/mol
DOCKED: USER
DOCKED: USER
DOCKED: REMARK  Name = ligands/ligand_22.pdb
DOCKED: REMARK  28 active torsions:
DOCKED: REMARK  status: ('A' for Active; 'I' for Inactive)
DOCKED: REMARK    1  A    between atoms: C1_1  and  C2_2
DOCKED: REMARK    2  A    between atoms: C2_2  and  C3_3
DOCKED: REMARK    3  A    between atoms: C3_3  and  C4_4
DOCKED: REMARK    4  A    between atoms: C3_3  and  C5_5
DOCKED: REMARK    5  A    between atoms: C5_5  and  N1_6
DOCKED: REMARK    6  A    between atoms: C5_5  and  C12_15
DOCKED: REMARK    7  A    between atoms: C6_7  and  C7_9
DOCKED: REMARK    8  A    between atoms: N2_17  and  C13_18
DOCKED: REMARK    9  A    between atoms: C13_18  and  C14_19
DOCKED: REMARK   10  A    between atoms: C13_18  and  C15_20
DOCKED: REMARK   11  A    between atoms: N3_22  and  C16_23
DOCKED: REMARK   12  A    between atoms: C16_23  and  C17_24
DOCKED: REMARK   13  A    between atoms: C16_23  and  C21_28
DOCKED: REMARK   14  A    between atoms: C17_24  and  C18_25
DOCKED: REMARK   15  A    between atoms: C18_25  and  C19_26
DOCKED: REMARK   16  A    between atoms: C18_25  and  C20_27
DOCKED: REMARK   17  A    between atoms: C21_28  and  O5_29
DOCKED: REMARK   18  A    between atoms: C21_28  and  C22_30
DOCKED: REMARK   19  A    between atoms: C22_30  and  C23_31
DOCKED: REMARK   20  A    between atoms: N4_33  and  C24_34
DOCKED: REMARK   21  A    between atoms: C24_34  and  C25_35
DOCKED: REMARK   22  A    between atoms: C24_34  and  C34_48
DOCKED: REMARK   23  A    between atoms: N5_37  and  C26_38
DOCKED: REMARK   24  A    between atoms: C26_38  and  C27_39
DOCKED: REMARK   25  A    between atoms: C31_43  and  C32_44
DOCKED: REMARK   26  A    between atoms: C32_44  and  O9_46
DOCKED: REMARK   27  A    between atoms: C34_48  and  C35_49
DOCKED: REMARK   28  A    between atoms: C34_48  and  C36_50
DOCKED: REMARK                            x       y       z     vdW  Elec       q    Type
DOCKED: REMARK                         _______ _______ _______ _____ _____    ______ ____
DOCKED: USER                              x       y       z     vdW  Elec       q    Type
DOCKED: USER                           _______ _______ _______ _____ _____    ______ ____
DOCKED: ROOT
DOCKED: ATOM      1  C16 UNL     1       6.958  -2.225   2.569 +0.00 +0.00    +0.102 C  
DOCKED: ENDROOT
DOCKED: BRANCH   1   4
DOCKED: ATOM      2  C15 UNL     1       8.236  -1.721   0.470 +0.00 +0.00    +0.233 C  
DOCKED: ATOM      3  O4  UNL     1       8.664  -2.870   0.357 +0.00 -0.00    -0.274 OA 
DOCKED: ATOM      4  N3  UNL     1       7.466  -1.312   1.536 +0.00 -0.00    -0.308 N  
DOCKED: ATOM      5  H26 UNL     1       6.939  -0.450   1.441 +0.00 +0.00    +0.149 HD 
DOCKED: BRANCH   2   6
DOCKED: ATOM      6  C13 UNL     1       8.451  -0.634  -0.602 +0.00 +0.00    +0.156 C  
DOCKED: ATOM      7  C14 UNL     1       9.881  -0.106  -0.521 +0.00 +0.00    +0.038 C  
DOCKED: BRANCH   6  10
DOCKED: ATOM      8  C12 UNL     1       7.367   1.444  -1.366 +0.00 +0.00    +0.234 C  
DOCKED: ATOM      9  O3  UNL     1       8.047   1.484  -2.395 +0.00 -0.00    -0.274 OA 
DOCKED: ATOM     10  N2  UNL     1       7.512   0.463  -0.413 +0.00 -0.00    -0.303 N  
DOCKED: ATOM     11  H21 UNL     1       6.730   0.290   0.206 +0.00 +0.00    +0.149 HD 
DOCKED: BRANCH   8  12
DOCKED: ATOM     12  C5  UNL     1       6.291   2.509  -1.052 +0.00 +0.00    +0.162 C  
DOCKED: BRANCH  12  13
DOCKED: ATOM     13  N1  UNL     1       6.748   3.218   0.146 +0.00 -0.00    -0.302 N  
DOCKED: ATOM     14  C6  UNL     1       6.700   2.598   1.384 +0.00 +0.00    +0.243 C  
DOCKED: ATOM     15  O1  UNL     1       6.100   1.540   1.572 +0.00 -0.00    -0.273 OA 
DOCKED: ATOM     16  H11 UNL     1       7.535   3.841  -0.007 +0.00 +0.00    +0.150 HD 
DOCKED: BRANCH  14  17
DOCKED: ATOM     17  C7  UNL     1       7.473   3.353   2.490 +0.00 +0.00    +0.204 C  
DOCKED: ATOM     18  C8  UNL     1       6.480   4.005   3.462 +0.00 +0.00    +0.041 C  
DOCKED: ATOM     19  C9  UNL     1       5.944   5.318   2.908 +0.00 +0.00    +0.005 C  
DOCKED: ATOM     20  C10 UNL     1       7.062   6.218   2.384 +0.00 +0.00    +0.028 C  
DOCKED: ATOM     21  C11 UNL     1       8.430   5.560   2.487 +0.00 +0.00    +0.161 C  
DOCKED: ATOM     22  O2  UNL     1       8.414   4.260   1.915 +0.00 -0.00    -0.367 OA 
DOCKED: ENDBRANCH  14  17
DOCKED: ENDBRANCH  12  13
DOCKED: BRANCH  12  23
DOCKED: ATOM     23  C3  UNL     1       6.025   3.507  -2.206 +0.00 +0.00    +0.015 C  
DOCKED: ATOM     24  C4  UNL     1       5.425   2.834  -3.446 +0.00 +0.00    +0.010 C  
DOCKED: BRANCH  23  26
DOCKED: ATOM     25  C1  UNL     1       5.993   5.884  -1.264 +0.00 +0.00    +0.004 C  
DOCKED: ATOM     26  C2  UNL     1       5.163   4.697  -1.738 +0.00 +0.00    +0.002 C  
DOCKED: ENDBRANCH  23  26
DOCKED: ENDBRANCH  12  23
DOCKED: ENDBRANCH   8  12
DOCKED: ENDBRANCH   6  10
DOCKED: ENDBRANCH   2   6
DOCKED: ENDBRANCH   1   4
DOCKED: BRANCH   1  27
DOCKED: ATOM     27  C21 UNL     1       5.472  -1.881   2.882 +0.00 +0.00    +0.143 C  
DOCKED: BRANCH  27  28
DOCKED: ATOM     28  O5  UNL     1       5.374  -0.464   3.134 +0.00 -0.00    -0.389 OA 
DOCKED: ATOM     29  H38 UNL     1       5.347  -0.023   2.265 +0.00 +0.00    +0.210 HD 
DOCKED: ENDBRANCH  27  28
DOCKED: BRANCH  27  30
DOCKED: ATOM     30  C22 UNL     1       4.508  -2.241   1.751 +0.00 +0.00    +0.129 C  
DOCKED: BRANCH  30  31
DOCKED: ATOM     31  C23 UNL     1       4.891  -1.555   0.460 +0.00 +0.00    +0.216 C  
DOCKED: ATOM     32  O6  UNL     1       5.019  -0.336   0.383 +0.00 -0.00    -0.276 OA 
DOCKED: ATOM     33  N4  UNL     1       5.165  -2.410  -0.581 +0.00 -0.00    -0.304 N  
DOCKED: ATOM     34  H41 UNL     1       4.749  -3.339  -0.546 +0.00 +0.00    +0.149 HD 
DOCKED: BRANCH  33  35
DOCKED: ATOM     35  C24 UNL     1       5.421  -1.900  -1.927 +0.00 +0.00    +0.161 C  
DOCKED: BRANCH  35  36
DOCKED: ATOM     36  C25 UNL     1       4.132  -1.221  -2.425 +0.00 +0.00    +0.234 C  
DOCKED: ATOM     37  O7  UNL     1       3.242  -1.856  -2.994 +0.00 -0.00    -0.274 OA 
DOCKED: ATOM     38  N5  UNL     1       4.081   0.139  -2.213 +0.00 -0.00    -0.310 N  
DOCKED: ATOM     39  H43 UNL     1       4.755   0.551  -1.578 +0.00 +0.00    +0.149 HD 
DOCKED: BRANCH  38  40
DOCKED: ATOM     40  C26 UNL     1       2.867   0.891  -2.441 +0.00 +0.00    +0.139 C  
DOCKED: BRANCH  40  41
DOCKED: ATOM     41  C27 UNL     1       2.685   1.961  -1.392 +0.00 -0.00    -0.030 A  
DOCKED: ATOM     42  C28 UNL     1       2.115   3.201  -1.724 +0.00 +0.00    +0.005 A  
DOCKED: ATOM     43  C29 UNL     1       1.940   4.190  -0.756 +0.00 +0.00    +0.001 A  
DOCKED: ATOM     44  C30 UNL     1       2.341   3.958   0.556 +0.00 +0.00    +0.015 A  
DOCKED: ATOM     45  C31 UNL     1       2.922   2.731   0.906 +0.00 +0.00    +0.059 A  
DOCKED: ATOM     46  C33 UNL     1       3.089   1.737  -0.068 +0.00 +0.00    +0.020 A  
DOCKED: BRANCH  45  47
DOCKED: ATOM     47  C32 UNL     1       3.342   2.529   2.316 +0.00 +0.00    +0.337 C  
DOCKED: ATOM     48  O8  UNL     1       3.433   3.394   3.168 +0.00 -0.00    -0.245 OA 
DOCKED: BRANCH  47  49
DOCKED: ATOM     49  O9  UNL     1       3.629   1.246   2.598 +0.00 -0.00    -0.477 OA 
DOCKED: ATOM     50  H49 UNL     1       4.327   1.016   1.948 +0.00 +0.00    +0.295 HD 
DOCKED: ENDBRANCH  47  49
DOCKED: ENDBRANCH  45  47
DOCKED: ENDBRANCH  40  41
DOCKED: ENDBRANCH  38  40
DOCKED: ENDBRANCH  35  36
DOCKED: BRANCH  35  51
DOCKED: ATOM     51  C34 UNL     1       5.897  -2.989  -2.912 +0.00 +0.00    +0.012 C  
DOCKED: ATOM     52  C35 UNL     1       6.943  -2.429  -3.880 +0.00 +0.00    +0.009 C  
DOCKED: ATOM     53  C36 UNL     1       6.453  -4.236  -2.217 +0.00 +0.00    +0.009 C  
DOCKED: ENDBRANCH  35  51
DOCKED: ENDBRANCH  33  35
DOCKED: ENDBRANCH  30  31
DOCKED: ENDBRANCH  27  30
DOCKED: ENDBRANCH   1  27
DOCKED: BRANCH   1  54
DOCKED: ATOM     54  C17 UNL     1       7.852  -2.063   3.823 +0.00 +0.00    +0.028 C  
DOCKED: BRANCH  54  55
DOCKED: ATOM     55  C18 UNL     1       8.775  -0.827   3.791 +0.00 -0.00    -0.015 C  
DOCKED: ATOM     56  C19 UNL     1       8.031   0.386   4.357 +0.00 +0.00    +0.007 C  
DOCKED: ATOM     57  C20 UNL     1      10.077  -1.033   4.560 +0.00 +0.00    +0.007 C  
DOCKED: ENDBRANCH  54  55
DOCKED: ENDBRANCH   1  54
DOCKED: TORSDOF 21
DOCKED: TER
DOCKED: ENDMDL
________________________________________________________________________________


    FINAL DOCKED STATE:
    ________________________


Run:   18 / 20
Time taken for this run:   1.466s

DOCKED: MODEL        18
DOCKED: USER    Run = 18
DOCKED: USER
DOCKED: USER    Estimated Free Energy of Binding    =  +6.26 kcal/mol  [=(1)+(2)+(3)-(4)]
DOCKED: USER
DOCKED: USER    (1) Final Intermolecular Energy     =  +0.00 kcal/mol
DOCKED: USER        vdW + Hbond + desolv Energy     =  +0.00 kcal/mol
DOCKED: USER        Electrostatic Energy            =  +0.00 kcal/mol
DOCKED: USER        Moving Ligand-Fixed Receptor    =  +0.00 kcal/mol
DOCKED: USER        Moving Ligand-Moving Receptor   =  +0.00 kcal/mol
DOCKED: USER    (2) Final Total Internal Energy     = -15.82 kcal/mol
DOCKED: USER    (3) Torsional Free Energy           =  +6.26 kcal/mol
DOCKED: USER    (4) Unbound System's Energy         = -15.82 kcal/mol
DOCKED: USER
DOCKED: USER
DOCKED: REMARK  Name = ligands/ligand_22.pdb
DOCKED: REMARK  28 active torsions:
DOCKED: REMARK  status: ('A' for Active; 'I' for Inactive)
DOCKED: REMARK    1  A    between atoms: C1_1  and  C2_2
DOCKED: REMARK    2  A    between atoms: C2_2  and  C3_3
DOCKED: REMARK    3  A    between atoms: C3_3  and  C4_4
DOCKED: REMARK    4  A    between atoms: C3_3  and  C5_5
DOCKED: REMARK    5  A    between atoms: C5_5  and  N1_6
DOCKED: REMARK    6  A    between atoms: C5_5  and  C12_15
DOCKED: REMARK    7  A    between atoms: C6_7  and  C7_9
DOCKED: REMARK    8  A    between atoms: N2_17  and  C13_18
DOCKED: REMARK    9  A    between atoms: C13_18  and  C14_19
DOCKED: REMARK   10  A    between atoms: C13_18  and  C15_20
DOCKED: REMARK   11  A    between atoms: N3_22  and  C16_23
DOCKED: REMARK   12  A    between atoms: C16_23  and  C17_24
DOCKED: REMARK   13  A    between atoms: C16_23  and  C21_28
DOCKED: REMARK   14  A    between atoms: C17_24  and  C18_25
DOCKED: REMARK   15  A    between atoms: C18_25  and  C19_26
DOCKED: REMARK   16  A    between atoms: C18_25  and  C20_27
DOCKED: REMARK   17  A    between atoms: C21_28  and  O5_29
DOCKED: REMARK   18  A    between atoms: C21_28  and  C22_30
DOCKED: REMARK   19  A    between atoms: C22_30  and  C23_31
DOCKED: REMARK   20  A    between atoms: N4_33  and  C24_34
DOCKED: REMARK   21  A    between atoms: C24_34  and  C25_35
DOCKED: REMARK   22  A    between atoms: C24_34  and  C34_48
DOCKED: REMARK   23  A    between atoms: N5_37  and  C26_38
DOCKED: REMARK   24  A    between atoms: C26_38  and  C27_39
DOCKED: REMARK   25  A    between atoms: C31_43  and  C32_44
DOCKED: REMARK   26  A    between atoms: C32_44  and  O9_46
DOCKED: REMARK   27  A    between atoms: C34_48  and  C35_49
DOCKED: REMARK   28  A    between atoms: C34_48  and  C36_50
DOCKED: REMARK                            x       y       z     vdW  Elec       q    Type
DOCKED: REMARK                         _______ _______ _______ _____ _____    ______ ____
DOCKED: USER                              x       y       z     vdW  Elec       q    Type
DOCKED: USER                           _______ _______ _______ _____ _____    ______ ____
DOCKED: ROOT
DOCKED: ATOM      1  C16 UNL     1      10.878  -7.532   6.059 +0.00 +0.00    +0.102 C  
DOCKED: ENDROOT
DOCKED: BRANCH   1   4
DOCKED: ATOM      2  C15 UNL     1      10.011  -8.846   4.106 +0.00 +0.00    +0.233 C  
DOCKED: ATOM      3  O4  UNL     1       8.849  -8.470   4.263 +0.00 -0.00    -0.274 OA 
DOCKED: ATOM      4  N3  UNL     1      11.033  -8.496   4.960 +0.00 -0.00    -0.308 N  
DOCKED: ATOM      5  H26 UNL     1      11.987  -8.616   4.638 +0.00 +0.00    +0.149 HD 
DOCKED: BRANCH   2   6
DOCKED: ATOM      6  C13 UNL     1      10.466  -9.688   2.896 +0.00 +0.00    +0.156 C  
DOCKED: ATOM      7  C14 UNL     1       9.481 -10.830   2.665 +0.00 +0.00    +0.038 C  
DOCKED: BRANCH   6  10
DOCKED: ATOM      8  C12 UNL     1      12.047 -11.087   4.168 +0.00 +0.00    +0.234 C  
DOCKED: ATOM      9  O3  UNL     1      11.186 -11.406   4.991 +0.00 -0.00    -0.274 OA 
DOCKED: ATOM     10  N2  UNL     1      11.799 -10.227   3.123 +0.00 -0.00    -0.303 N  
DOCKED: ATOM     11  H21 UNL     1      12.413 -10.275   2.320 +0.00 +0.00    +0.149 HD 
DOCKED: BRANCH   8  12
DOCKED: ATOM     12  C5  UNL     1      13.495 -11.622   4.247 +0.00 +0.00    +0.162 C  
DOCKED: BRANCH  12  13
DOCKED: ATOM     13  N1  UNL     1      14.345 -10.472   4.564 +0.00 -0.00    -0.302 N  
DOCKED: ATOM     14  C6  UNL     1      15.654 -10.427   4.110 +0.00 +0.00    +0.243 C  
DOCKED: ATOM     15  O1  UNL     1      16.218 -11.403   3.617 +0.00 -0.00    -0.273 OA 
DOCKED: ATOM     16  H11 UNL     1      13.858  -9.583   4.597 +0.00 +0.00    +0.150 HD 
DOCKED: BRANCH  14  17
DOCKED: ATOM     17  C7  UNL     1      16.324  -9.043   4.276 +0.00 +0.00    +0.204 C  
DOCKED: ATOM     18  C8  UNL     1      17.692  -9.208   4.952 +0.00 +0.00    +0.041 C  
DOCKED: ATOM     19  C9  UNL     1      17.550  -9.345   6.462 +0.00 +0.00    +0.005 C  
DOCKED: ATOM     20  C10 UNL     1      16.633  -8.275   7.051 +0.00 +0.00    +0.028 C  
DOCKED: ATOM     21  C11 UNL     1      16.037  -7.372   5.982 +0.00 +0.00    +0.161 C  
DOCKED: ATOM     22  O2  UNL     1      15.444  -8.136   4.942 +0.00 -0.00    -0.367 OA 
DOCKED: ENDBRANCH  14  17
DOCKED: ENDBRANCH  12  13
DOCKED: BRANCH  12  23
DOCKED: ATOM     23  C3  UNL     1      13.703 -12.753   5.285 +0.00 +0.00    +0.015 C  
DOCKED: ATOM     24  C4  UNL     1      14.499 -13.935   4.722 +0.00 +0.00    +0.010 C  
DOCKED: BRANCH  23  26
DOCKED: ATOM     25  C1  UNL     1      13.405 -11.287   7.359 +0.00 +0.00    +0.004 C  
DOCKED: ATOM     26  C2  UNL     1      14.333 -12.218   6.586 +0.00 +0.00    +0.002 C  
DOCKED: ENDBRANCH  23  26
DOCKED: ENDBRANCH  12  23
DOCKED: ENDBRANCH   8  12
DOCKED: ENDBRANCH   6  10
DOCKED: ENDBRANCH   2   6
DOCKED: ENDBRANCH   1   4
DOCKED: BRANCH   1  27
DOCKED: ATOM     27  C21 UNL     1      12.276  -7.203   6.662 +0.00 +0.00    +0.143 C  
DOCKED: BRANCH  27  28
DOCKED: ATOM     28  O5  UNL     1      13.238  -8.130   6.119 +0.00 -0.00    -0.389 OA 
DOCKED: ATOM     29  H38 UNL     1      13.281  -7.964   5.160 +0.00 +0.00    +0.210 HD 
DOCKED: ENDBRANCH  27  28
DOCKED: BRANCH  27  30
DOCKED: ATOM     30  C22 UNL     1      12.751  -5.780   6.364 +0.00 +0.00    +0.129 C  
DOCKED: BRANCH  30  31
DOCKED: ATOM     31  C23 UNL     1      12.782  -5.508   4.878 +0.00 +0.00    +0.216 C  
DOCKED: ATOM     32  O6  UNL     1      11.987  -4.743   4.340 +0.00 -0.00    -0.276 OA 
DOCKED: ATOM     33  N4  UNL     1      13.817  -6.114   4.208 +0.00 -0.00    -0.304 N  
DOCKED: ATOM     34  H41 UNL     1      14.224  -6.948   4.630 +0.00 +0.00    +0.149 HD 
DOCKED: BRANCH  33  35
DOCKED: ATOM     35  C24 UNL     1      13.908  -6.055   2.750 +0.00 +0.00    +0.161 C  
DOCKED: BRANCH  35  36
DOCKED: ATOM     36  C25 UNL     1      13.553  -7.449   2.201 +0.00 +0.00    +0.234 C  
DOCKED: ATOM     37  O7  UNL     1      13.404  -8.421   2.943 +0.00 -0.00    -0.274 OA 
DOCKED: ATOM     38  N5  UNL     1      13.454  -7.517   0.828 +0.00 -0.00    -0.310 N  
DOCKED: ATOM     39  H43 UNL     1      13.402  -6.648   0.308 +0.00 +0.00    +0.149 HD 
DOCKED: BRANCH  38  40
DOCKED: ATOM     40  C26 UNL     1      12.939  -8.696   0.168 +0.00 +0.00    +0.139 C  
DOCKED: BRANCH  40  41
DOCKED: ATOM     41  C27 UNL     1      13.853  -9.878   0.375 +0.00 -0.00    -0.030 A  
DOCKED: ATOM     42  C28 UNL     1      13.342 -11.185   0.395 +0.00 +0.00    +0.005 A  
DOCKED: ATOM     43  C29 UNL     1      14.185 -12.282   0.580 +0.00 +0.00    +0.001 A  
DOCKED: ATOM     44  C30 UNL     1      15.551 -12.085   0.759 +0.00 +0.00    +0.015 A  
DOCKED: ATOM     45  C31 UNL     1      16.080 -10.788   0.753 +0.00 +0.00    +0.059 A  
DOCKED: ATOM     46  C33 UNL     1      15.231  -9.689   0.559 +0.00 +0.00    +0.020 A  
DOCKED: BRANCH  45  47
DOCKED: ATOM     47  C32 UNL     1      17.543 -10.625   0.955 +0.00 +0.00    +0.337 C  
DOCKED: ATOM     48  O8  UNL     1      18.232  -9.726   0.508 +0.00 -0.00    -0.245 OA 
DOCKED: BRANCH  47  49
DOCKED: ATOM     49  O9  UNL     1      18.079 -11.600   1.711 +0.00 -0.00    -0.477 OA 
DOCKED: ATOM     50  H49 UNL     1      17.461 -11.673   2.468 +0.00 +0.00    +0.295 HD 
DOCKED: ENDBRANCH  47  49
DOCKED: ENDBRANCH  45  47
DOCKED: ENDBRANCH  40  41
DOCKED: ENDBRANCH  38  40
DOCKED: ENDBRANCH  35  36
DOCKED: BRANCH  35  51
DOCKED: ATOM     51  C34 UNL     1      15.289  -5.589   2.243 +0.00 +0.00    +0.012 C  
DOCKED: ATOM     52  C35 UNL     1      15.950  -4.648   3.254 +0.00 +0.00    +0.009 C  
DOCKED: ATOM     53  C36 UNL     1      16.239  -6.745   1.916 +0.00 +0.00    +0.009 C  
DOCKED: ENDBRANCH  35  51
DOCKED: ENDBRANCH  33  35
DOCKED: ENDBRANCH  30  31
DOCKED: ENDBRANCH  27  30
DOCKED: ENDBRANCH   1  27
DOCKED: BRANCH   1  54
DOCKED: ATOM     54  C17 UNL     1       9.942  -8.167   7.116 +0.00 +0.00    +0.028 C  
DOCKED: BRANCH  54  55
DOCKED: ATOM     55  C18 UNL     1      10.302  -9.620   7.492 +0.00 -0.00    -0.015 C  
DOCKED: ATOM     56  C19 UNL     1      10.738  -9.680   8.959 +0.00 +0.00    +0.007 C  
DOCKED: ATOM     57  C20 UNL     1       9.154 -10.599   7.261 +0.00 +0.00    +0.007 C  
DOCKED: ENDBRANCH  54  55
DOCKED: ENDBRANCH   1  54
DOCKED: TORSDOF 21
DOCKED: TER
DOCKED: ENDMDL
________________________________________________________________________________


    FINAL DOCKED STATE:
    ________________________


Run:   19 / 20
Time taken for this run:   1.466s

DOCKED: MODEL        19
DOCKED: USER    Run = 19
DOCKED: USER
DOCKED: USER    Estimated Free Energy of Binding    =  +6.26 kcal/mol  [=(1)+(2)+(3)-(4)]
DOCKED: USER
DOCKED: USER    (1) Final Intermolecular Energy     =  +0.00 kcal/mol
DOCKED: USER        vdW + Hbond + desolv Energy     =  +0.00 kcal/mol
DOCKED: USER        Electrostatic Energy            =  +0.00 kcal/mol
DOCKED: USER        Moving Ligand-Fixed Receptor    =  +0.00 kcal/mol
DOCKED: USER        Moving Ligand-Moving Receptor   =  +0.00 kcal/mol
DOCKED: USER    (2) Final Total Internal Energy     = -15.82 kcal/mol
DOCKED: USER    (3) Torsional Free Energy           =  +6.26 kcal/mol
DOCKED: USER    (4) Unbound System's Energy         = -15.82 kcal/mol
DOCKED: USER
DOCKED: USER
DOCKED: REMARK  Name = ligands/ligand_22.pdb
DOCKED: REMARK  28 active torsions:
DOCKED: REMARK  status: ('A' for Active; 'I' for Inactive)
DOCKED: REMARK    1  A    between atoms: C1_1  and  C2_2
DOCKED: REMARK    2  A    between atoms: C2_2  and  C3_3
DOCKED: REMARK    3  A    between atoms: C3_3  and  C4_4
DOCKED: REMARK    4  A    between atoms: C3_3  and  C5_5
DOCKED: REMARK    5  A    between atoms: C5_5  and  N1_6
DOCKED: REMARK    6  A    between atoms: C5_5  and  C12_15
DOCKED: REMARK    7  A    between atoms: C6_7  and  C7_9
DOCKED: REMARK    8  A    between atoms: N2_17  and  C13_18
DOCKED: REMARK    9  A    between atoms: C13_18  and  C14_19
DOCKED: REMARK   10  A    between atoms: C13_18  and  C15_20
DOCKED: REMARK   11  A    between atoms: N3_22  and  C16_23
DOCKED: REMARK   12  A    between atoms: C16_23  and  C17_24
DOCKED: REMARK   13  A    between atoms: C16_23  and  C21_28
DOCKED: REMARK   14  A    between atoms: C17_24  and  C18_25
DOCKED: REMARK   15  A    between atoms: C18_25  and  C19_26
DOCKED: REMARK   16  A    between atoms: C18_25  and  C20_27
DOCKED: REMARK   17  A    between atoms: C21_28  and  O5_29
DOCKED: REMARK   18  A    between atoms: C21_28  and  C22_30
DOCKED: REMARK   19  A    between atoms: C22_30  and  C23_31
DOCKED: REMARK   20  A    between atoms: N4_33  and  C24_34
DOCKED: REMARK   21  A    between atoms: C24_34  and  C25_35
DOCKED: REMARK   22  A    between atoms: C24_34  and  C34_48
DOCKED: REMARK   23  A    between atoms: N5_37  and  C26_38
DOCKED: REMARK   24  A    between atoms: C26_38  and  C27_39
DOCKED: REMARK   25  A    between atoms: C31_43  and  C32_44
DOCKED: REMARK   26  A    between atoms: C32_44  and  O9_46
DOCKED: REMARK   27  A    between atoms: C34_48  and  C35_49
DOCKED: REMARK   28  A    between atoms: C34_48  and  C36_50
DOCKED: REMARK                            x       y       z     vdW  Elec       q    Type
DOCKED: REMARK                         _______ _______ _______ _____ _____    ______ ____
DOCKED: USER                              x       y       z     vdW  Elec       q    Type
DOCKED: USER                           _______ _______ _______ _____ _____    ______ ____
DOCKED: ROOT
DOCKED: ATOM      1  C16 UNL     1      12.799   0.671  -1.369 +0.00 +0.00    +0.102 C  
DOCKED: ENDROOT
DOCKED: BRANCH   1   4
DOCKED: ATOM      2  C15 UNL     1      12.945  -1.095  -3.143 +0.00 +0.00    +0.233 C  
DOCKED: ATOM      3  O4  UNL     1      13.828  -1.725  -2.558 +0.00 -0.00    -0.274 OA 
DOCKED: ATOM      4  N3  UNL     1      12.443   0.098  -2.674 +0.00 -0.00    -0.308 N  
DOCKED: ATOM      5  H26 UNL     1      11.559   0.424  -3.050 +0.00 +0.00    +0.149 HD 
DOCKED: BRANCH   2   6
DOCKED: ATOM      6  C13 UNL     1      12.254  -1.607  -4.423 +0.00 +0.00    +0.156 C  
DOCKED: ATOM      7  C14 UNL     1      13.303  -2.126  -5.402 +0.00 +0.00    +0.038 C  
DOCKED: BRANCH   6  10
DOCKED: ATOM      8  C12 UNL     1      12.098   0.600  -5.509 +0.00 +0.00    +0.234 C  
DOCKED: ATOM      9  O3  UNL     1      13.306   0.810  -5.377 +0.00 -0.00    -0.274 OA 
DOCKED: ATOM     10  N2  UNL     1      11.484  -0.541  -5.048 +0.00 -0.00    -0.303 N  
DOCKED: ATOM     11  H21 UNL     1      10.604  -0.805  -5.472 +0.00 +0.00    +0.149 HD 
DOCKED: BRANCH   8  12
DOCKED: ATOM     12  C5  UNL     1      11.160   1.616  -6.200 +0.00 +0.00    +0.162 C  
DOCKED: BRANCH  12  13
DOCKED: ATOM     13  N1  UNL     1      10.257   2.118  -5.161 +0.00 -0.00    -0.302 N  
DOCKED: ATOM     14  C6  UNL     1       8.965   2.502  -5.487 +0.00 +0.00    +0.243 C  
DOCKED: ATOM     15  O1  UNL     1       8.588   2.636  -6.650 +0.00 -0.00    -0.273 OA 
DOCKED: ATOM     16  H11 UNL     1      10.373   1.681  -4.253 +0.00 +0.00    +0.150 HD 
DOCKED: BRANCH  14  17
DOCKED: ATOM     17  C7  UNL     1       8.055   2.732  -4.259 +0.00 +0.00    +0.204 C  
DOCKED: ATOM     18  C8  UNL     1       7.354   4.092  -4.382 +0.00 +0.00    +0.041 C  
DOCKED: ATOM     19  C9  UNL     1       8.270   5.228  -3.945 +0.00 +0.00    +0.005 C  
DOCKED: ATOM     20  C10 UNL     1       8.945   4.937  -2.606 +0.00 +0.00    +0.028 C  
DOCKED: ATOM     21  C11 UNL     1       8.587   3.562  -2.064 +0.00 +0.00    +0.161 C  
DOCKED: ATOM     22  O2  UNL     1       8.792   2.558  -3.048 +0.00 -0.00    -0.367 OA 
DOCKED: ENDBRANCH  14  17
DOCKED: ENDBRANCH  12  13
DOCKED: BRANCH  12  23
DOCKED: ATOM     23  C3  UNL     1      11.891   2.789  -6.897 +0.00 +0.00    +0.015 C  
DOCKED: ATOM     24  C4  UNL     1      11.344   3.080  -8.299 +0.00 +0.00    +0.010 C  
DOCKED: BRANCH  23  26
DOCKED: ATOM     25  C1  UNL     1      12.724   3.903  -4.750 +0.00 +0.00    +0.004 C  
DOCKED: ATOM     26  C2  UNL     1      11.893   4.057  -6.019 +0.00 +0.00    +0.002 C  
DOCKED: ENDBRANCH  23  26
DOCKED: ENDBRANCH  12  23
DOCKED: ENDBRANCH   8  12
DOCKED: ENDBRANCH   6  10
DOCKED: ENDBRANCH   2   6
DOCKED: ENDBRANCH   1   4
DOCKED: BRANCH   1  27
DOCKED: ATOM     27  C21 UNL     1      11.906   1.916  -1.088 +0.00 +0.00    +0.143 C  
DOCKED: BRANCH  27  28
DOCKED: ATOM     28  O5  UNL     1      11.172   2.234  -2.289 +0.00 -0.00    -0.389 OA 
DOCKED: ATOM     29  H38 UNL     1      10.602   1.469  -2.483 +0.00 +0.00    +0.210 HD 
DOCKED: ENDBRANCH  27  28
DOCKED: BRANCH  27  30
DOCKED: ATOM     30  C22 UNL     1      10.906   1.709   0.050 +0.00 +0.00    +0.129 C  
DOCKED: BRANCH  30  31
DOCKED: ATOM     31  C23 UNL     1      10.035   0.498  -0.193 +0.00 +0.00    +0.216 C  
DOCKED: ATOM     32  O6  UNL     1      10.117  -0.513   0.497 +0.00 -0.00    -0.276 OA 
DOCKED: ATOM     33  N4  UNL     1       9.098   0.661  -1.185 +0.00 -0.00    -0.304 N  
DOCKED: ATOM     34  H41 UNL     1       9.286   1.364  -1.898 +0.00 +0.00    +0.149 HD 
DOCKED: BRANCH  33  35
DOCKED: ATOM     35  C24 UNL     1       8.269  -0.460  -1.629 +0.00 +0.00    +0.161 C  
DOCKED: BRANCH  35  36
DOCKED: ATOM     36  C25 UNL     1       8.710  -0.833  -3.056 +0.00 +0.00    +0.234 C  
DOCKED: ATOM     37  O7  UNL     1       9.516  -0.148  -3.687 +0.00 -0.00    -0.274 OA 
DOCKED: ATOM     38  N5  UNL     1       8.105  -1.961  -3.566 +0.00 -0.00    -0.310 N  
DOCKED: ATOM     39  H43 UNL     1       7.605  -2.568  -2.927 +0.00 +0.00    +0.149 HD 
DOCKED: BRANCH  38  40
DOCKED: ATOM     40  C26 UNL     1       8.549  -2.557  -4.807 +0.00 +0.00    +0.139 C  
DOCKED: BRANCH  40  41
DOCKED: ATOM     41  C27 UNL     1       8.323  -1.623  -5.971 +0.00 -0.00    -0.030 A  
DOCKED: ATOM     42  C28 UNL     1       9.169  -1.654  -7.090 +0.00 +0.00    +0.005 A  
DOCKED: ATOM     43  C29 UNL     1       8.959  -0.795  -8.171 +0.00 +0.00    +0.001 A  
DOCKED: ATOM     44  C30 UNL     1       7.905   0.113  -8.142 +0.00 +0.00    +0.015 A  
DOCKED: ATOM     45  C31 UNL     1       7.055   0.167  -7.029 +0.00 +0.00    +0.059 A  
DOCKED: ATOM     46  C33 UNL     1       7.265  -0.702  -5.949 +0.00 +0.00    +0.020 A  
DOCKED: BRANCH  45  47
DOCKED: ATOM     47  C32 UNL     1       5.948   1.157  -7.038 +0.00 +0.00    +0.337 C  
DOCKED: ATOM     48  O8  UNL     1       4.891   1.055  -6.444 +0.00 -0.00    -0.245 OA 
DOCKED: BRANCH  47  49
DOCKED: ATOM     49  O9  UNL     1       6.217   2.237  -7.794 +0.00 -0.00    -0.477 OA 
DOCKED: ATOM     50  H49 UNL     1       7.117   2.502  -7.508 +0.00 +0.00    +0.295 HD 
DOCKED: ENDBRANCH  47  49
DOCKED: ENDBRANCH  45  47
DOCKED: ENDBRANCH  40  41
DOCKED: ENDBRANCH  38  40
DOCKED: ENDBRANCH  35  36
DOCKED: BRANCH  35  51
DOCKED: ATOM     51  C34 UNL     1       6.756  -0.159  -1.571 +0.00 +0.00    +0.012 C  
DOCKED: ATOM     52  C35 UNL     1       6.436   0.805  -0.426 +0.00 +0.00    +0.009 C  
DOCKED: ATOM     53  C36 UNL     1       6.195   0.394  -2.885 +0.00 +0.00    +0.009 C  
DOCKED: ENDBRANCH  35  51
DOCKED: ENDBRANCH  33  35
DOCKED: ENDBRANCH  30  31
DOCKED: ENDBRANCH  27  30
DOCKED: ENDBRANCH   1  27
DOCKED: BRANCH   1  54
DOCKED: ATOM     54  C17 UNL     1      14.299   1.051  -1.413 +0.00 +0.00    +0.028 C  
DOCKED: BRANCH  54  55
DOCKED: ATOM     55  C18 UNL     1      14.719   1.836  -2.673 +0.00 -0.00    -0.015 C  
DOCKED: ATOM     56  C19 UNL     1      15.150   3.251  -2.278 +0.00 +0.00    +0.007 C  
DOCKED: ATOM     57  C20 UNL     1      15.844   1.159  -3.451 +0.00 +0.00    +0.007 C  
DOCKED: ENDBRANCH  54  55
DOCKED: ENDBRANCH   1  54
DOCKED: TORSDOF 21
DOCKED: TER
DOCKED: ENDMDL
________________________________________________________________________________


    FINAL DOCKED STATE:
    ________________________


Run:   20 / 20
Time taken for this run:   1.466s

DOCKED: MODEL        20
DOCKED: USER    Run = 20
DOCKED: USER
DOCKED: USER    Estimated Free Energy of Binding    =  +6.26 kcal/mol  [=(1)+(2)+(3)-(4)]
DOCKED: USER
DOCKED: USER    (1) Final Intermolecular Energy     =  +0.00 kcal/mol
DOCKED: USER        vdW + Hbond + desolv Energy     =  +0.00 kcal/mol
DOCKED: USER        Electrostatic Energy            =  +0.00 kcal/mol
DOCKED: USER        Moving Ligand-Fixed Receptor    =  +0.00 kcal/mol
DOCKED: USER        Moving Ligand-Moving Receptor   =  +0.00 kcal/mol
DOCKED: USER    (2) Final Total Internal Energy     = -16.05 kcal/mol
DOCKED: USER    (3) Torsional Free Energy           =  +6.26 kcal/mol
DOCKED: USER    (4) Unbound System's Energy         = -16.05 kcal/mol
DOCKED: USER
DOCKED: USER
DOCKED: REMARK  Name = ligands/ligand_22.pdb
DOCKED: REMARK  28 active torsions:
DOCKED: REMARK  status: ('A' for Active; 'I' for Inactive)
DOCKED: REMARK    1  A    between atoms: C1_1  and  C2_2
DOCKED: REMARK    2  A    between atoms: C2_2  and  C3_3
DOCKED: REMARK    3  A    between atoms: C3_3  and  C4_4
DOCKED: REMARK    4  A    between atoms: C3_3  and  C5_5
DOCKED: REMARK    5  A    between atoms: C5_5  and  N1_6
DOCKED: REMARK    6  A    between atoms: C5_5  and  C12_15
DOCKED: REMARK    7  A    between atoms: C6_7  and  C7_9
DOCKED: REMARK    8  A    between atoms: N2_17  and  C13_18
DOCKED: REMARK    9  A    between atoms: C13_18  and  C14_19
DOCKED: REMARK   10  A    between atoms: C13_18  and  C15_20
DOCKED: REMARK   11  A    between atoms: N3_22  and  C16_23
DOCKED: REMARK   12  A    between atoms: C16_23  and  C17_24
DOCKED: REMARK   13  A    between atoms: C16_23  and  C21_28
DOCKED: REMARK   14  A    between atoms: C17_24  and  C18_25
DOCKED: REMARK   15  A    between atoms: C18_25  and  C19_26
DOCKED: REMARK   16  A    between atoms: C18_25  and  C20_27
DOCKED: REMARK   17  A    between atoms: C21_28  and  O5_29
DOCKED: REMARK   18  A    between atoms: C21_28  and  C22_30
DOCKED: REMARK   19  A    between atoms: C22_30  and  C23_31
DOCKED: REMARK   20  A    between atoms: N4_33  and  C24_34
DOCKED: REMARK   21  A    between atoms: C24_34  and  C25_35
DOCKED: REMARK   22  A    between atoms: C24_34  and  C34_48
DOCKED: REMARK   23  A    between atoms: N5_37  and  C26_38
DOCKED: REMARK   24  A    between atoms: C26_38  and  C27_39
DOCKED: REMARK   25  A    between atoms: C31_43  and  C32_44
DOCKED: REMARK   26  A    between atoms: C32_44  and  O9_46
DOCKED: REMARK   27  A    between atoms: C34_48  and  C35_49
DOCKED: REMARK   28  A    between atoms: C34_48  and  C36_50
DOCKED: REMARK                            x       y       z     vdW  Elec       q    Type
DOCKED: REMARK                         _______ _______ _______ _____ _____    ______ ____
DOCKED: USER                              x       y       z     vdW  Elec       q    Type
DOCKED: USER                           _______ _______ _______ _____ _____    ______ ____
DOCKED: ROOT
DOCKED: ATOM      1  C16 UNL     1       7.143  -6.999  -6.724 +0.00 +0.00    +0.102 C  
DOCKED: ENDROOT
DOCKED: BRANCH   1   4
DOCKED: ATOM      2  C15 UNL     1       8.224  -5.477  -5.050 +0.00 +0.00    +0.233 C  
DOCKED: ATOM      3  O4  UNL     1       7.220  -5.411  -4.339 +0.00 -0.00    -0.274 OA 
DOCKED: ATOM      4  N3  UNL     1       8.251  -6.163  -6.243 +0.00 -0.00    -0.308 N  
DOCKED: ATOM      5  H26 UNL     1       9.155  -6.393  -6.641 +0.00 +0.00    +0.149 HD 
DOCKED: BRANCH   2   6
DOCKED: ATOM      6  C13 UNL     1       9.580  -4.861  -4.649 +0.00 +0.00    +0.156 C  
DOCKED: ATOM      7  C14 UNL     1       9.540  -3.350  -4.855 +0.00 +0.00    +0.038 C  
DOCKED: BRANCH   6  10
DOCKED: ATOM      8  C12 UNL     1      11.973  -5.224  -5.109 +0.00 +0.00    +0.234 C  
DOCKED: ATOM      9  O3  UNL     1      12.319  -4.504  -4.170 +0.00 -0.00    -0.274 OA 
DOCKED: ATOM     10  N2  UNL     1      10.656  -5.437  -5.442 +0.00 -0.00    -0.303 N  
DOCKED: ATOM     11  H21 UNL     1      10.434  -6.270  -5.973 +0.00 +0.00    +0.149 HD 
DOCKED: BRANCH   8  12
DOCKED: ATOM     12  C5  UNL     1      13.002  -5.946  -6.010 +0.00 +0.00    +0.162 C  
DOCKED: BRANCH  12  13
DOCKED: ATOM     13  N1  UNL     1      12.849  -5.378  -7.352 +0.00 -0.00    -0.302 N  
DOCKED: ATOM     14  C6  UNL     1      11.739  -5.696  -8.120 +0.00 +0.00    +0.243 C  
DOCKED: ATOM     15  O1  UNL     1      10.960  -6.598  -7.817 +0.00 -0.00    -0.273 OA 
DOCKED: ATOM     16  H11 UNL     1      13.201  -4.432  -7.453 +0.00 +0.00    +0.150 HD 
DOCKED: BRANCH  14  17
DOCKED: ATOM     17  C7  UNL     1      11.576  -4.807  -9.375 +0.00 +0.00    +0.204 C  
DOCKED: ATOM     18  C8  UNL     1      11.911  -5.622 -10.632 +0.00 +0.00    +0.041 C  
DOCKED: ATOM     19  C9  UNL     1      13.416  -5.700 -10.856 +0.00 +0.00    +0.005 C  
DOCKED: ATOM     20  C10 UNL     1      14.084  -4.332 -10.742 +0.00 +0.00    +0.028 C  
DOCKED: ATOM     21  C11 UNL     1      13.097  -3.234 -10.374 +0.00 +0.00    +0.161 C  
DOCKED: ATOM     22  O2  UNL     1      12.328  -3.601  -9.238 +0.00 -0.00    -0.367 OA 
DOCKED: ENDBRANCH  14  17
DOCKED: ENDBRANCH  12  13
DOCKED: BRANCH  12  23
DOCKED: ATOM     23  C3  UNL     1      14.469  -5.820  -5.532 +0.00 +0.00    +0.015 C  
DOCKED: ATOM     24  C4  UNL     1      14.703  -6.463  -4.160 +0.00 +0.00    +0.010 C  
DOCKED: BRANCH  23  26
DOCKED: ATOM     25  C1  UNL     1      15.945  -5.291  -7.552 +0.00 +0.00    +0.004 C  
DOCKED: ATOM     26  C2  UNL     1      15.457  -6.363  -6.584 +0.00 +0.00    +0.002 C  
DOCKED: ENDBRANCH  23  26
DOCKED: ENDBRANCH  12  23
DOCKED: ENDBRANCH   8  12
DOCKED: ENDBRANCH   6  10
DOCKED: ENDBRANCH   2   6
DOCKED: ENDBRANCH   1   4
DOCKED: BRANCH   1  27
DOCKED: ATOM     27  C21 UNL     1       7.710  -8.334  -7.292 +0.00 +0.00    +0.143 C  
DOCKED: BRANCH  27  28
DOCKED: ATOM     28  O5  UNL     1       8.764  -8.024  -8.227 +0.00 -0.00    -0.389 OA 
DOCKED: ATOM     29  H38 UNL     1       9.565  -7.849  -7.701 +0.00 +0.00    +0.210 HD 
DOCKED: ENDBRANCH  27  28
DOCKED: BRANCH  27  30
DOCKED: ATOM     30  C22 UNL     1       8.272  -9.267  -6.219 +0.00 +0.00    +0.129 C  
DOCKED: BRANCH  30  31
DOCKED: ATOM     31  C23 UNL     1       9.363  -8.594  -5.419 +0.00 +0.00    +0.216 C  
DOCKED: ATOM     32  O6  UNL     1      10.354  -8.105  -5.953 +0.00 -0.00    -0.276 OA 
DOCKED: ATOM     33  N4  UNL     1       9.109  -8.503  -4.072 +0.00 -0.00    -0.304 N  
DOCKED: ATOM     34  H41 UNL     1       8.459  -9.178  -3.670 +0.00 +0.00    +0.149 HD 
DOCKED: BRANCH  33  35
DOCKED: ATOM     35  C24 UNL     1      10.122  -7.998  -3.146 +0.00 +0.00    +0.161 C  
DOCKED: BRANCH  35  36
DOCKED: ATOM     36  C25 UNL     1      11.304  -8.986  -3.160 +0.00 +0.00    +0.234 C  
DOCKED: ATOM     37  O7  UNL     1      11.335  -9.971  -2.422 +0.00 -0.00    -0.274 OA 
DOCKED: ATOM     38  N5  UNL     1      12.319  -8.654  -4.030 +0.00 -0.00    -0.310 N  
DOCKED: ATOM     39  H43 UNL     1      12.138  -7.944  -4.731 +0.00 +0.00    +0.149 HD 
DOCKED: BRANCH  38  40
DOCKED: ATOM     40  C26 UNL     1      13.402  -9.571  -4.308 +0.00 +0.00    +0.139 C  
DOCKED: BRANCH  40  41
DOCKED: ATOM     41  C27 UNL     1      13.803  -9.516  -5.761 +0.00 -0.00    -0.030 A  
DOCKED: ATOM     42  C28 UNL     1      15.142  -9.691  -6.144 +0.00 +0.00    +0.005 A  
DOCKED: ATOM     43  C29 UNL     1      15.515  -9.646  -7.488 +0.00 +0.00    +0.001 A  
DOCKED: ATOM     44  C30 UNL     1      14.555  -9.417  -8.468 +0.00 +0.00    +0.015 A  
DOCKED: ATOM     45  C31 UNL     1      13.214  -9.229  -8.107 +0.00 +0.00    +0.059 A  
DOCKED: ATOM     46  C33 UNL     1      12.842  -9.282  -6.756 +0.00 +0.00    +0.020 A  
DOCKED: BRANCH  45  47
DOCKED: ATOM     47  C32 UNL     1      12.224  -8.980  -9.186 +0.00 +0.00    +0.337 C  
DOCKED: ATOM     48  O8  UNL     1      12.480  -8.684 -10.339 +0.00 -0.00    -0.245 OA 
DOCKED: BRANCH  47  49
DOCKED: ATOM     49  O9  UNL     1      10.952  -9.114  -8.770 +0.00 -0.00    -0.477 OA 
DOCKED: ATOM     50  H49 UNL     1      10.877  -8.467  -8.038 +0.00 +0.00    +0.295 HD 
DOCKED: ENDBRANCH  47  49
DOCKED: ENDBRANCH  45  47
DOCKED: ENDBRANCH  40  41
DOCKED: ENDBRANCH  38  40
DOCKED: ENDBRANCH  35  36
DOCKED: BRANCH  35  51
DOCKED: ATOM     51  C34 UNL     1       9.588  -7.784  -1.714 +0.00 +0.00    +0.012 C  
DOCKED: ATOM     52  C35 UNL     1      10.187  -6.519  -1.094 +0.00 +0.00    +0.009 C  
DOCKED: ATOM     53  C36 UNL     1       8.059  -7.722  -1.638 +0.00 +0.00    +0.009 C  
DOCKED: ENDBRANCH  35  51
DOCKED: ENDBRANCH  33  35
DOCKED: ENDBRANCH  30  31
DOCKED: ENDBRANCH  27  30
DOCKED: ENDBRANCH   1  27
DOCKED: BRANCH   1  54
DOCKED: ATOM     54  C17 UNL     1       6.384  -6.200  -7.811 +0.00 +0.00    +0.028 C  
DOCKED: BRANCH  54  55
DOCKED: ATOM     55  C18 UNL     1       7.115  -4.928  -8.291 +0.00 -0.00    -0.015 C  
DOCKED: ATOM     56  C19 UNL     1       8.048  -5.278  -9.455 +0.00 +0.00    +0.007 C  
DOCKED: ATOM     57  C20 UNL     1       6.161  -3.816  -8.719 +0.00 +0.00    +0.007 C  
DOCKED: ENDBRANCH  54  55
DOCKED: ENDBRANCH   1  54
DOCKED: TORSDOF 21
DOCKED: TER
DOCKED: ENDMDL
________________________________________________________________________________


    CLUSTERING HISTOGRAM
    ____________________


________________________________________________________________________________
     |           |     |           |     |
Clus | Lowest    | Run | Mean      | Num | Histogram
-ter | Binding   |     | Binding   | in  |
Rank | Energy    |     | Energy    | Clus|    5    10   15   20   25   30   35
_____|___________|_____|___________|_____|____:____|____:____|____:____|____:___
   1 |     +6.26 |   1 |     +6.26 |   1 |#
   2 |     +6.26 |   2 |     +6.26 |   1 |#
   3 |     +6.26 |   3 |     +6.26 |   1 |#
   4 |     +6.26 |   4 |     +6.26 |   1 |#
   5 |     +6.26 |   5 |     +6.26 |   1 |#
   6 |     +6.26 |   6 |     +6.26 |   1 |#
   7 |     +6.26 |   7 |     +6.26 |   1 |#
   8 |     +6.26 |   8 |     +6.26 |   1 |#
   9 |     +6.26 |   9 |     +6.26 |   1 |#
  10 |     +6.26 |  10 |     +6.26 |   1 |#
  11 |     +6.26 |  11 |     +6.26 |   1 |#
  12 |     +6.26 |  12 |     +6.26 |   1 |#
  13 |     +6.26 |  13 |     +6.26 |   1 |#
  14 |     +6.26 |  14 |     +6.26 |   1 |#
  15 |     +6.26 |  15 |     +6.26 |   1 |#
  16 |     +6.26 |  16 |     +6.26 |   1 |#
  17 |     +6.26 |  17 |     +6.26 |   1 |#
  18 |     +6.26 |  18 |     +6.26 |   1 |#
  19 |     +6.26 |  19 |     +6.26 |   1 |#
  20 |     +6.26 |  20 |     +6.26 |   1 |#
_____|___________|_____|___________|_____|______________________________________


    RMSD TABLE
    __________


_______________________________________________________________________
     |      |      |           |         |                 |
Rank | Sub- | Run  | Binding   | Cluster | Reference       | Grep
     | Rank |      | Energy    | RMSD    | RMSD            | Pattern
_____|______|______|___________|_________|_________________|___________
   1      1      1       +6.26      0.00     13.92           RANKING
   2      1      2       +6.26      0.00     12.22           RANKING
   3      1      3       +6.26      0.00      6.83           RANKING
   4      1      4       +6.26      0.00     11.55           RANKING
   5      1      5       +6.26      0.00     10.20           RANKING
   6      1      6       +6.26      0.00      9.96           RANKING
   7      1      7       +6.26      0.00      6.02           RANKING
   8      1      8       +6.26      0.00     12.20           RANKING
   9      1      9       +6.26      0.00      6.89           RANKING
  10      1     10       +6.26      0.00      9.51           RANKING
  11      1     11       +6.26      0.00      8.00           RANKING
  12      1     12       +6.26      0.00     12.09           RANKING
  13      1     13       +6.26      0.00      9.21           RANKING
  14      1     14       +6.26      0.00      9.54           RANKING
  15      1     15       +6.26      0.00      5.16           RANKING
  16      1     16       +6.26      0.00      4.19           RANKING
  17      1     17       +6.26      0.00      4.28           RANKING
  18      1     18       +6.26      0.00     13.23           RANKING
  19      1     19       +6.26      0.00      9.43           RANKING
  20      1     20       +6.26      0.00     12.29           RANKING

Run time 29.622 sec
Idle time 0.299 sec
