AutoDock-GPU version: v1.6

**********************************************************
**    AutoDock-GPU AUTODOCKTOOLS-COMPATIBLE DLG FILE    **
**********************************************************


    DOCKING PARAMETERS
    ________________________


Ligand file:                               ligands/ligand_9.pdbqt
Grid fld file:                             protein.maps.fld

Random seed:                               1770973748, 32983
Number of runs:                            20
Number of energy evaluations:              8120901
Number of generations:                     42000
Size of population:                        150
Rate of crossover:                         80.000000%
Tournament selection probability limit:    60.000000%
Rate of mutation:                          2.000000%
Maximal allowed delta movement:            +/- 6.000000A
Maximal allowed delta angle:               +/- 90.000000

Rate of local search:                      100.000000%
Maximal number of local search iterations: 300
Rho lower bound:                           0.010000
Spread of local search delta movement:     2.000000A
Spread of local search delta angle:        74.999999
Limit of consecutive successes/failures:   4

Handle symmetry during clustering:         YES
RMSD tolerance:                            2.000000A

Program call in command line was:          ./autodock-gpu --ffile protein.maps.fld --lfile ligands/ligand_9.pdbqt --nrun 20 


    GRID PARAMETERS
    ________________________


Receptor name:                             #MACROMOLECULE
Number of grid points (x, y, z):           61, 61, 61
Grid center (x, y, z):                     10.261000, -3.492000, -0.127000A
Grid size (x, y, z):                       22.500000, 22.500000, 22.500000A
Grid spacing:                              0.375000A


    LIGAND PARAMETERS
    ________________________


Ligand name:                               ligands/ligand_9
Number of atoms:                           49
Number of rotatable bonds:                 18
Number of atom types:                      5


    DUMMY DATA (only for ADT-compatibility)
    ________________________


DPF> outlev 1
DPF> ga_run 20
DPF> fld protein.maps.fld
DPF> move ligands/ligand_9.pdbqt


    COUNTER STATES
    ________________________


Number of energy evaluations performed:    2056337
Number of generations used:                80


    INPUT LIGAND PDBQT FILE:
    ________________________


INPUT-LIGAND-PDBQT: REMARK  Name = ligands/ligand_9.pdb
INPUT-LIGAND-PDBQT: REMARK  24 active torsions:
INPUT-LIGAND-PDBQT: REMARK  status: ('A' for Active; 'I' for Inactive)
INPUT-LIGAND-PDBQT: REMARK    1  A    between atoms: C1_1  and  C2_2
INPUT-LIGAND-PDBQT: REMARK    2  A    between atoms: C2_2  and  C3_3
INPUT-LIGAND-PDBQT: REMARK    3  A    between atoms: C2_2  and  C4_4
INPUT-LIGAND-PDBQT: REMARK    4  A    between atoms: C4_4  and  O1_5
INPUT-LIGAND-PDBQT: REMARK    5  A    between atoms: C4_4  and  C5_6
INPUT-LIGAND-PDBQT: REMARK    6  A    between atoms: N1_8  and  C6_9
INPUT-LIGAND-PDBQT: REMARK    7  A    between atoms: C6_9  and  C7_10
INPUT-LIGAND-PDBQT: REMARK    8  A    between atoms: C6_9  and  C8_11
INPUT-LIGAND-PDBQT: REMARK    9  A    between atoms: N2_13  and  C9_14
INPUT-LIGAND-PDBQT: REMARK   10  A    between atoms: C9_14  and  C10_15
INPUT-LIGAND-PDBQT: REMARK   11  A    between atoms: C9_14  and  C17_22
INPUT-LIGAND-PDBQT: REMARK   12  A    between atoms: C10_15  and  C11_16
INPUT-LIGAND-PDBQT: REMARK   13  A    between atoms: C17_22  and  O4_23
INPUT-LIGAND-PDBQT: REMARK   14  A    between atoms: C17_22  and  C18_24
INPUT-LIGAND-PDBQT: REMARK   15  A    between atoms: C18_24  and  C19_25
INPUT-LIGAND-PDBQT: REMARK   16  A    between atoms: C19_25  and  C20_26
INPUT-LIGAND-PDBQT: REMARK   17  A    between atoms: C19_25  and  C21_27
INPUT-LIGAND-PDBQT: REMARK   18  A    between atoms: N3_29  and  C22_30
INPUT-LIGAND-PDBQT: REMARK   19  A    between atoms: C22_30  and  C23_31
INPUT-LIGAND-PDBQT: REMARK   20  A    between atoms: C22_30  and  C31_41
INPUT-LIGAND-PDBQT: REMARK   21  A    between atoms: N4_33  and  C24_34
INPUT-LIGAND-PDBQT: REMARK   22  A    between atoms: C24_34  and  C25_35
INPUT-LIGAND-PDBQT: REMARK   23  A    between atoms: C31_41  and  C32_42
INPUT-LIGAND-PDBQT: REMARK   24  A    between atoms: C31_41  and  C33_43
INPUT-LIGAND-PDBQT: REMARK                            x       y       z     vdW  Elec       q    Type
INPUT-LIGAND-PDBQT: REMARK                         _______ _______ _______ _____ _____    ______ ____
INPUT-LIGAND-PDBQT: ROOT
INPUT-LIGAND-PDBQT: ATOM      1  C17 UNL     1      -2.928  -0.900   2.509  0.00  0.00    +0.136 C 
INPUT-LIGAND-PDBQT: ENDROOT
INPUT-LIGAND-PDBQT: BRANCH   1   2
INPUT-LIGAND-PDBQT: ATOM      2  O4  UNL     1      -3.948  -0.264   3.301  0.00  0.00    -0.390 OA
INPUT-LIGAND-PDBQT: ATOM      3  H25 UNL     1      -4.807  -0.609   2.999  0.00  0.00    +0.210 HD
INPUT-LIGAND-PDBQT: ENDBRANCH   1   2
INPUT-LIGAND-PDBQT: BRANCH   1   4
INPUT-LIGAND-PDBQT: ATOM      4  C18 UNL     1      -3.086  -0.366   1.076  0.00  0.00    +0.045 C 
INPUT-LIGAND-PDBQT: BRANCH   4   5
INPUT-LIGAND-PDBQT: ATOM      5  C19 UNL     1      -2.255  -1.026  -0.035  0.00  0.00    +0.074 C 
INPUT-LIGAND-PDBQT: ATOM      6  C20 UNL     1      -2.455  -2.543  -0.080  0.00  0.00    +0.017 C 
INPUT-LIGAND-PDBQT: BRANCH   5   7
INPUT-LIGAND-PDBQT: ATOM      7  C21 UNL     1      -2.667  -0.430  -1.385  0.00  0.00    +0.217 C 
INPUT-LIGAND-PDBQT: ATOM      8  O5  UNL     1      -3.334  -1.045  -2.212  0.00  0.00    -0.276 OA
INPUT-LIGAND-PDBQT: ATOM      9  N3  UNL     1      -2.265   0.866  -1.592  0.00  0.00    -0.304 N 
INPUT-LIGAND-PDBQT: ATOM     10  H32 UNL     1      -1.668   1.348  -0.921  0.00  0.00    +0.149 HD
INPUT-LIGAND-PDBQT: BRANCH   9  11
INPUT-LIGAND-PDBQT: ATOM     11  C22 UNL     1      -2.626   1.603  -2.805  0.00  0.00    +0.161 C 
INPUT-LIGAND-PDBQT: BRANCH  11  12
INPUT-LIGAND-PDBQT: ATOM     12  C23 UNL     1      -1.504   2.621  -3.090  0.00  0.00    +0.234 C 
INPUT-LIGAND-PDBQT: ATOM     13  O6  UNL     1      -0.788   3.067  -2.195  0.00  0.00    -0.274 OA
INPUT-LIGAND-PDBQT: ATOM     14  N4  UNL     1      -1.373   2.998  -4.407  0.00  0.00    -0.310 N 
INPUT-LIGAND-PDBQT: ATOM     15  H34 UNL     1      -1.890   2.504  -5.121  0.00  0.00    +0.149 HD
INPUT-LIGAND-PDBQT: BRANCH  14  16
INPUT-LIGAND-PDBQT: ATOM     16  C24 UNL     1      -0.301   3.865  -4.848  0.00  0.00    +0.139 C 
INPUT-LIGAND-PDBQT: BRANCH  16  17
INPUT-LIGAND-PDBQT: ATOM     17  C25 UNL     1       0.760   3.142  -5.645  0.00  0.00    -0.030 A 
INPUT-LIGAND-PDBQT: ATOM     18  C26 UNL     1       1.087   1.795  -5.416  0.00  0.00    +0.005 A 
INPUT-LIGAND-PDBQT: ATOM     19  C27 UNL     1       2.097   1.170  -6.150  0.00  0.00    +0.000 A 
INPUT-LIGAND-PDBQT: ATOM     20  C28 UNL     1       2.813   1.889  -7.107  0.00  0.00    +0.000 A 
INPUT-LIGAND-PDBQT: ATOM     21  C29 UNL     1       2.520   3.234  -7.329  0.00  0.00    +0.000 A 
INPUT-LIGAND-PDBQT: ATOM     22  C30 UNL     1       1.504   3.856  -6.602  0.00  0.00    +0.005 A 
INPUT-LIGAND-PDBQT: ENDBRANCH  16  17
INPUT-LIGAND-PDBQT: ENDBRANCH  14  16
INPUT-LIGAND-PDBQT: ENDBRANCH  11  12
INPUT-LIGAND-PDBQT: BRANCH  11  23
INPUT-LIGAND-PDBQT: ATOM     23  C31 UNL     1      -4.029   2.240  -2.669  0.00  0.00    +0.012 C 
INPUT-LIGAND-PDBQT: ATOM     24  C32 UNL     1      -4.549   2.801  -3.995  0.00  0.00    +0.009 C 
INPUT-LIGAND-PDBQT: ATOM     25  C33 UNL     1      -4.092   3.317  -1.581  0.00  0.00    +0.009 C 
INPUT-LIGAND-PDBQT: ENDBRANCH  11  23
INPUT-LIGAND-PDBQT: ENDBRANCH   9  11
INPUT-LIGAND-PDBQT: ENDBRANCH   5   7
INPUT-LIGAND-PDBQT: ENDBRANCH   4   5
INPUT-LIGAND-PDBQT: ENDBRANCH   1   4
INPUT-LIGAND-PDBQT: BRANCH   1  26
INPUT-LIGAND-PDBQT: ATOM     26  C9  UNL     1      -1.570  -0.716   3.244  0.00  0.00    +0.106 C 
INPUT-LIGAND-PDBQT: BRANCH  26  29
INPUT-LIGAND-PDBQT: ATOM     27  C8  UNL     1      -0.117  -2.723   2.969  0.00  0.00    +0.233 C 
INPUT-LIGAND-PDBQT: ATOM     28  O3  UNL     1      -0.787  -3.407   3.742  0.00  0.00    -0.274 OA
INPUT-LIGAND-PDBQT: ATOM     29  N2  UNL     1      -0.453  -1.431   2.625  0.00  0.00    -0.308 N 
INPUT-LIGAND-PDBQT: ATOM     30  H15 UNL     1       0.099  -0.946   1.930  0.00  0.00    +0.149 HD
INPUT-LIGAND-PDBQT: BRANCH  27  31
INPUT-LIGAND-PDBQT: ATOM     31  C6  UNL     1       1.169  -3.254   2.306  0.00  0.00    +0.156 C 
INPUT-LIGAND-PDBQT: ATOM     32  C7  UNL     1       0.938  -3.552   0.831  0.00  0.00    +0.038 C 
INPUT-LIGAND-PDBQT: BRANCH  31  35
INPUT-LIGAND-PDBQT: ATOM     33  C5  UNL     1       2.897  -4.903   3.007  0.00  0.00    +0.242 C 
INPUT-LIGAND-PDBQT: ATOM     34  O2  UNL     1       3.782  -4.355   2.361  0.00  0.00    -0.273 OA
INPUT-LIGAND-PDBQT: ATOM     35  N1  UNL     1       1.599  -4.444   3.022  0.00  0.00    -0.302 N 
INPUT-LIGAND-PDBQT: ATOM     36  H10 UNL     1       0.920  -4.923   3.614  0.00  0.00    +0.150 HD
INPUT-LIGAND-PDBQT: BRANCH  33  37
INPUT-LIGAND-PDBQT: ATOM     37  C4  UNL     1       3.100  -6.146   3.906  0.00  0.00    +0.202 C 
INPUT-LIGAND-PDBQT: BRANCH  37  39
INPUT-LIGAND-PDBQT: ATOM     38  C1  UNL     1       4.537  -7.449   2.216  0.00  0.00    +0.010 C 
INPUT-LIGAND-PDBQT: ATOM     39  C2  UNL     1       4.388  -6.959   3.659  0.00  0.00    +0.020 C 
INPUT-LIGAND-PDBQT: ATOM     40  C3  UNL     1       5.643  -6.205   4.101  0.00  0.00    +0.010 C 
INPUT-LIGAND-PDBQT: ENDBRANCH  37  39
INPUT-LIGAND-PDBQT: BRANCH  37  41
INPUT-LIGAND-PDBQT: ATOM     41  O1  UNL     1       1.960  -7.009   3.813  0.00  0.00    -0.382 OA
INPUT-LIGAND-PDBQT: ATOM     42  H9  UNL     1       1.879  -7.279   2.882  0.00  0.00    +0.210 HD
INPUT-LIGAND-PDBQT: ENDBRANCH  37  41
INPUT-LIGAND-PDBQT: ENDBRANCH  33  37
INPUT-LIGAND-PDBQT: ENDBRANCH  31  35
INPUT-LIGAND-PDBQT: ENDBRANCH  27  31
INPUT-LIGAND-PDBQT: ENDBRANCH  26  29
INPUT-LIGAND-PDBQT: BRANCH  26  43
INPUT-LIGAND-PDBQT: ATOM     43  C10 UNL     1      -1.195   0.728   3.668  0.00  0.00    +0.060 C 
INPUT-LIGAND-PDBQT: BRANCH  43  44
INPUT-LIGAND-PDBQT: ATOM     44  C11 UNL     1      -0.625   1.647   2.615  0.00  0.00    -0.046 A 
INPUT-LIGAND-PDBQT: ATOM     45  C12 UNL     1      -1.425   2.641   2.038  0.00  0.00    +0.004 A 
INPUT-LIGAND-PDBQT: ATOM     46  C13 UNL     1      -0.900   3.501   1.074  0.00  0.00    +0.000 A 
INPUT-LIGAND-PDBQT: ATOM     47  C14 UNL     1       0.432   3.386   0.688  0.00  0.00    +0.000 A 
INPUT-LIGAND-PDBQT: ATOM     48  C15 UNL     1       1.246   2.420   1.272  0.00  0.00    +0.000 A 
INPUT-LIGAND-PDBQT: ATOM     49  C16 UNL     1       0.724   1.561   2.238  0.00  0.00    +0.004 A 
INPUT-LIGAND-PDBQT: ENDBRANCH  43  44
INPUT-LIGAND-PDBQT: ENDBRANCH  26  43
INPUT-LIGAND-PDBQT: ENDBRANCH   1  26
INPUT-LIGAND-PDBQT: TORSDOF 18


    FINAL DOCKED STATE:
    ________________________


Run:   1 / 20
Time taken for this run:   0.463s

DOCKED: MODEL        1
DOCKED: USER    Run = 1
DOCKED: USER
DOCKED: USER    Estimated Free Energy of Binding    =  +5.37 kcal/mol  [=(1)+(2)+(3)-(4)]
DOCKED: USER
DOCKED: USER    (1) Final Intermolecular Energy     =  +0.00 kcal/mol
DOCKED: USER        vdW + Hbond + desolv Energy     =  +0.00 kcal/mol
DOCKED: USER        Electrostatic Energy            =  +0.00 kcal/mol
DOCKED: USER        Moving Ligand-Fixed Receptor    =  +0.00 kcal/mol
DOCKED: USER        Moving Ligand-Moving Receptor   =  +0.00 kcal/mol
DOCKED: USER    (2) Final Total Internal Energy     = -12.16 kcal/mol
DOCKED: USER    (3) Torsional Free Energy           =  +5.37 kcal/mol
DOCKED: USER    (4) Unbound System's Energy         = -12.16 kcal/mol
DOCKED: USER
DOCKED: USER
DOCKED: REMARK  Name = ligands/ligand_9.pdb
DOCKED: REMARK  24 active torsions:
DOCKED: REMARK  status: ('A' for Active; 'I' for Inactive)
DOCKED: REMARK    1  A    between atoms: C1_1  and  C2_2
DOCKED: REMARK    2  A    between atoms: C2_2  and  C3_3
DOCKED: REMARK    3  A    between atoms: C2_2  and  C4_4
DOCKED: REMARK    4  A    between atoms: C4_4  and  O1_5
DOCKED: REMARK    5  A    between atoms: C4_4  and  C5_6
DOCKED: REMARK    6  A    between atoms: N1_8  and  C6_9
DOCKED: REMARK    7  A    between atoms: C6_9  and  C7_10
DOCKED: REMARK    8  A    between atoms: C6_9  and  C8_11
DOCKED: REMARK    9  A    between atoms: N2_13  and  C9_14
DOCKED: REMARK   10  A    between atoms: C9_14  and  C10_15
DOCKED: REMARK   11  A    between atoms: C9_14  and  C17_22
DOCKED: REMARK   12  A    between atoms: C10_15  and  C11_16
DOCKED: REMARK   13  A    between atoms: C17_22  and  O4_23
DOCKED: REMARK   14  A    between atoms: C17_22  and  C18_24
DOCKED: REMARK   15  A    between atoms: C18_24  and  C19_25
DOCKED: REMARK   16  A    between atoms: C19_25  and  C20_26
DOCKED: REMARK   17  A    between atoms: C19_25  and  C21_27
DOCKED: REMARK   18  A    between atoms: N3_29  and  C22_30
DOCKED: REMARK   19  A    between atoms: C22_30  and  C23_31
DOCKED: REMARK   20  A    between atoms: C22_30  and  C31_41
DOCKED: REMARK   21  A    between atoms: N4_33  and  C24_34
DOCKED: REMARK   22  A    between atoms: C24_34  and  C25_35
DOCKED: REMARK   23  A    between atoms: C31_41  and  C32_42
DOCKED: REMARK   24  A    between atoms: C31_41  and  C33_43
DOCKED: REMARK                            x       y       z     vdW  Elec       q    Type
DOCKED: REMARK                         _______ _______ _______ _____ _____    ______ ____
DOCKED: USER                              x       y       z     vdW  Elec       q    Type
DOCKED: USER                           _______ _______ _______ _____ _____    ______ ____
DOCKED: ROOT
DOCKED: ATOM      1  C17 UNL     1      13.784  -6.806  -7.127 +0.00 +0.00    +0.136 C  
DOCKED: ENDROOT
DOCKED: BRANCH   1   2
DOCKED: ATOM      2  O4  UNL     1      15.131  -6.524  -6.704 +0.00 -0.00    -0.390 OA 
DOCKED: ATOM      3  H25 UNL     1      15.139  -6.545  -5.730 +0.00 +0.00    +0.210 HD 
DOCKED: ENDBRANCH   1   2
DOCKED: BRANCH   1   4
DOCKED: ATOM      4  C18 UNL     1      13.564  -8.314  -6.922 +0.00 +0.00    +0.045 C  
DOCKED: BRANCH   4   5
DOCKED: ATOM      5  C19 UNL     1      13.983  -8.927  -5.577 +0.00 +0.00    +0.074 C  
DOCKED: ATOM      6  C20 UNL     1      13.485 -10.366  -5.420 +0.00 +0.00    +0.017 C  
DOCKED: BRANCH   5   7
DOCKED: ATOM      7  C21 UNL     1      15.513  -8.917  -5.481 +0.00 +0.00    +0.217 C  
DOCKED: ATOM      8  O5  UNL     1      16.130  -8.183  -4.716 +0.00 -0.00    -0.276 OA 
DOCKED: ATOM      9  N3  UNL     1      16.149  -9.823  -6.294 +0.00 -0.00    -0.304 N  
DOCKED: ATOM     10  H32 UNL     1      15.629 -10.390  -6.962 +0.00 +0.00    +0.149 HD 
DOCKED: BRANCH   9  11
DOCKED: ATOM     11  C22 UNL     1      17.604  -9.983  -6.281 +0.00 +0.00    +0.161 C  
DOCKED: BRANCH  11  12
DOCKED: ATOM     12  C23 UNL     1      18.196  -9.000  -7.311 +0.00 +0.00    +0.234 C  
DOCKED: ATOM     13  O6  UNL     1      18.969  -9.370  -8.194 +0.00 -0.00    -0.274 OA 
DOCKED: ATOM     14  N4  UNL     1      17.808  -7.689  -7.162 +0.00 -0.00    -0.310 N  
DOCKED: ATOM     15  H34 UNL     1      17.069  -7.458  -6.512 +0.00 +0.00    +0.149 HD 
DOCKED: BRANCH  14  16
DOCKED: ATOM     16  C24 UNL     1      18.195  -6.667  -8.112 +0.00 +0.00    +0.139 C  
DOCKED: BRANCH  16  17
DOCKED: ATOM     17  C25 UNL     1      17.053  -6.202  -8.986 +0.00 -0.00    -0.030 A  
DOCKED: ATOM     18  C26 UNL     1      16.773  -4.842  -9.199 +0.00 +0.00    +0.005 A  
DOCKED: ATOM     19  C27 UNL     1      15.689  -4.451  -9.986 +0.00 +0.00    +0.000 A  
DOCKED: ATOM     20  C28 UNL     1      14.852  -5.413 -10.551 +0.00 +0.00    +0.000 A  
DOCKED: ATOM     21  C29 UNL     1      15.099  -6.767 -10.329 +0.00 +0.00    +0.000 A  
DOCKED: ATOM     22  C30 UNL     1      16.189  -7.158  -9.550 +0.00 +0.00    +0.005 A  
DOCKED: ENDBRANCH  16  17
DOCKED: ENDBRANCH  14  16
DOCKED: ENDBRANCH  11  12
DOCKED: BRANCH  11  23
DOCKED: ATOM     23  C31 UNL     1      18.001 -11.458  -6.525 +0.00 +0.00    +0.012 C  
DOCKED: ATOM     24  C32 UNL     1      17.386 -12.027  -7.806 +0.00 +0.00    +0.009 C  
DOCKED: ATOM     25  C33 UNL     1      17.674 -12.368  -5.336 +0.00 +0.00    +0.009 C  
DOCKED: ENDBRANCH  11  23
DOCKED: ENDBRANCH   9  11
DOCKED: ENDBRANCH   5   7
DOCKED: ENDBRANCH   4   5
DOCKED: ENDBRANCH   1   4
DOCKED: BRANCH   1  26
DOCKED: ATOM     26  C9  UNL     1      12.840  -5.796  -6.416 +0.00 +0.00    +0.106 C  
DOCKED: BRANCH  26  29
DOCKED: ATOM     27  C8  UNL     1      12.789  -4.485  -4.296 +0.00 +0.00    +0.233 C  
DOCKED: ATOM     28  O3  UNL     1      11.597  -4.715  -4.095 +0.00 -0.00    -0.274 OA 
DOCKED: ATOM     29  N2  UNL     1      13.486  -5.013  -5.362 +0.00 -0.00    -0.308 N  
DOCKED: ATOM     30  H15 UNL     1      14.481  -4.844  -5.433 +0.00 +0.00    +0.149 HD 
DOCKED: BRANCH  27  31
DOCKED: ATOM     31  C6  UNL     1      13.619  -3.580  -3.365 +0.00 +0.00    +0.156 C  
DOCKED: ATOM     32  C7  UNL     1      13.163  -2.131  -3.465 +0.00 +0.00    +0.038 C  
DOCKED: BRANCH  31  35
DOCKED: ATOM     33  C5  UNL     1      15.655  -4.933  -3.838 +0.00 +0.00    +0.242 C  
DOCKED: ATOM     34  O2  UNL     1      15.085  -5.995  -3.617 +0.00 -0.00    -0.273 OA 
DOCKED: ATOM     35  N1  UNL     1      15.022  -3.716  -3.723 +0.00 -0.00    -0.302 N  
DOCKED: ATOM     36  H10 UNL     1      15.543  -2.872  -3.961 +0.00 +0.00    +0.150 HD 
DOCKED: BRANCH  33  37
DOCKED: ATOM     37  C4  UNL     1      17.127  -4.799  -4.297 +0.00 +0.00    +0.202 C  
DOCKED: BRANCH  37  39
DOCKED: ATOM     38  C1  UNL     1      18.991  -3.350  -5.317 +0.00 +0.00    +0.010 C  
DOCKED: ATOM     39  C2  UNL     1      17.496  -3.484  -5.014 +0.00 +0.00    +0.020 C  
DOCKED: ATOM     40  C3  UNL     1      16.670  -3.263  -6.282 +0.00 +0.00    +0.010 C  
DOCKED: ENDBRANCH  37  39
DOCKED: BRANCH  37  41
DOCKED: ATOM     41  O1  UNL     1      17.486  -5.915  -5.121 +0.00 -0.00    -0.382 OA 
DOCKED: ATOM     42  H9  UNL     1      16.701  -6.484  -5.192 +0.00 +0.00    +0.210 HD 
DOCKED: ENDBRANCH  37  41
DOCKED: ENDBRANCH  33  37
DOCKED: ENDBRANCH  31  35
DOCKED: ENDBRANCH  27  31
DOCKED: ENDBRANCH  26  29
DOCKED: BRANCH  26  43
DOCKED: ATOM     43  C10 UNL     1      11.926  -4.934  -7.326 +0.00 +0.00    +0.060 C  
DOCKED: BRANCH  43  44
DOCKED: ATOM     44  C11 UNL     1      12.556  -3.783  -8.071 +0.00 -0.00    -0.046 A  
DOCKED: ATOM     45  C12 UNL     1      12.209  -3.531  -9.405 +0.00 +0.00    +0.004 A  
DOCKED: ATOM     46  C13 UNL     1      12.778  -2.461 -10.094 +0.00 +0.00    +0.000 A  
DOCKED: ATOM     47  C14 UNL     1      13.688  -1.624  -9.455 +0.00 +0.00    +0.000 A  
DOCKED: ATOM     48  C15 UNL     1      14.022  -1.846  -8.122 +0.00 +0.00    +0.000 A  
DOCKED: ATOM     49  C16 UNL     1      13.452  -2.914  -7.430 +0.00 +0.00    +0.004 A  
DOCKED: ENDBRANCH  43  44
DOCKED: ENDBRANCH  26  43
DOCKED: ENDBRANCH   1  26
DOCKED: TORSDOF 18
DOCKED: TER
DOCKED: ENDMDL
________________________________________________________________________________


    FINAL DOCKED STATE:
    ________________________


Run:   2 / 20
Time taken for this run:   0.463s

DOCKED: MODEL        2
DOCKED: USER    Run = 2
DOCKED: USER
DOCKED: USER    Estimated Free Energy of Binding    =  +5.37 kcal/mol  [=(1)+(2)+(3)-(4)]
DOCKED: USER
DOCKED: USER    (1) Final Intermolecular Energy     =  +0.00 kcal/mol
DOCKED: USER        vdW + Hbond + desolv Energy     =  +0.00 kcal/mol
DOCKED: USER        Electrostatic Energy            =  +0.00 kcal/mol
DOCKED: USER        Moving Ligand-Fixed Receptor    =  +0.00 kcal/mol
DOCKED: USER        Moving Ligand-Moving Receptor   =  +0.00 kcal/mol
DOCKED: USER    (2) Final Total Internal Energy     = -12.29 kcal/mol
DOCKED: USER    (3) Torsional Free Energy           =  +5.37 kcal/mol
DOCKED: USER    (4) Unbound System's Energy         = -12.29 kcal/mol
DOCKED: USER
DOCKED: USER
DOCKED: REMARK  Name = ligands/ligand_9.pdb
DOCKED: REMARK  24 active torsions:
DOCKED: REMARK  status: ('A' for Active; 'I' for Inactive)
DOCKED: REMARK    1  A    between atoms: C1_1  and  C2_2
DOCKED: REMARK    2  A    between atoms: C2_2  and  C3_3
DOCKED: REMARK    3  A    between atoms: C2_2  and  C4_4
DOCKED: REMARK    4  A    between atoms: C4_4  and  O1_5
DOCKED: REMARK    5  A    between atoms: C4_4  and  C5_6
DOCKED: REMARK    6  A    between atoms: N1_8  and  C6_9
DOCKED: REMARK    7  A    between atoms: C6_9  and  C7_10
DOCKED: REMARK    8  A    between atoms: C6_9  and  C8_11
DOCKED: REMARK    9  A    between atoms: N2_13  and  C9_14
DOCKED: REMARK   10  A    between atoms: C9_14  and  C10_15
DOCKED: REMARK   11  A    between atoms: C9_14  and  C17_22
DOCKED: REMARK   12  A    between atoms: C10_15  and  C11_16
DOCKED: REMARK   13  A    between atoms: C17_22  and  O4_23
DOCKED: REMARK   14  A    between atoms: C17_22  and  C18_24
DOCKED: REMARK   15  A    between atoms: C18_24  and  C19_25
DOCKED: REMARK   16  A    between atoms: C19_25  and  C20_26
DOCKED: REMARK   17  A    between atoms: C19_25  and  C21_27
DOCKED: REMARK   18  A    between atoms: N3_29  and  C22_30
DOCKED: REMARK   19  A    between atoms: C22_30  and  C23_31
DOCKED: REMARK   20  A    between atoms: C22_30  and  C31_41
DOCKED: REMARK   21  A    between atoms: N4_33  and  C24_34
DOCKED: REMARK   22  A    between atoms: C24_34  and  C25_35
DOCKED: REMARK   23  A    between atoms: C31_41  and  C32_42
DOCKED: REMARK   24  A    between atoms: C31_41  and  C33_43
DOCKED: REMARK                            x       y       z     vdW  Elec       q    Type
DOCKED: REMARK                         _______ _______ _______ _____ _____    ______ ____
DOCKED: USER                              x       y       z     vdW  Elec       q    Type
DOCKED: USER                           _______ _______ _______ _____ _____    ______ ____
DOCKED: ROOT
DOCKED: ATOM      1  C17 UNL     1      10.519  -5.014  -4.378 +0.00 +0.00    +0.136 C  
DOCKED: ENDROOT
DOCKED: BRANCH   1   2
DOCKED: ATOM      2  O4  UNL     1       9.538  -4.068  -3.914 +0.00 -0.00    -0.390 OA 
DOCKED: ATOM      3  H25 UNL     1       8.846  -4.572  -3.449 +0.00 +0.00    +0.210 HD 
DOCKED: ENDBRANCH   1   2
DOCKED: BRANCH   1   4
DOCKED: ATOM      4  C18 UNL     1      11.477  -5.268  -3.204 +0.00 +0.00    +0.045 C  
DOCKED: BRANCH   4   5
DOCKED: ATOM      5  C19 UNL     1      10.936  -6.028  -1.983 +0.00 +0.00    +0.074 C  
DOCKED: ATOM      6  C20 UNL     1      11.950  -6.073  -0.837 +0.00 +0.00    +0.017 C  
DOCKED: BRANCH   5   7
DOCKED: ATOM      7  C21 UNL     1       9.660  -5.337  -1.492 +0.00 +0.00    +0.217 C  
DOCKED: ATOM      8  O5  UNL     1       8.537  -5.660  -1.868 +0.00 -0.00    -0.276 OA 
DOCKED: ATOM      9  N3  UNL     1       9.860  -4.345  -0.565 +0.00 -0.00    -0.304 N  
DOCKED: ATOM     10  H32 UNL     1      10.800  -4.050  -0.299 +0.00 +0.00    +0.149 HD 
DOCKED: BRANCH   9  11
DOCKED: ATOM     11  C22 UNL     1       8.743  -3.624   0.050 +0.00 +0.00    +0.161 C  
DOCKED: BRANCH  11  12
DOCKED: ATOM     12  C23 UNL     1       8.432  -2.397  -0.830 +0.00 +0.00    +0.234 C  
DOCKED: ATOM     13  O6  UNL     1       8.522  -1.249  -0.399 +0.00 -0.00    -0.274 OA 
DOCKED: ATOM     14  N4  UNL     1       8.038  -2.682  -2.117 +0.00 -0.00    -0.310 N  
DOCKED: ATOM     15  H34 UNL     1       8.111  -3.628  -2.463 +0.00 +0.00    +0.149 HD 
DOCKED: BRANCH  14  16
DOCKED: ATOM     16  C24 UNL     1       7.812  -1.637  -3.093 +0.00 +0.00    +0.139 C  
DOCKED: BRANCH  16  17
DOCKED: ATOM     17  C25 UNL     1       6.974  -2.089  -4.266 +0.00 -0.00    -0.030 A  
DOCKED: ATOM     18  C26 UNL     1       6.364  -1.183  -5.150 +0.00 +0.00    +0.005 A  
DOCKED: ATOM     19  C27 UNL     1       5.568  -1.638  -6.204 +0.00 +0.00    +0.000 A  
DOCKED: ATOM     20  C28 UNL     1       5.350  -3.005  -6.375 +0.00 +0.00    +0.000 A  
DOCKED: ATOM     21  C29 UNL     1       5.926  -3.917  -5.492 +0.00 +0.00    +0.000 A  
DOCKED: ATOM     22  C30 UNL     1       6.728  -3.463  -4.445 +0.00 +0.00    +0.005 A  
DOCKED: ENDBRANCH  16  17
DOCKED: ENDBRANCH  14  16
DOCKED: ENDBRANCH  11  12
DOCKED: BRANCH  11  23
DOCKED: ATOM     23  C31 UNL     1       9.054  -3.274   1.524 +0.00 +0.00    +0.012 C  
DOCKED: ATOM     24  C32 UNL     1      10.461  -2.698   1.706 +0.00 +0.00    +0.009 C  
DOCKED: ATOM     25  C33 UNL     1       8.843  -4.457   2.475 +0.00 +0.00    +0.009 C  
DOCKED: ENDBRANCH  11  23
DOCKED: ENDBRANCH   9  11
DOCKED: ENDBRANCH   5   7
DOCKED: ENDBRANCH   4   5
DOCKED: ENDBRANCH   1   4
DOCKED: BRANCH   1  26
DOCKED: ATOM     26  C9  UNL     1       9.760  -6.214  -5.014 +0.00 +0.00    +0.106 C  
DOCKED: BRANCH  26  29
DOCKED: ATOM     27  C8  UNL     1       7.669  -7.542  -4.732 +0.00 +0.00    +0.233 C  
DOCKED: ATOM     28  O3  UNL     1       8.144  -8.543  -5.267 +0.00 -0.00    -0.274 OA 
DOCKED: ATOM     29  N2  UNL     1       8.395  -6.390  -4.516 +0.00 -0.00    -0.308 N  
DOCKED: ATOM     30  H15 UNL     1       7.969  -5.627  -4.008 +0.00 +0.00    +0.149 HD 
DOCKED: BRANCH  27  31
DOCKED: ATOM     31  C6  UNL     1       6.207  -7.484  -4.248 +0.00 +0.00    +0.156 C  
DOCKED: ATOM     32  C7  UNL     1       5.256  -7.250  -5.414 +0.00 +0.00    +0.038 C  
DOCKED: BRANCH  31  35
DOCKED: ATOM     33  C5  UNL     1       4.906  -6.106  -2.635 +0.00 +0.00    +0.242 C  
DOCKED: ATOM     34  O2  UNL     1       3.850  -6.668  -2.899 +0.00 -0.00    -0.273 OA 
DOCKED: ATOM     35  N1  UNL     1       6.092  -6.429  -3.255 +0.00 -0.00    -0.302 N  
DOCKED: ATOM     36  H10 UNL     1       6.943  -5.950  -2.958 +0.00 +0.00    +0.150 HD 
DOCKED: BRANCH  33  37
DOCKED: ATOM     37  C4  UNL     1       5.073  -4.994  -1.571 +0.00 +0.00    +0.202 C  
DOCKED: BRANCH  37  39
DOCKED: ATOM     38  C1  UNL     1       4.824  -2.443  -1.350 +0.00 +0.00    +0.010 C  
DOCKED: ATOM     39  C2  UNL     1       4.150  -3.767  -1.721 +0.00 +0.00    +0.020 C  
DOCKED: ATOM     40  C3  UNL     1       3.525  -3.679  -3.114 +0.00 +0.00    +0.010 C  
DOCKED: ENDBRANCH  37  39
DOCKED: BRANCH  37  41
DOCKED: ATOM     41  O1  UNL     1       6.440  -4.566  -1.521 +0.00 -0.00    -0.382 OA 
DOCKED: ATOM     42  H9  UNL     1       6.983  -5.357  -1.364 +0.00 +0.00    +0.210 HD 
DOCKED: ENDBRANCH  37  41
DOCKED: ENDBRANCH  33  37
DOCKED: ENDBRANCH  31  35
DOCKED: ENDBRANCH  27  31
DOCKED: ENDBRANCH  26  29
DOCKED: BRANCH  26  43
DOCKED: ATOM     43  C10 UNL     1       9.860  -6.367  -6.554 +0.00 +0.00    +0.060 C  
DOCKED: BRANCH  43  44
DOCKED: ATOM     44  C11 UNL     1       8.967  -5.500  -7.408 +0.00 -0.00    -0.046 A  
DOCKED: ATOM     45  C12 UNL     1       7.807  -6.032  -7.983 +0.00 +0.00    +0.004 A  
DOCKED: ATOM     46  C13 UNL     1       6.972  -5.232  -8.763 +0.00 +0.00    +0.000 A  
DOCKED: ATOM     47  C14 UNL     1       7.280  -3.890  -8.963 +0.00 +0.00    +0.000 A  
DOCKED: ATOM     48  C15 UNL     1       8.416  -3.341  -8.377 +0.00 +0.00    +0.000 A  
DOCKED: ATOM     49  C16 UNL     1       9.251  -4.138  -7.595 +0.00 +0.00    +0.004 A  
DOCKED: ENDBRANCH  43  44
DOCKED: ENDBRANCH  26  43
DOCKED: ENDBRANCH   1  26
DOCKED: TORSDOF 18
DOCKED: TER
DOCKED: ENDMDL
________________________________________________________________________________


    FINAL DOCKED STATE:
    ________________________


Run:   3 / 20
Time taken for this run:   0.463s

DOCKED: MODEL        3
DOCKED: USER    Run = 3
DOCKED: USER
DOCKED: USER    Estimated Free Energy of Binding    =  +5.37 kcal/mol  [=(1)+(2)+(3)-(4)]
DOCKED: USER
DOCKED: USER    (1) Final Intermolecular Energy     =  +0.00 kcal/mol
DOCKED: USER        vdW + Hbond + desolv Energy     =  +0.00 kcal/mol
DOCKED: USER        Electrostatic Energy            =  +0.00 kcal/mol
DOCKED: USER        Moving Ligand-Fixed Receptor    =  +0.00 kcal/mol
DOCKED: USER        Moving Ligand-Moving Receptor   =  +0.00 kcal/mol
DOCKED: USER    (2) Final Total Internal Energy     = -12.15 kcal/mol
DOCKED: USER    (3) Torsional Free Energy           =  +5.37 kcal/mol
DOCKED: USER    (4) Unbound System's Energy         = -12.15 kcal/mol
DOCKED: USER
DOCKED: USER
DOCKED: REMARK  Name = ligands/ligand_9.pdb
DOCKED: REMARK  24 active torsions:
DOCKED: REMARK  status: ('A' for Active; 'I' for Inactive)
DOCKED: REMARK    1  A    between atoms: C1_1  and  C2_2
DOCKED: REMARK    2  A    between atoms: C2_2  and  C3_3
DOCKED: REMARK    3  A    between atoms: C2_2  and  C4_4
DOCKED: REMARK    4  A    between atoms: C4_4  and  O1_5
DOCKED: REMARK    5  A    between atoms: C4_4  and  C5_6
DOCKED: REMARK    6  A    between atoms: N1_8  and  C6_9
DOCKED: REMARK    7  A    between atoms: C6_9  and  C7_10
DOCKED: REMARK    8  A    between atoms: C6_9  and  C8_11
DOCKED: REMARK    9  A    between atoms: N2_13  and  C9_14
DOCKED: REMARK   10  A    between atoms: C9_14  and  C10_15
DOCKED: REMARK   11  A    between atoms: C9_14  and  C17_22
DOCKED: REMARK   12  A    between atoms: C10_15  and  C11_16
DOCKED: REMARK   13  A    between atoms: C17_22  and  O4_23
DOCKED: REMARK   14  A    between atoms: C17_22  and  C18_24
DOCKED: REMARK   15  A    between atoms: C18_24  and  C19_25
DOCKED: REMARK   16  A    between atoms: C19_25  and  C20_26
DOCKED: REMARK   17  A    between atoms: C19_25  and  C21_27
DOCKED: REMARK   18  A    between atoms: N3_29  and  C22_30
DOCKED: REMARK   19  A    between atoms: C22_30  and  C23_31
DOCKED: REMARK   20  A    between atoms: C22_30  and  C31_41
DOCKED: REMARK   21  A    between atoms: N4_33  and  C24_34
DOCKED: REMARK   22  A    between atoms: C24_34  and  C25_35
DOCKED: REMARK   23  A    between atoms: C31_41  and  C32_42
DOCKED: REMARK   24  A    between atoms: C31_41  and  C33_43
DOCKED: REMARK                            x       y       z     vdW  Elec       q    Type
DOCKED: REMARK                         _______ _______ _______ _____ _____    ______ ____
DOCKED: USER                              x       y       z     vdW  Elec       q    Type
DOCKED: USER                           _______ _______ _______ _____ _____    ______ ____
DOCKED: ROOT
DOCKED: ATOM      1  C17 UNL     1       8.276  -4.001  -4.411 +0.00 +0.00    +0.136 C  
DOCKED: ENDROOT
DOCKED: BRANCH   1   2
DOCKED: ATOM      2  O4  UNL     1       7.422  -2.866  -4.177 +0.00 -0.00    -0.390 OA 
DOCKED: ATOM      3  H25 UNL     1       7.240  -2.833  -3.221 +0.00 +0.00    +0.210 HD 
DOCKED: ENDBRANCH   1   2
DOCKED: BRANCH   1   4
DOCKED: ATOM      4  C18 UNL     1       9.701  -3.566  -4.033 +0.00 +0.00    +0.045 C  
DOCKED: BRANCH   4   5
DOCKED: ATOM      5  C19 UNL     1       9.904  -2.849  -2.690 +0.00 +0.00    +0.074 C  
DOCKED: ATOM      6  C20 UNL     1      11.385  -2.692  -2.338 +0.00 +0.00    +0.017 C  
DOCKED: BRANCH   5   7
DOCKED: ATOM      7  C21 UNL     1       9.260  -1.460  -2.765 +0.00 +0.00    +0.217 C  
DOCKED: ATOM      8  O5  UNL     1       8.202  -1.182  -2.208 +0.00 -0.00    -0.276 OA 
DOCKED: ATOM      9  N3  UNL     1       9.976  -0.529  -3.476 +0.00 -0.00    -0.304 N  
DOCKED: ATOM     10  H32 UNL     1      10.825  -0.786  -3.977 +0.00 +0.00    +0.149 HD 
DOCKED: BRANCH   9  11
DOCKED: ATOM     11  C22 UNL     1       9.531   0.861  -3.596 +0.00 +0.00    +0.161 C  
DOCKED: BRANCH  11  12
DOCKED: ATOM     12  C23 UNL     1       8.566   0.945  -4.796 +0.00 +0.00    +0.234 C  
DOCKED: ATOM     13  O6  UNL     1       8.716   1.773  -5.693 +0.00 -0.00    -0.274 OA 
DOCKED: ATOM     14  N4  UNL     1       7.528   0.042  -4.780 +0.00 -0.00    -0.310 N  
DOCKED: ATOM     15  H34 UNL     1       7.526  -0.703  -4.098 +0.00 +0.00    +0.149 HD 
DOCKED: BRANCH  14  16
DOCKED: ATOM     16  C24 UNL     1       6.601  -0.072  -5.886 +0.00 +0.00    +0.139 C  
DOCKED: BRANCH  16  17
DOCKED: ATOM     17  C25 UNL     1       6.786  -1.338  -6.690 +0.00 -0.00    -0.030 A  
DOCKED: ATOM     18  C26 UNL     1       5.712  -2.177  -7.032 +0.00 +0.00    +0.005 A  
DOCKED: ATOM     19  C27 UNL     1       5.926  -3.357  -7.747 +0.00 +0.00    +0.000 A  
DOCKED: ATOM     20  C28 UNL     1       7.221  -3.729  -8.111 +0.00 +0.00    +0.000 A  
DOCKED: ATOM     21  C29 UNL     1       8.301  -2.922  -7.757 +0.00 +0.00    +0.000 A  
DOCKED: ATOM     22  C30 UNL     1       8.086  -1.738  -7.051 +0.00 +0.00    +0.005 A  
DOCKED: ENDBRANCH  16  17
DOCKED: ENDBRANCH  14  16
DOCKED: ENDBRANCH  11  12
DOCKED: BRANCH  11  23
DOCKED: ATOM     23  C31 UNL     1      10.738   1.822  -3.695 +0.00 +0.00    +0.012 C  
DOCKED: ATOM     24  C32 UNL     1      11.731   1.406  -4.784 +0.00 +0.00    +0.009 C  
DOCKED: ATOM     25  C33 UNL     1      11.467   2.003  -2.360 +0.00 +0.00    +0.009 C  
DOCKED: ENDBRANCH  11  23
DOCKED: ENDBRANCH   9  11
DOCKED: ENDBRANCH   5   7
DOCKED: ENDBRANCH   4   5
DOCKED: ENDBRANCH   1   4
DOCKED: BRANCH   1  26
DOCKED: ATOM     26  C9  UNL     1       7.642  -5.230  -3.699 +0.00 +0.00    +0.106 C  
DOCKED: BRANCH  26  29
DOCKED: ATOM     27  C8  UNL     1       6.148  -5.698  -1.759 +0.00 +0.00    +0.233 C  
DOCKED: ATOM     28  O3  UNL     1       6.786  -6.690  -1.411 +0.00 -0.00    -0.274 OA 
DOCKED: ATOM     29  N2  UNL     1       6.521  -4.899  -2.819 +0.00 -0.00    -0.308 N  
DOCKED: ATOM     30  H15 UNL     1       5.994  -4.057  -3.012 +0.00 +0.00    +0.149 HD 
DOCKED: BRANCH  27  31
DOCKED: ATOM     31  C6  UNL     1       4.863  -5.251  -1.035 +0.00 +0.00    +0.156 C  
DOCKED: ATOM     32  C7  UNL     1       3.750  -6.274  -1.220 +0.00 +0.00    +0.038 C  
DOCKED: BRANCH  31  35
DOCKED: ATOM     33  C5  UNL     1       5.326  -2.870  -1.593 +0.00 +0.00    +0.242 C  
DOCKED: ATOM     34  O2  UNL     1       6.474  -2.921  -1.169 +0.00 -0.00    -0.273 OA 
DOCKED: ATOM     35  N1  UNL     1       4.472  -3.949  -1.550 +0.00 -0.00    -0.302 N  
DOCKED: ATOM     36  H10 UNL     1       3.542  -3.851  -1.958 +0.00 +0.00    +0.150 HD 
DOCKED: BRANCH  33  37
DOCKED: ATOM     37  C4  UNL     1       4.682  -1.626  -2.251 +0.00 +0.00    +0.202 C  
DOCKED: BRANCH  37  39
DOCKED: ATOM     38  C1  UNL     1       2.706  -0.609  -3.546 +0.00 +0.00    +0.010 C  
DOCKED: ATOM     39  C2  UNL     1       3.429  -1.887  -3.113 +0.00 +0.00    +0.020 C  
DOCKED: ATOM     40  C3  UNL     1       3.734  -2.767  -4.326 +0.00 +0.00    +0.010 C  
DOCKED: ENDBRANCH  37  39
DOCKED: BRANCH  37  41
DOCKED: ATOM     41  O1  UNL     1       5.660  -0.919  -3.022 +0.00 -0.00    -0.382 OA 
DOCKED: ATOM     42  H9  UNL     1       6.510  -1.373  -2.895 +0.00 +0.00    +0.210 HD 
DOCKED: ENDBRANCH  37  41
DOCKED: ENDBRANCH  33  37
DOCKED: ENDBRANCH  31  35
DOCKED: ENDBRANCH  27  31
DOCKED: ENDBRANCH  26  29
DOCKED: BRANCH  26  43
DOCKED: ATOM     43  C10 UNL     1       7.366  -6.479  -4.576 +0.00 +0.00    +0.060 C  
DOCKED: BRANCH  43  44
DOCKED: ATOM     44  C11 UNL     1       6.195  -6.430  -5.527 +0.00 -0.00    -0.046 A  
DOCKED: ATOM     45  C12 UNL     1       4.968  -5.899  -5.108 +0.00 +0.00    +0.004 A  
DOCKED: ATOM     46  C13 UNL     1       3.886  -5.839  -5.986 +0.00 +0.00    +0.000 A  
DOCKED: ATOM     47  C14 UNL     1       4.023  -6.294  -7.294 +0.00 +0.00    +0.000 A  
DOCKED: ATOM     48  C15 UNL     1       5.244  -6.800  -7.731 +0.00 +0.00    +0.000 A  
DOCKED: ATOM     49  C16 UNL     1       6.328  -6.858  -6.856 +0.00 +0.00    +0.004 A  
DOCKED: ENDBRANCH  43  44
DOCKED: ENDBRANCH  26  43
DOCKED: ENDBRANCH   1  26
DOCKED: TORSDOF 18
DOCKED: TER
DOCKED: ENDMDL
________________________________________________________________________________


    FINAL DOCKED STATE:
    ________________________


Run:   4 / 20
Time taken for this run:   0.463s

DOCKED: MODEL        4
DOCKED: USER    Run = 4
DOCKED: USER
DOCKED: USER    Estimated Free Energy of Binding    =  +5.37 kcal/mol  [=(1)+(2)+(3)-(4)]
DOCKED: USER
DOCKED: USER    (1) Final Intermolecular Energy     =  +0.00 kcal/mol
DOCKED: USER        vdW + Hbond + desolv Energy     =  +0.00 kcal/mol
DOCKED: USER        Electrostatic Energy            =  +0.00 kcal/mol
DOCKED: USER        Moving Ligand-Fixed Receptor    =  +0.00 kcal/mol
DOCKED: USER        Moving Ligand-Moving Receptor   =  +0.00 kcal/mol
DOCKED: USER    (2) Final Total Internal Energy     = -12.80 kcal/mol
DOCKED: USER    (3) Torsional Free Energy           =  +5.37 kcal/mol
DOCKED: USER    (4) Unbound System's Energy         = -12.80 kcal/mol
DOCKED: USER
DOCKED: USER
DOCKED: REMARK  Name = ligands/ligand_9.pdb
DOCKED: REMARK  24 active torsions:
DOCKED: REMARK  status: ('A' for Active; 'I' for Inactive)
DOCKED: REMARK    1  A    between atoms: C1_1  and  C2_2
DOCKED: REMARK    2  A    between atoms: C2_2  and  C3_3
DOCKED: REMARK    3  A    between atoms: C2_2  and  C4_4
DOCKED: REMARK    4  A    between atoms: C4_4  and  O1_5
DOCKED: REMARK    5  A    between atoms: C4_4  and  C5_6
DOCKED: REMARK    6  A    between atoms: N1_8  and  C6_9
DOCKED: REMARK    7  A    between atoms: C6_9  and  C7_10
DOCKED: REMARK    8  A    between atoms: C6_9  and  C8_11
DOCKED: REMARK    9  A    between atoms: N2_13  and  C9_14
DOCKED: REMARK   10  A    between atoms: C9_14  and  C10_15
DOCKED: REMARK   11  A    between atoms: C9_14  and  C17_22
DOCKED: REMARK   12  A    between atoms: C10_15  and  C11_16
DOCKED: REMARK   13  A    between atoms: C17_22  and  O4_23
DOCKED: REMARK   14  A    between atoms: C17_22  and  C18_24
DOCKED: REMARK   15  A    between atoms: C18_24  and  C19_25
DOCKED: REMARK   16  A    between atoms: C19_25  and  C20_26
DOCKED: REMARK   17  A    between atoms: C19_25  and  C21_27
DOCKED: REMARK   18  A    between atoms: N3_29  and  C22_30
DOCKED: REMARK   19  A    between atoms: C22_30  and  C23_31
DOCKED: REMARK   20  A    between atoms: C22_30  and  C31_41
DOCKED: REMARK   21  A    between atoms: N4_33  and  C24_34
DOCKED: REMARK   22  A    between atoms: C24_34  and  C25_35
DOCKED: REMARK   23  A    between atoms: C31_41  and  C32_42
DOCKED: REMARK   24  A    between atoms: C31_41  and  C33_43
DOCKED: REMARK                            x       y       z     vdW  Elec       q    Type
DOCKED: REMARK                         _______ _______ _______ _____ _____    ______ ____
DOCKED: USER                              x       y       z     vdW  Elec       q    Type
DOCKED: USER                           _______ _______ _______ _____ _____    ______ ____
DOCKED: ROOT
DOCKED: ATOM      1  C17 UNL     1       7.657  -5.917  -0.322 +0.00 +0.00    +0.136 C  
DOCKED: ENDROOT
DOCKED: BRANCH   1   2
DOCKED: ATOM      2  O4  UNL     1       7.955  -6.223   1.052 +0.00 -0.00    -0.390 OA 
DOCKED: ATOM      3  H25 UNL     1       7.605  -7.113   1.234 +0.00 +0.00    +0.210 HD 
DOCKED: ENDBRANCH   1   2
DOCKED: BRANCH   1   4
DOCKED: ATOM      4  C18 UNL     1       8.744  -6.597  -1.171 +0.00 +0.00    +0.045 C  
DOCKED: BRANCH   4   5
DOCKED: ATOM      5  C19 UNL     1       8.679  -8.122  -1.340 +0.00 +0.00    +0.074 C  
DOCKED: ATOM      6  C20 UNL     1      10.010  -8.707  -1.818 +0.00 +0.00    +0.017 C  
DOCKED: BRANCH   5   7
DOCKED: ATOM      7  C21 UNL     1       8.312  -8.757   0.005 +0.00 +0.00    +0.217 C  
DOCKED: ATOM      8  O5  UNL     1       7.161  -9.053   0.314 +0.00 -0.00    -0.276 OA 
DOCKED: ATOM      9  N3  UNL     1       9.376  -9.007   0.836 +0.00 -0.00    -0.304 N  
DOCKED: ATOM     10  H32 UNL     1      10.319  -8.710   0.591 +0.00 +0.00    +0.149 HD 
DOCKED: BRANCH   9  11
DOCKED: ATOM     11  C22 UNL     1       9.205  -9.664   2.134 +0.00 +0.00    +0.161 C  
DOCKED: BRANCH  11  12
DOCKED: ATOM     12  C23 UNL     1       8.407  -8.709   3.044 +0.00 +0.00    +0.234 C  
DOCKED: ATOM     13  O6  UNL     1       7.242  -8.400   2.799 +0.00 -0.00    -0.274 OA 
DOCKED: ATOM     14  N4  UNL     1       9.093  -8.226   4.135 +0.00 -0.00    -0.310 N  
DOCKED: ATOM     15  H34 UNL     1       9.996  -8.614   4.368 +0.00 +0.00    +0.149 HD 
DOCKED: BRANCH  14  16
DOCKED: ATOM     16  C24 UNL     1       8.448  -7.404   5.137 +0.00 +0.00    +0.139 C  
DOCKED: BRANCH  16  17
DOCKED: ATOM     17  C25 UNL     1       7.739  -6.202   4.555 +0.00 -0.00    -0.030 A  
DOCKED: ATOM     18  C26 UNL     1       6.340  -6.075   4.566 +0.00 +0.00    +0.005 A  
DOCKED: ATOM     19  C27 UNL     1       5.719  -4.966   3.989 +0.00 +0.00    +0.000 A  
DOCKED: ATOM     20  C28 UNL     1       6.485  -3.979   3.370 +0.00 +0.00    +0.000 A  
DOCKED: ATOM     21  C29 UNL     1       7.873  -4.101   3.326 +0.00 +0.00    +0.000 A  
DOCKED: ATOM     22  C30 UNL     1       8.495  -5.205   3.912 +0.00 +0.00    +0.005 A  
DOCKED: ENDBRANCH  16  17
DOCKED: ENDBRANCH  14  16
DOCKED: ENDBRANCH  11  12
DOCKED: BRANCH  11  23
DOCKED: ATOM     23  C31 UNL     1      10.571 -10.092   2.721 +0.00 +0.00    +0.012 C  
DOCKED: ATOM     24  C32 UNL     1      11.556 -10.546   1.642 +0.00 +0.00    +0.009 C  
DOCKED: ATOM     25  C33 UNL     1      10.443 -11.168   3.804 +0.00 +0.00    +0.009 C  
DOCKED: ENDBRANCH  11  23
DOCKED: ENDBRANCH   9  11
DOCKED: ENDBRANCH   5   7
DOCKED: ENDBRANCH   4   5
DOCKED: ENDBRANCH   1   4
DOCKED: BRANCH   1  26
DOCKED: ATOM     26  C9  UNL     1       6.163  -6.270  -0.576 +0.00 +0.00    +0.106 C  
DOCKED: BRANCH  26  29
DOCKED: ATOM     27  C8  UNL     1       4.224  -7.445   0.460 +0.00 +0.00    +0.233 C  
DOCKED: ATOM     28  O3  UNL     1       3.476  -7.204  -0.487 +0.00 -0.00    -0.274 OA 
DOCKED: ATOM     29  N2  UNL     1       5.554  -7.083   0.478 +0.00 -0.00    -0.308 N  
DOCKED: ATOM     30  H15 UNL     1       6.133  -7.372   1.255 +0.00 +0.00    +0.149 HD 
DOCKED: BRANCH  27  31
DOCKED: ATOM     31  C6  UNL     1       3.739  -8.185   1.722 +0.00 +0.00    +0.156 C  
DOCKED: ATOM     32  C7  UNL     1       3.507  -7.211   2.868 +0.00 +0.00    +0.038 C  
DOCKED: BRANCH  31  35
DOCKED: ATOM     33  C5  UNL     1       4.473 -10.219   2.954 +0.00 +0.00    +0.242 C  
DOCKED: ATOM     34  O2  UNL     1       3.397 -10.347   3.525 +0.00 -0.00    -0.273 OA 
DOCKED: ATOM     35  N1  UNL     1       4.728  -9.189   2.076 +0.00 -0.00    -0.302 N  
DOCKED: ATOM     36  H10 UNL     1       5.632  -9.165   1.603 +0.00 +0.00    +0.150 HD 
DOCKED: BRANCH  33  37
DOCKED: ATOM     37  C4  UNL     1       5.673 -11.186   3.102 +0.00 +0.00    +0.202 C  
DOCKED: BRANCH  37  39
DOCKED: ATOM     38  C1  UNL     1       5.992  -9.952   5.337 +0.00 +0.00    +0.010 C  
DOCKED: ATOM     39  C2  UNL     1       6.534 -11.008   4.370 +0.00 +0.00    +0.020 C  
DOCKED: ATOM     40  C3  UNL     1       6.771 -12.331   5.100 +0.00 +0.00    +0.010 C  
DOCKED: ENDBRANCH  37  39
DOCKED: BRANCH  37  41
DOCKED: ATOM     41  O1  UNL     1       6.506 -11.114   1.939 +0.00 -0.00    -0.382 OA 
DOCKED: ATOM     42  H9  UNL     1       6.740 -10.179   1.810 +0.00 +0.00    +0.210 HD 
DOCKED: ENDBRANCH  37  41
DOCKED: ENDBRANCH  33  37
DOCKED: ENDBRANCH  31  35
DOCKED: ENDBRANCH  27  31
DOCKED: ENDBRANCH  26  29
DOCKED: BRANCH  26  43
DOCKED: ATOM     43  C10 UNL     1       5.243  -5.115  -1.049 +0.00 +0.00    +0.060 C  
DOCKED: BRANCH  43  44
DOCKED: ATOM     44  C11 UNL     1       4.933  -4.013  -0.067 +0.00 -0.00    -0.046 A  
DOCKED: ATOM     45  C12 UNL     1       3.850  -4.136   0.813 +0.00 +0.00    +0.004 A  
DOCKED: ATOM     46  C13 UNL     1       3.567  -3.126   1.732 +0.00 +0.00    +0.000 A  
DOCKED: ATOM     47  C14 UNL     1       4.369  -1.990   1.790 +0.00 +0.00    +0.000 A  
DOCKED: ATOM     48  C15 UNL     1       5.464  -1.866   0.940 +0.00 +0.00    +0.000 A  
DOCKED: ATOM     49  C16 UNL     1       5.751  -2.876   0.022 +0.00 +0.00    +0.004 A  
DOCKED: ENDBRANCH  43  44
DOCKED: ENDBRANCH  26  43
DOCKED: ENDBRANCH   1  26
DOCKED: TORSDOF 18
DOCKED: TER
DOCKED: ENDMDL
________________________________________________________________________________


    FINAL DOCKED STATE:
    ________________________


Run:   5 / 20
Time taken for this run:   0.463s

DOCKED: MODEL        5
DOCKED: USER    Run = 5
DOCKED: USER
DOCKED: USER    Estimated Free Energy of Binding    =  +5.37 kcal/mol  [=(1)+(2)+(3)-(4)]
DOCKED: USER
DOCKED: USER    (1) Final Intermolecular Energy     =  +0.00 kcal/mol
DOCKED: USER        vdW + Hbond + desolv Energy     =  +0.00 kcal/mol
DOCKED: USER        Electrostatic Energy            =  +0.00 kcal/mol
DOCKED: USER        Moving Ligand-Fixed Receptor    =  +0.00 kcal/mol
DOCKED: USER        Moving Ligand-Moving Receptor   =  +0.00 kcal/mol
DOCKED: USER    (2) Final Total Internal Energy     = -12.22 kcal/mol
DOCKED: USER    (3) Torsional Free Energy           =  +5.37 kcal/mol
DOCKED: USER    (4) Unbound System's Energy         = -12.22 kcal/mol
DOCKED: USER
DOCKED: USER
DOCKED: REMARK  Name = ligands/ligand_9.pdb
DOCKED: REMARK  24 active torsions:
DOCKED: REMARK  status: ('A' for Active; 'I' for Inactive)
DOCKED: REMARK    1  A    between atoms: C1_1  and  C2_2
DOCKED: REMARK    2  A    between atoms: C2_2  and  C3_3
DOCKED: REMARK    3  A    between atoms: C2_2  and  C4_4
DOCKED: REMARK    4  A    between atoms: C4_4  and  O1_5
DOCKED: REMARK    5  A    between atoms: C4_4  and  C5_6
DOCKED: REMARK    6  A    between atoms: N1_8  and  C6_9
DOCKED: REMARK    7  A    between atoms: C6_9  and  C7_10
DOCKED: REMARK    8  A    between atoms: C6_9  and  C8_11
DOCKED: REMARK    9  A    between atoms: N2_13  and  C9_14
DOCKED: REMARK   10  A    between atoms: C9_14  and  C10_15
DOCKED: REMARK   11  A    between atoms: C9_14  and  C17_22
DOCKED: REMARK   12  A    between atoms: C10_15  and  C11_16
DOCKED: REMARK   13  A    between atoms: C17_22  and  O4_23
DOCKED: REMARK   14  A    between atoms: C17_22  and  C18_24
DOCKED: REMARK   15  A    between atoms: C18_24  and  C19_25
DOCKED: REMARK   16  A    between atoms: C19_25  and  C20_26
DOCKED: REMARK   17  A    between atoms: C19_25  and  C21_27
DOCKED: REMARK   18  A    between atoms: N3_29  and  C22_30
DOCKED: REMARK   19  A    between atoms: C22_30  and  C23_31
DOCKED: REMARK   20  A    between atoms: C22_30  and  C31_41
DOCKED: REMARK   21  A    between atoms: N4_33  and  C24_34
DOCKED: REMARK   22  A    between atoms: C24_34  and  C25_35
DOCKED: REMARK   23  A    between atoms: C31_41  and  C32_42
DOCKED: REMARK   24  A    between atoms: C31_41  and  C33_43
DOCKED: REMARK                            x       y       z     vdW  Elec       q    Type
DOCKED: REMARK                         _______ _______ _______ _____ _____    ______ ____
DOCKED: USER                              x       y       z     vdW  Elec       q    Type
DOCKED: USER                           _______ _______ _______ _____ _____    ______ ____
DOCKED: ROOT
DOCKED: ATOM      1  C17 UNL     1      12.614  -4.611   3.153 +0.00 +0.00    +0.136 C  
DOCKED: ENDROOT
DOCKED: BRANCH   1   2
DOCKED: ATOM      2  O4  UNL     1      12.891  -5.648   4.112 +0.00 -0.00    -0.390 OA 
DOCKED: ATOM      3  H25 UNL     1      12.051  -5.867   4.553 +0.00 +0.00    +0.210 HD 
DOCKED: ENDBRANCH   1   2
DOCKED: BRANCH   1   4
DOCKED: ATOM      4  C18 UNL     1      12.232  -5.315   1.841 +0.00 +0.00    +0.045 C  
DOCKED: BRANCH   4   5
DOCKED: ATOM      5  C19 UNL     1      10.916  -6.107   1.804 +0.00 +0.00    +0.074 C  
DOCKED: ATOM      6  C20 UNL     1      10.705  -6.810   0.461 +0.00 +0.00    +0.017 C  
DOCKED: BRANCH   5   7
DOCKED: ATOM      7  C21 UNL     1      10.937  -7.158   2.918 +0.00 +0.00    +0.217 C  
DOCKED: ATOM      8  O5  UNL     1      10.465  -6.960   4.034 +0.00 -0.00    -0.276 OA 
DOCKED: ATOM      9  N3  UNL     1      11.493  -8.363   2.566 +0.00 -0.00    -0.304 N  
DOCKED: ATOM     10  H32 UNL     1      11.927  -8.498   1.654 +0.00 +0.00    +0.149 HD 
DOCKED: BRANCH   9  11
DOCKED: ATOM     11  C22 UNL     1      11.538  -9.494   3.495 +0.00 +0.00    +0.161 C  
DOCKED: BRANCH  11  12
DOCKED: ATOM     12  C23 UNL     1      12.861  -9.406   4.282 +0.00 +0.00    +0.234 C  
DOCKED: ATOM     13  O6  UNL     1      13.730 -10.272   4.191 +0.00 -0.00    -0.274 OA 
DOCKED: ATOM     14  N4  UNL     1      12.989  -8.302   5.093 +0.00 -0.00    -0.310 N  
DOCKED: ATOM     15  H34 UNL     1      12.313  -7.555   5.030 +0.00 +0.00    +0.149 HD 
DOCKED: BRANCH  14  16
DOCKED: ATOM     16  C24 UNL     1      14.214  -8.026   5.814 +0.00 +0.00    +0.139 C  
DOCKED: BRANCH  16  17
DOCKED: ATOM     17  C25 UNL     1      14.065  -6.929   6.843 +0.00 -0.00    -0.030 A  
DOCKED: ATOM     18  C26 UNL     1      14.463  -5.605   6.595 +0.00 +0.00    +0.005 A  
DOCKED: ATOM     19  C27 UNL     1      14.341  -4.625   7.583 +0.00 +0.00    +0.000 A  
DOCKED: ATOM     20  C28 UNL     1      13.842  -4.960   8.841 +0.00 +0.00    +0.000 A  
DOCKED: ATOM     21  C29 UNL     1      13.467  -6.275   9.113 +0.00 +0.00    +0.000 A  
DOCKED: ATOM     22  C30 UNL     1      13.580  -7.252   8.123 +0.00 +0.00    +0.005 A  
DOCKED: ENDBRANCH  16  17
DOCKED: ENDBRANCH  14  16
DOCKED: ENDBRANCH  11  12
DOCKED: BRANCH  11  23
DOCKED: ATOM     23  C31 UNL     1      11.343 -10.834   2.746 +0.00 +0.00    +0.012 C  
DOCKED: ATOM     24  C32 UNL     1      10.469 -10.686   1.498 +0.00 +0.00    +0.009 C  
DOCKED: ATOM     25  C33 UNL     1      10.792 -11.945   3.646 +0.00 +0.00    +0.009 C  
DOCKED: ENDBRANCH  11  23
DOCKED: ENDBRANCH   9  11
DOCKED: ENDBRANCH   5   7
DOCKED: ENDBRANCH   4   5
DOCKED: ENDBRANCH   1   4
DOCKED: BRANCH   1  26
DOCKED: ATOM     26  C9  UNL     1      11.610  -3.617   3.803 +0.00 +0.00    +0.106 C  
DOCKED: BRANCH  26  29
DOCKED: ATOM     27  C8  UNL     1       9.949  -3.579   5.662 +0.00 +0.00    +0.233 C  
DOCKED: ATOM     28  O3  UNL     1       9.143  -2.898   5.028 +0.00 -0.00    -0.274 OA 
DOCKED: ATOM     29  N2  UNL     1      11.141  -4.022   5.129 +0.00 -0.00    -0.308 N  
DOCKED: ATOM     30  H15 UNL     1      11.727  -4.637   5.676 +0.00 +0.00    +0.149 HD 
DOCKED: BRANCH  27  31
DOCKED: ATOM     31  C6  UNL     1       9.695  -4.007   7.120 +0.00 +0.00    +0.156 C  
DOCKED: ATOM     32  C7  UNL     1      10.900  -3.694   7.997 +0.00 +0.00    +0.038 C  
DOCKED: BRANCH  31  35
DOCKED: ATOM     33  C5  UNL     1      10.300  -6.399   6.789 +0.00 +0.00    +0.242 C  
DOCKED: ATOM     34  O2  UNL     1      11.434  -6.132   6.410 +0.00 -0.00    -0.273 OA 
DOCKED: ATOM     35  N1  UNL     1       9.387  -5.428   7.137 +0.00 -0.00    -0.302 N  
DOCKED: ATOM     36  H10 UNL     1       8.473  -5.720   7.483 +0.00 +0.00    +0.150 HD 
DOCKED: BRANCH  33  37
DOCKED: ATOM     37  C4  UNL     1       9.739  -7.831   6.960 +0.00 +0.00    +0.202 C  
DOCKED: BRANCH  37  39
DOCKED: ATOM     38  C1  UNL     1      10.768  -9.623   8.493 +0.00 +0.00    +0.010 C  
DOCKED: ATOM     39  C2  UNL     1       9.819  -8.426   8.381 +0.00 +0.00    +0.020 C  
DOCKED: ATOM     40  C3  UNL     1      10.162  -7.370   9.433 +0.00 +0.00    +0.010 C  
DOCKED: ENDBRANCH  37  39
DOCKED: BRANCH  37  41
DOCKED: ATOM     41  O1  UNL     1      10.372  -8.719   6.030 +0.00 -0.00    -0.382 OA 
DOCKED: ATOM     42  H9  UNL     1      11.019  -8.195   5.527 +0.00 +0.00    +0.210 HD 
DOCKED: ENDBRANCH  37  41
DOCKED: ENDBRANCH  33  37
DOCKED: ENDBRANCH  31  35
DOCKED: ENDBRANCH  27  31
DOCKED: ENDBRANCH  26  29
DOCKED: BRANCH  26  43
DOCKED: ATOM     43  C10 UNL     1      11.971  -2.110   3.730 +0.00 +0.00    +0.060 C  
DOCKED: BRANCH  43  44
DOCKED: ATOM     44  C11 UNL     1      12.541  -1.461   4.967 +0.00 -0.00    -0.046 A  
DOCKED: ATOM     45  C12 UNL     1      11.806  -0.486   5.654 +0.00 +0.00    +0.004 A  
DOCKED: ATOM     46  C13 UNL     1      12.322   0.108   6.805 +0.00 +0.00    +0.000 A  
DOCKED: ATOM     47  C14 UNL     1      13.569  -0.275   7.289 +0.00 +0.00    +0.000 A  
DOCKED: ATOM     48  C15 UNL     1      14.299  -1.261   6.632 +0.00 +0.00    +0.000 A  
DOCKED: ATOM     49  C16 UNL     1      13.784  -1.859   5.482 +0.00 +0.00    +0.004 A  
DOCKED: ENDBRANCH  43  44
DOCKED: ENDBRANCH  26  43
DOCKED: ENDBRANCH   1  26
DOCKED: TORSDOF 18
DOCKED: TER
DOCKED: ENDMDL
________________________________________________________________________________


    FINAL DOCKED STATE:
    ________________________


Run:   6 / 20
Time taken for this run:   0.463s

DOCKED: MODEL        6
DOCKED: USER    Run = 6
DOCKED: USER
DOCKED: USER    Estimated Free Energy of Binding    =  +5.37 kcal/mol  [=(1)+(2)+(3)-(4)]
DOCKED: USER
DOCKED: USER    (1) Final Intermolecular Energy     =  +0.00 kcal/mol
DOCKED: USER        vdW + Hbond + desolv Energy     =  +0.00 kcal/mol
DOCKED: USER        Electrostatic Energy            =  +0.00 kcal/mol
DOCKED: USER        Moving Ligand-Fixed Receptor    =  +0.00 kcal/mol
DOCKED: USER        Moving Ligand-Moving Receptor   =  +0.00 kcal/mol
DOCKED: USER    (2) Final Total Internal Energy     = -12.80 kcal/mol
DOCKED: USER    (3) Torsional Free Energy           =  +5.37 kcal/mol
DOCKED: USER    (4) Unbound System's Energy         = -12.80 kcal/mol
DOCKED: USER
DOCKED: USER
DOCKED: REMARK  Name = ligands/ligand_9.pdb
DOCKED: REMARK  24 active torsions:
DOCKED: REMARK  status: ('A' for Active; 'I' for Inactive)
DOCKED: REMARK    1  A    between atoms: C1_1  and  C2_2
DOCKED: REMARK    2  A    between atoms: C2_2  and  C3_3
DOCKED: REMARK    3  A    between atoms: C2_2  and  C4_4
DOCKED: REMARK    4  A    between atoms: C4_4  and  O1_5
DOCKED: REMARK    5  A    between atoms: C4_4  and  C5_6
DOCKED: REMARK    6  A    between atoms: N1_8  and  C6_9
DOCKED: REMARK    7  A    between atoms: C6_9  and  C7_10
DOCKED: REMARK    8  A    between atoms: C6_9  and  C8_11
DOCKED: REMARK    9  A    between atoms: N2_13  and  C9_14
DOCKED: REMARK   10  A    between atoms: C9_14  and  C10_15
DOCKED: REMARK   11  A    between atoms: C9_14  and  C17_22
DOCKED: REMARK   12  A    between atoms: C10_15  and  C11_16
DOCKED: REMARK   13  A    between atoms: C17_22  and  O4_23
DOCKED: REMARK   14  A    between atoms: C17_22  and  C18_24
DOCKED: REMARK   15  A    between atoms: C18_24  and  C19_25
DOCKED: REMARK   16  A    between atoms: C19_25  and  C20_26
DOCKED: REMARK   17  A    between atoms: C19_25  and  C21_27
DOCKED: REMARK   18  A    between atoms: N3_29  and  C22_30
DOCKED: REMARK   19  A    between atoms: C22_30  and  C23_31
DOCKED: REMARK   20  A    between atoms: C22_30  and  C31_41
DOCKED: REMARK   21  A    between atoms: N4_33  and  C24_34
DOCKED: REMARK   22  A    between atoms: C24_34  and  C25_35
DOCKED: REMARK   23  A    between atoms: C31_41  and  C32_42
DOCKED: REMARK   24  A    between atoms: C31_41  and  C33_43
DOCKED: REMARK                            x       y       z     vdW  Elec       q    Type
DOCKED: REMARK                         _______ _______ _______ _____ _____    ______ ____
DOCKED: USER                              x       y       z     vdW  Elec       q    Type
DOCKED: USER                           _______ _______ _______ _____ _____    ______ ____
DOCKED: ROOT
DOCKED: ATOM      1  C17 UNL     1      10.926  -6.311   0.469 +0.00 +0.00    +0.136 C  
DOCKED: ENDROOT
DOCKED: BRANCH   1   2
DOCKED: ATOM      2  O4  UNL     1      12.211  -6.824   0.867 +0.00 -0.00    -0.390 OA 
DOCKED: ATOM      3  H25 UNL     1      12.130  -7.793   0.928 +0.00 +0.00    +0.210 HD 
DOCKED: ENDBRANCH   1   2
DOCKED: BRANCH   1   4
DOCKED: ATOM      4  C18 UNL     1      10.853  -6.444  -1.061 +0.00 +0.00    +0.045 C  
DOCKED: BRANCH   4   5
DOCKED: ATOM      5  C19 UNL     1      10.660  -7.849  -1.654 +0.00 +0.00    +0.074 C  
DOCKED: ATOM      6  C20 UNL     1      11.039  -7.905  -3.136 +0.00 +0.00    +0.017 C  
DOCKED: BRANCH   5   7
DOCKED: ATOM      7  C21 UNL     1      11.534  -8.840  -0.879 +0.00 +0.00    +0.217 C  
DOCKED: ATOM      8  O5  UNL     1      11.112  -9.516   0.054 +0.00 -0.00    -0.276 OA 
DOCKED: ATOM      9  N3  UNL     1      12.826  -8.946  -1.329 +0.00 -0.00    -0.304 N  
DOCKED: ATOM     10  H32 UNL     1      13.179  -8.342  -2.071 +0.00 +0.00    +0.149 HD 
DOCKED: BRANCH   9  11
DOCKED: ATOM     11  C22 UNL     1      13.776  -9.891  -0.737 +0.00 +0.00    +0.161 C  
DOCKED: BRANCH  11  12
DOCKED: ATOM     12  C23 UNL     1      14.044  -9.443   0.714 +0.00 +0.00    +0.234 C  
DOCKED: ATOM     13  O6  UNL     1      13.163  -9.461   1.572 +0.00 -0.00    -0.274 OA 
DOCKED: ATOM     14  N4  UNL     1      15.327  -9.017   0.970 +0.00 -0.00    -0.310 N  
DOCKED: ATOM     15  H34 UNL     1      16.045  -9.150   0.272 +0.00 +0.00    +0.149 HD 
DOCKED: BRANCH  14  16
DOCKED: ATOM     16  C24 UNL     1      15.760  -8.664   2.306 +0.00 +0.00    +0.139 C  
DOCKED: BRANCH  16  17
DOCKED: ATOM     17  C25 UNL     1      14.901  -7.600   2.949 +0.00 -0.00    -0.030 A  
DOCKED: ATOM     18  C26 UNL     1      14.092  -7.859   4.067 +0.00 +0.00    +0.005 A  
DOCKED: ATOM     19  C27 UNL     1      13.286  -6.859   4.614 +0.00 +0.00    +0.000 A  
DOCKED: ATOM     20  C28 UNL     1      13.257  -5.590   4.035 +0.00 +0.00    +0.000 A  
DOCKED: ATOM     21  C29 UNL     1      14.034  -5.322   2.908 +0.00 +0.00    +0.000 A  
DOCKED: ATOM     22  C30 UNL     1      14.847  -6.320   2.368 +0.00 +0.00    +0.005 A  
DOCKED: ENDBRANCH  16  17
DOCKED: ENDBRANCH  14  16
DOCKED: ENDBRANCH  11  12
DOCKED: BRANCH  11  23
DOCKED: ATOM     23  C31 UNL     1      15.054 -10.007  -1.602 +0.00 +0.00    +0.012 C  
DOCKED: ATOM     24  C32 UNL     1      15.501  -8.658  -2.171 +0.00 +0.00    +0.009 C  
DOCKED: ATOM     25  C33 UNL     1      14.919 -11.035  -2.730 +0.00 +0.00    +0.009 C  
DOCKED: ENDBRANCH  11  23
DOCKED: ENDBRANCH   9  11
DOCKED: ENDBRANCH   5   7
DOCKED: ENDBRANCH   4   5
DOCKED: ENDBRANCH   1   4
DOCKED: BRANCH   1  26
DOCKED: ATOM     26  C9  UNL     1       9.844  -7.003   1.346 +0.00 +0.00    +0.106 C  
DOCKED: BRANCH  26  29
DOCKED: ATOM     27  C8  UNL     1       9.537  -8.870   2.969 +0.00 +0.00    +0.233 C  
DOCKED: ATOM     28  O3  UNL     1       8.337  -8.641   3.121 +0.00 -0.00    -0.274 OA 
DOCKED: ATOM     29  N2  UNL     1      10.331  -8.167   2.089 +0.00 -0.00    -0.308 N  
DOCKED: ATOM     30  H15 UNL     1      11.293  -8.450   1.958 +0.00 +0.00    +0.149 HD 
DOCKED: BRANCH  27  31
DOCKED: ATOM     31  C6  UNL     1      10.267  -9.977   3.754 +0.00 +0.00    +0.156 C  
DOCKED: ATOM     32  C7  UNL     1      11.144  -9.382   4.847 +0.00 +0.00    +0.038 C  
DOCKED: BRANCH  31  35
DOCKED: ATOM     33  C5  UNL     1      11.486 -12.043   3.088 +0.00 +0.00    +0.242 C  
DOCKED: ATOM     34  O2  UNL     1      11.263 -12.602   4.155 +0.00 -0.00    -0.273 OA 
DOCKED: ATOM     35  N1  UNL     1      11.053 -10.764   2.818 +0.00 -0.00    -0.302 N  
DOCKED: ATOM     36  H10 UNL     1      11.238 -10.372   1.894 +0.00 +0.00    +0.150 HD 
DOCKED: BRANCH  33  37
DOCKED: ATOM     37  C4  UNL     1      12.243 -12.679   1.898 +0.00 +0.00    +0.202 C  
DOCKED: BRANCH  37  39
DOCKED: ATOM     38  C1  UNL     1      14.551 -12.823   0.770 +0.00 +0.00    +0.010 C  
DOCKED: ATOM     39  C2  UNL     1      13.763 -12.866   2.082 +0.00 +0.00    +0.020 C  
DOCKED: ATOM     40  C3  UNL     1      14.350 -11.879   3.092 +0.00 +0.00    +0.010 C  
DOCKED: ENDBRANCH  37  39
DOCKED: BRANCH  37  41
DOCKED: ATOM     41  O1  UNL     1      11.991 -11.932   0.701 +0.00 -0.00    -0.382 OA 
DOCKED: ATOM     42  H9  UNL     1      12.178 -10.999   0.900 +0.00 +0.00    +0.210 HD 
DOCKED: ENDBRANCH  37  41
DOCKED: ENDBRANCH  33  37
DOCKED: ENDBRANCH  31  35
DOCKED: ENDBRANCH  27  31
DOCKED: ENDBRANCH  26  29
DOCKED: BRANCH  26  43
DOCKED: ATOM     43  C10 UNL     1       8.944  -6.078   2.205 +0.00 +0.00    +0.060 C  
DOCKED: BRANCH  43  44
DOCKED: ATOM     44  C11 UNL     1       9.591  -5.318   3.338 +0.00 -0.00    -0.046 A  
DOCKED: ATOM     45  C12 UNL     1      10.120  -4.041   3.119 +0.00 +0.00    +0.004 A  
DOCKED: ATOM     46  C13 UNL     1      10.708  -3.329   4.165 +0.00 +0.00    +0.000 A  
DOCKED: ATOM     47  C14 UNL     1      10.758  -3.881   5.442 +0.00 +0.00    +0.000 A  
DOCKED: ATOM     48  C15 UNL     1      10.212  -5.139   5.680 +0.00 +0.00    +0.000 A  
DOCKED: ATOM     49  C16 UNL     1       9.622  -5.850   4.636 +0.00 +0.00    +0.004 A  
DOCKED: ENDBRANCH  43  44
DOCKED: ENDBRANCH  26  43
DOCKED: ENDBRANCH   1  26
DOCKED: TORSDOF 18
DOCKED: TER
DOCKED: ENDMDL
________________________________________________________________________________


    FINAL DOCKED STATE:
    ________________________


Run:   7 / 20
Time taken for this run:   0.463s

DOCKED: MODEL        7
DOCKED: USER    Run = 7
DOCKED: USER
DOCKED: USER    Estimated Free Energy of Binding    =  +5.37 kcal/mol  [=(1)+(2)+(3)-(4)]
DOCKED: USER
DOCKED: USER    (1) Final Intermolecular Energy     =  +0.00 kcal/mol
DOCKED: USER        vdW + Hbond + desolv Energy     =  +0.00 kcal/mol
DOCKED: USER        Electrostatic Energy            =  +0.00 kcal/mol
DOCKED: USER        Moving Ligand-Fixed Receptor    =  +0.00 kcal/mol
DOCKED: USER        Moving Ligand-Moving Receptor   =  +0.00 kcal/mol
DOCKED: USER    (2) Final Total Internal Energy     = -11.91 kcal/mol
DOCKED: USER    (3) Torsional Free Energy           =  +5.37 kcal/mol
DOCKED: USER    (4) Unbound System's Energy         = -11.91 kcal/mol
DOCKED: USER
DOCKED: USER
DOCKED: REMARK  Name = ligands/ligand_9.pdb
DOCKED: REMARK  24 active torsions:
DOCKED: REMARK  status: ('A' for Active; 'I' for Inactive)
DOCKED: REMARK    1  A    between atoms: C1_1  and  C2_2
DOCKED: REMARK    2  A    between atoms: C2_2  and  C3_3
DOCKED: REMARK    3  A    between atoms: C2_2  and  C4_4
DOCKED: REMARK    4  A    between atoms: C4_4  and  O1_5
DOCKED: REMARK    5  A    between atoms: C4_4  and  C5_6
DOCKED: REMARK    6  A    between atoms: N1_8  and  C6_9
DOCKED: REMARK    7  A    between atoms: C6_9  and  C7_10
DOCKED: REMARK    8  A    between atoms: C6_9  and  C8_11
DOCKED: REMARK    9  A    between atoms: N2_13  and  C9_14
DOCKED: REMARK   10  A    between atoms: C9_14  and  C10_15
DOCKED: REMARK   11  A    between atoms: C9_14  and  C17_22
DOCKED: REMARK   12  A    between atoms: C10_15  and  C11_16
DOCKED: REMARK   13  A    between atoms: C17_22  and  O4_23
DOCKED: REMARK   14  A    between atoms: C17_22  and  C18_24
DOCKED: REMARK   15  A    between atoms: C18_24  and  C19_25
DOCKED: REMARK   16  A    between atoms: C19_25  and  C20_26
DOCKED: REMARK   17  A    between atoms: C19_25  and  C21_27
DOCKED: REMARK   18  A    between atoms: N3_29  and  C22_30
DOCKED: REMARK   19  A    between atoms: C22_30  and  C23_31
DOCKED: REMARK   20  A    between atoms: C22_30  and  C31_41
DOCKED: REMARK   21  A    between atoms: N4_33  and  C24_34
DOCKED: REMARK   22  A    between atoms: C24_34  and  C25_35
DOCKED: REMARK   23  A    between atoms: C31_41  and  C32_42
DOCKED: REMARK   24  A    between atoms: C31_41  and  C33_43
DOCKED: REMARK                            x       y       z     vdW  Elec       q    Type
DOCKED: REMARK                         _______ _______ _______ _____ _____    ______ ____
DOCKED: USER                              x       y       z     vdW  Elec       q    Type
DOCKED: USER                           _______ _______ _______ _____ _____    ______ ____
DOCKED: ROOT
DOCKED: ATOM      1  C17 UNL     1       9.105  -1.066   0.054 +0.00 +0.00    +0.136 C  
DOCKED: ENDROOT
DOCKED: BRANCH   1   2
DOCKED: ATOM      2  O4  UNL     1      10.487  -0.767   0.326 +0.00 -0.00    -0.390 OA 
DOCKED: ATOM      3  H25 UNL     1      10.840  -1.496   0.867 +0.00 +0.00    +0.210 HD 
DOCKED: ENDBRANCH   1   2
DOCKED: BRANCH   1   4
DOCKED: ATOM      4  C18 UNL     1       9.095  -2.277  -0.893 +0.00 +0.00    +0.045 C  
DOCKED: BRANCH   4   5
DOCKED: ATOM      5  C19 UNL     1       9.294  -3.672  -0.282 +0.00 +0.00    +0.074 C  
DOCKED: ATOM      6  C20 UNL     1       9.050  -4.788  -1.301 +0.00 +0.00    +0.017 C  
DOCKED: BRANCH   5   7
DOCKED: ATOM      7  C21 UNL     1      10.729  -3.785   0.243 +0.00 +0.00    +0.217 C  
DOCKED: ATOM      8  O5  UNL     1      11.032  -3.572   1.414 +0.00 -0.00    -0.276 OA 
DOCKED: ATOM      9  N3  UNL     1      11.657  -4.179  -0.689 +0.00 -0.00    -0.304 N  
DOCKED: ATOM     10  H32 UNL     1      11.403  -4.301  -1.668 +0.00 +0.00    +0.149 HD 
DOCKED: BRANCH   9  11
DOCKED: ATOM     11  C22 UNL     1      13.063  -4.391  -0.338 +0.00 +0.00    +0.161 C  
DOCKED: BRANCH  11  12
DOCKED: ATOM     12  C23 UNL     1      13.139  -5.628   0.579 +0.00 +0.00    +0.234 C  
DOCKED: ATOM     13  O6  UNL     1      13.390  -6.749   0.139 +0.00 -0.00    -0.274 OA 
DOCKED: ATOM     14  N4  UNL     1      12.895  -5.388   1.911 +0.00 -0.00    -0.310 N  
DOCKED: ATOM     15  H34 UNL     1      12.829  -4.436   2.243 +0.00 +0.00    +0.149 HD 
DOCKED: BRANCH  14  16
DOCKED: ATOM     16  C24 UNL     1      13.031  -6.427   2.910 +0.00 +0.00    +0.139 C  
DOCKED: BRANCH  16  17
DOCKED: ATOM     17  C25 UNL     1      12.530  -6.012   4.274 +0.00 -0.00    -0.030 A  
DOCKED: ATOM     18  C26 UNL     1      11.255  -6.366   4.747 +0.00 +0.00    +0.005 A  
DOCKED: ATOM     19  C27 UNL     1      10.813  -5.935   6.000 +0.00 +0.00    +0.000 A  
DOCKED: ATOM     20  C28 UNL     1      11.629  -5.123   6.788 +0.00 +0.00    +0.000 A  
DOCKED: ATOM     21  C29 UNL     1      12.886  -4.740   6.323 +0.00 +0.00    +0.000 A  
DOCKED: ATOM     22  C30 UNL     1      13.332  -5.179   5.075 +0.00 +0.00    +0.005 A  
DOCKED: ENDBRANCH  16  17
DOCKED: ENDBRANCH  14  16
DOCKED: ENDBRANCH  11  12
DOCKED: BRANCH  11  23
DOCKED: ATOM     23  C31 UNL     1      13.678  -3.115   0.282 +0.00 +0.00    +0.012 C  
DOCKED: ATOM     24  C32 UNL     1      13.480  -1.880  -0.601 +0.00 +0.00    +0.009 C  
DOCKED: ATOM     25  C33 UNL     1      15.160  -3.277   0.635 +0.00 +0.00    +0.009 C  
DOCKED: ENDBRANCH  11  23
DOCKED: ENDBRANCH   9  11
DOCKED: ENDBRANCH   5   7
DOCKED: ENDBRANCH   4   5
DOCKED: ENDBRANCH   1   4
DOCKED: BRANCH   1  26
DOCKED: ATOM     26  C9  UNL     1       8.361  -1.159   1.416 +0.00 +0.00    +0.106 C  
DOCKED: BRANCH  26  29
DOCKED: ATOM     27  C8  UNL     1       8.375  -2.751   3.335 +0.00 +0.00    +0.233 C  
DOCKED: ATOM     28  O3  UNL     1       7.154  -2.904   3.314 +0.00 -0.00    -0.274 OA 
DOCKED: ATOM     29  N2  UNL     1       9.050  -1.971   2.420 +0.00 -0.00    -0.308 N  
DOCKED: ATOM     30  H15 UNL     1      10.061  -1.942   2.448 +0.00 +0.00    +0.149 HD 
DOCKED: BRANCH  27  31
DOCKED: ATOM     31  C6  UNL     1       9.269  -3.424   4.394 +0.00 +0.00    +0.156 C  
DOCKED: ATOM     32  C7  UNL     1       8.922  -2.933   5.793 +0.00 +0.00    +0.038 C  
DOCKED: BRANCH  31  35
DOCKED: ATOM     33  C5  UNL     1      11.300  -1.986   4.442 +0.00 +0.00    +0.242 C  
DOCKED: ATOM     34  O2  UNL     1      10.735  -1.088   5.053 +0.00 -0.00    -0.273 OA 
DOCKED: ATOM     35  N1  UNL     1      10.658  -3.146   4.069 +0.00 -0.00    -0.302 N  
DOCKED: ATOM     36  H10 UNL     1      11.199  -3.872   3.598 +0.00 +0.00    +0.150 HD 
DOCKED: BRANCH  33  37
DOCKED: ATOM     37  C4  UNL     1      12.792  -1.972   4.030 +0.00 +0.00    +0.202 C  
DOCKED: BRANCH  37  39
DOCKED: ATOM     38  C1  UNL     1      12.632  -0.061   2.316 +0.00 +0.00    +0.010 C  
DOCKED: ATOM     39  C2  UNL     1      13.350  -0.617   3.549 +0.00 +0.00    +0.020 C  
DOCKED: ATOM     40  C3  UNL     1      13.382   0.427   4.666 +0.00 +0.00    +0.010 C  
DOCKED: ENDBRANCH  37  39
DOCKED: BRANCH  37  41
DOCKED: ATOM     41  O1  UNL     1      13.035  -2.974   3.035 +0.00 -0.00    -0.382 OA 
DOCKED: ATOM     42  H9  UNL     1      12.267  -2.979   2.439 +0.00 +0.00    +0.210 HD 
DOCKED: ENDBRANCH  37  41
DOCKED: ENDBRANCH  33  37
DOCKED: ENDBRANCH  31  35
DOCKED: ENDBRANCH  27  31
DOCKED: ENDBRANCH  26  29
DOCKED: BRANCH  26  43
DOCKED: ATOM     43  C10 UNL     1       7.801   0.165   1.999 +0.00 +0.00    +0.060 C  
DOCKED: BRANCH  43  44
DOCKED: ATOM     44  C11 UNL     1       8.498   0.758   3.199 +0.00 -0.00    -0.046 A  
DOCKED: ATOM     45  C12 UNL     1       7.982   0.557   4.485 +0.00 +0.00    +0.004 A  
DOCKED: ATOM     46  C13 UNL     1       8.629   1.092   5.599 +0.00 +0.00    +0.000 A  
DOCKED: ATOM     47  C14 UNL     1       9.804   1.819   5.440 +0.00 +0.00    +0.000 A  
DOCKED: ATOM     48  C15 UNL     1      10.343   2.004   4.170 +0.00 +0.00    +0.000 A  
DOCKED: ATOM     49  C16 UNL     1       9.700   1.468   3.056 +0.00 +0.00    +0.004 A  
DOCKED: ENDBRANCH  43  44
DOCKED: ENDBRANCH  26  43
DOCKED: ENDBRANCH   1  26
DOCKED: TORSDOF 18
DOCKED: TER
DOCKED: ENDMDL
________________________________________________________________________________


    FINAL DOCKED STATE:
    ________________________


Run:   8 / 20
Time taken for this run:   0.463s

DOCKED: MODEL        8
DOCKED: USER    Run = 8
DOCKED: USER
DOCKED: USER    Estimated Free Energy of Binding    =  +5.37 kcal/mol  [=(1)+(2)+(3)-(4)]
DOCKED: USER
DOCKED: USER    (1) Final Intermolecular Energy     =  +0.00 kcal/mol
DOCKED: USER        vdW + Hbond + desolv Energy     =  +0.00 kcal/mol
DOCKED: USER        Electrostatic Energy            =  +0.00 kcal/mol
DOCKED: USER        Moving Ligand-Fixed Receptor    =  +0.00 kcal/mol
DOCKED: USER        Moving Ligand-Moving Receptor   =  +0.00 kcal/mol
DOCKED: USER    (2) Final Total Internal Energy     = -12.20 kcal/mol
DOCKED: USER    (3) Torsional Free Energy           =  +5.37 kcal/mol
DOCKED: USER    (4) Unbound System's Energy         = -12.20 kcal/mol
DOCKED: USER
DOCKED: USER
DOCKED: REMARK  Name = ligands/ligand_9.pdb
DOCKED: REMARK  24 active torsions:
DOCKED: REMARK  status: ('A' for Active; 'I' for Inactive)
DOCKED: REMARK    1  A    between atoms: C1_1  and  C2_2
DOCKED: REMARK    2  A    between atoms: C2_2  and  C3_3
DOCKED: REMARK    3  A    between atoms: C2_2  and  C4_4
DOCKED: REMARK    4  A    between atoms: C4_4  and  O1_5
DOCKED: REMARK    5  A    between atoms: C4_4  and  C5_6
DOCKED: REMARK    6  A    between atoms: N1_8  and  C6_9
DOCKED: REMARK    7  A    between atoms: C6_9  and  C7_10
DOCKED: REMARK    8  A    between atoms: C6_9  and  C8_11
DOCKED: REMARK    9  A    between atoms: N2_13  and  C9_14
DOCKED: REMARK   10  A    between atoms: C9_14  and  C10_15
DOCKED: REMARK   11  A    between atoms: C9_14  and  C17_22
DOCKED: REMARK   12  A    between atoms: C10_15  and  C11_16
DOCKED: REMARK   13  A    between atoms: C17_22  and  O4_23
DOCKED: REMARK   14  A    between atoms: C17_22  and  C18_24
DOCKED: REMARK   15  A    between atoms: C18_24  and  C19_25
DOCKED: REMARK   16  A    between atoms: C19_25  and  C20_26
DOCKED: REMARK   17  A    between atoms: C19_25  and  C21_27
DOCKED: REMARK   18  A    between atoms: N3_29  and  C22_30
DOCKED: REMARK   19  A    between atoms: C22_30  and  C23_31
DOCKED: REMARK   20  A    between atoms: C22_30  and  C31_41
DOCKED: REMARK   21  A    between atoms: N4_33  and  C24_34
DOCKED: REMARK   22  A    between atoms: C24_34  and  C25_35
DOCKED: REMARK   23  A    between atoms: C31_41  and  C32_42
DOCKED: REMARK   24  A    between atoms: C31_41  and  C33_43
DOCKED: REMARK                            x       y       z     vdW  Elec       q    Type
DOCKED: REMARK                         _______ _______ _______ _____ _____    ______ ____
DOCKED: USER                              x       y       z     vdW  Elec       q    Type
DOCKED: USER                           _______ _______ _______ _____ _____    ______ ____
DOCKED: ROOT
DOCKED: ATOM      1  C17 UNL     1       8.705  -4.487   1.042 +0.00 +0.00    +0.136 C  
DOCKED: ENDROOT
DOCKED: BRANCH   1   2
DOCKED: ATOM      2  O4  UNL     1       9.849  -5.327   1.285 +0.00 -0.00    -0.390 OA 
DOCKED: ATOM      3  H25 UNL     1       9.514  -6.206   1.538 +0.00 +0.00    +0.210 HD 
DOCKED: ENDBRANCH   1   2
DOCKED: BRANCH   1   4
DOCKED: ATOM      4  C18 UNL     1       8.352  -4.644  -0.446 +0.00 +0.00    +0.045 C  
DOCKED: BRANCH   4   5
DOCKED: ATOM      5  C19 UNL     1       7.813  -6.003  -0.919 +0.00 +0.00    +0.074 C  
DOCKED: ATOM      6  C20 UNL     1       7.554  -6.026  -2.428 +0.00 +0.00    +0.017 C  
DOCKED: BRANCH   5   7
DOCKED: ATOM      7  C21 UNL     1       8.835  -7.091  -0.574 +0.00 +0.00    +0.217 C  
DOCKED: ATOM      8  O5  UNL     1       8.775  -7.765   0.450 +0.00 -0.00    -0.276 OA 
DOCKED: ATOM      9  N3  UNL     1       9.813  -7.286  -1.517 +0.00 -0.00    -0.304 N  
DOCKED: ATOM     10  H32 UNL     1       9.884  -6.686  -2.338 +0.00 +0.00    +0.149 HD 
DOCKED: BRANCH   9  11
DOCKED: ATOM     11  C22 UNL     1      10.833  -8.327  -1.369 +0.00 +0.00    +0.161 C  
DOCKED: BRANCH  11  12
DOCKED: ATOM     12  C23 UNL     1      12.038  -7.706  -0.634 +0.00 +0.00    +0.234 C  
DOCKED: ATOM     13  O6  UNL     1      13.143  -7.606  -1.165 +0.00 -0.00    -0.274 OA 
DOCKED: ATOM     14  N4  UNL     1      11.788  -7.285   0.652 +0.00 -0.00    -0.310 N  
DOCKED: ATOM     15  H34 UNL     1      10.837  -7.262   0.994 +0.00 +0.00    +0.149 HD 
DOCKED: BRANCH  14  16
DOCKED: ATOM     16  C24 UNL     1      12.788  -6.589   1.433 +0.00 +0.00    +0.139 C  
DOCKED: BRANCH  16  17
DOCKED: ATOM     17  C25 UNL     1      12.417  -6.455   2.892 +0.00 -0.00    -0.030 A  
DOCKED: ATOM     18  C26 UNL     1      11.851  -5.284   3.421 +0.00 +0.00    +0.005 A  
DOCKED: ATOM     19  C27 UNL     1      11.552  -5.185   4.782 +0.00 +0.00    +0.000 A  
DOCKED: ATOM     20  C28 UNL     1      11.839  -6.247   5.639 +0.00 +0.00    +0.000 A  
DOCKED: ATOM     21  C29 UNL     1      12.426  -7.408   5.136 +0.00 +0.00    +0.000 A  
DOCKED: ATOM     22  C30 UNL     1      12.715  -7.510   3.775 +0.00 +0.00    +0.005 A  
DOCKED: ENDBRANCH  16  17
DOCKED: ENDBRANCH  14  16
DOCKED: ENDBRANCH  11  12
DOCKED: BRANCH  11  23
DOCKED: ATOM     23  C31 UNL     1      11.190  -8.951  -2.739 +0.00 +0.00    +0.012 C  
DOCKED: ATOM     24  C32 UNL     1      11.391  -7.896  -3.829 +0.00 +0.00    +0.009 C  
DOCKED: ATOM     25  C33 UNL     1      10.172  -9.998  -3.201 +0.00 +0.00    +0.009 C  
DOCKED: ENDBRANCH  11  23
DOCKED: ENDBRANCH   9  11
DOCKED: ENDBRANCH   5   7
DOCKED: ENDBRANCH   4   5
DOCKED: ENDBRANCH   1   4
DOCKED: BRANCH   1  26
DOCKED: ATOM     26  C9  UNL     1       7.633  -4.818   2.118 +0.00 +0.00    +0.106 C  
DOCKED: BRANCH  26  29
DOCKED: ATOM     27  C8  UNL     1       7.047  -6.686   3.661 +0.00 +0.00    +0.233 C  
DOCKED: ATOM     28  O3  UNL     1       5.836  -6.548   3.490 +0.00 -0.00    -0.274 OA 
DOCKED: ATOM     29  N2  UNL     1       7.991  -5.932   2.996 +0.00 -0.00    -0.308 N  
DOCKED: ATOM     30  H15 UNL     1       8.971  -6.142   3.128 +0.00 +0.00    +0.149 HD 
DOCKED: BRANCH  27  31
DOCKED: ATOM     31  C6  UNL     1       7.625  -7.725   4.642 +0.00 +0.00    +0.156 C  
DOCKED: ATOM     32  C7  UNL     1       8.648  -7.087   5.571 +0.00 +0.00    +0.038 C  
DOCKED: BRANCH  31  35
DOCKED: ATOM     33  C5  UNL     1       9.321  -8.641   3.066 +0.00 +0.00    +0.242 C  
DOCKED: ATOM     34  O2  UNL     1       9.870  -7.556   2.917 +0.00 -0.00    -0.273 OA 
DOCKED: ATOM     35  N1  UNL     1       8.216  -8.807   3.871 +0.00 -0.00    -0.302 N  
DOCKED: ATOM     36  H10 UNL     1       7.832  -9.746   3.984 +0.00 +0.00    +0.150 HD 
DOCKED: BRANCH  33  37
DOCKED: ATOM     37  C4  UNL     1       9.787  -9.964   2.414 +0.00 +0.00    +0.202 C  
DOCKED: BRANCH  37  39
DOCKED: ATOM     38  C1  UNL     1      12.156 -10.908   2.751 +0.00 +0.00    +0.010 C  
DOCKED: ATOM     39  C2  UNL     1      10.716 -10.851   3.268 +0.00 +0.00    +0.020 C  
DOCKED: ATOM     40  C3  UNL     1      10.693 -10.460   4.747 +0.00 +0.00    +0.010 C  
DOCKED: ENDBRANCH  37  39
DOCKED: BRANCH  37  41
DOCKED: ATOM     41  O1  UNL     1      10.406  -9.695   1.150 +0.00 -0.00    -0.382 OA 
DOCKED: ATOM     42  H9  UNL     1      10.380  -8.732   1.016 +0.00 +0.00    +0.210 HD 
DOCKED: ENDBRANCH  37  41
DOCKED: ENDBRANCH  33  37
DOCKED: ENDBRANCH  31  35
DOCKED: ENDBRANCH  27  31
DOCKED: ENDBRANCH  26  29
DOCKED: BRANCH  26  43
DOCKED: ATOM     43  C10 UNL     1       7.024  -3.619   2.890 +0.00 +0.00    +0.060 C  
DOCKED: BRANCH  43  44
DOCKED: ATOM     44  C11 UNL     1       7.546  -3.335   4.277 +0.00 -0.00    -0.046 A  
DOCKED: ATOM     45  C12 UNL     1       6.736  -3.562   5.397 +0.00 +0.00    +0.004 A  
DOCKED: ATOM     46  C13 UNL     1       7.218  -3.313   6.681 +0.00 +0.00    +0.000 A  
DOCKED: ATOM     47  C14 UNL     1       8.517  -2.850   6.861 +0.00 +0.00    +0.000 A  
DOCKED: ATOM     48  C15 UNL     1       9.343  -2.645   5.760 +0.00 +0.00    +0.000 A  
DOCKED: ATOM     49  C16 UNL     1       8.865  -2.896   4.475 +0.00 +0.00    +0.004 A  
DOCKED: ENDBRANCH  43  44
DOCKED: ENDBRANCH  26  43
DOCKED: ENDBRANCH   1  26
DOCKED: TORSDOF 18
DOCKED: TER
DOCKED: ENDMDL
________________________________________________________________________________


    FINAL DOCKED STATE:
    ________________________


Run:   9 / 20
Time taken for this run:   0.463s

DOCKED: MODEL        9
DOCKED: USER    Run = 9
DOCKED: USER
DOCKED: USER    Estimated Free Energy of Binding    =  +5.37 kcal/mol  [=(1)+(2)+(3)-(4)]
DOCKED: USER
DOCKED: USER    (1) Final Intermolecular Energy     =  +0.00 kcal/mol
DOCKED: USER        vdW + Hbond + desolv Energy     =  +0.00 kcal/mol
DOCKED: USER        Electrostatic Energy            =  +0.00 kcal/mol
DOCKED: USER        Moving Ligand-Fixed Receptor    =  +0.00 kcal/mol
DOCKED: USER        Moving Ligand-Moving Receptor   =  +0.00 kcal/mol
DOCKED: USER    (2) Final Total Internal Energy     = -12.30 kcal/mol
DOCKED: USER    (3) Torsional Free Energy           =  +5.37 kcal/mol
DOCKED: USER    (4) Unbound System's Energy         = -12.30 kcal/mol
DOCKED: USER
DOCKED: USER
DOCKED: REMARK  Name = ligands/ligand_9.pdb
DOCKED: REMARK  24 active torsions:
DOCKED: REMARK  status: ('A' for Active; 'I' for Inactive)
DOCKED: REMARK    1  A    between atoms: C1_1  and  C2_2
DOCKED: REMARK    2  A    between atoms: C2_2  and  C3_3
DOCKED: REMARK    3  A    between atoms: C2_2  and  C4_4
DOCKED: REMARK    4  A    between atoms: C4_4  and  O1_5
DOCKED: REMARK    5  A    between atoms: C4_4  and  C5_6
DOCKED: REMARK    6  A    between atoms: N1_8  and  C6_9
DOCKED: REMARK    7  A    between atoms: C6_9  and  C7_10
DOCKED: REMARK    8  A    between atoms: C6_9  and  C8_11
DOCKED: REMARK    9  A    between atoms: N2_13  and  C9_14
DOCKED: REMARK   10  A    between atoms: C9_14  and  C10_15
DOCKED: REMARK   11  A    between atoms: C9_14  and  C17_22
DOCKED: REMARK   12  A    between atoms: C10_15  and  C11_16
DOCKED: REMARK   13  A    between atoms: C17_22  and  O4_23
DOCKED: REMARK   14  A    between atoms: C17_22  and  C18_24
DOCKED: REMARK   15  A    between atoms: C18_24  and  C19_25
DOCKED: REMARK   16  A    between atoms: C19_25  and  C20_26
DOCKED: REMARK   17  A    between atoms: C19_25  and  C21_27
DOCKED: REMARK   18  A    between atoms: N3_29  and  C22_30
DOCKED: REMARK   19  A    between atoms: C22_30  and  C23_31
DOCKED: REMARK   20  A    between atoms: C22_30  and  C31_41
DOCKED: REMARK   21  A    between atoms: N4_33  and  C24_34
DOCKED: REMARK   22  A    between atoms: C24_34  and  C25_35
DOCKED: REMARK   23  A    between atoms: C31_41  and  C32_42
DOCKED: REMARK   24  A    between atoms: C31_41  and  C33_43
DOCKED: REMARK                            x       y       z     vdW  Elec       q    Type
DOCKED: REMARK                         _______ _______ _______ _____ _____    ______ ____
DOCKED: USER                              x       y       z     vdW  Elec       q    Type
DOCKED: USER                           _______ _______ _______ _____ _____    ______ ____
DOCKED: ROOT
DOCKED: ATOM      1  C17 UNL     1      11.403  -5.051   4.103 +0.00 +0.00    +0.136 C  
DOCKED: ENDROOT
DOCKED: BRANCH   1   2
DOCKED: ATOM      2  O4  UNL     1      11.504  -6.376   4.657 +0.00 -0.00    -0.390 OA 
DOCKED: ATOM      3  H25 UNL     1      10.789  -6.473   5.310 +0.00 +0.00    +0.210 HD 
DOCKED: ENDBRANCH   1   2
DOCKED: BRANCH   1   4
DOCKED: ATOM      4  C18 UNL     1      10.468  -5.153   2.887 +0.00 +0.00    +0.045 C  
DOCKED: BRANCH   4   5
DOCKED: ATOM      5  C19 UNL     1       9.000  -5.534   3.135 +0.00 +0.00    +0.074 C  
DOCKED: ATOM      6  C20 UNL     1       8.258  -5.848   1.834 +0.00 +0.00    +0.017 C  
DOCKED: BRANCH   5   7
DOCKED: ATOM      7  C21 UNL     1       8.953  -6.766   4.044 +0.00 +0.00    +0.217 C  
DOCKED: ATOM      8  O5  UNL     1       8.869  -6.693   5.267 +0.00 -0.00    -0.276 OA 
DOCKED: ATOM      9  N3  UNL     1       8.976  -7.971   3.387 +0.00 -0.00    -0.304 N  
DOCKED: ATOM     10  H32 UNL     1       9.098  -8.019   2.376 +0.00 +0.00    +0.149 HD 
DOCKED: BRANCH   9  11
DOCKED: ATOM     11  C22 UNL     1       8.879  -9.244   4.104 +0.00 +0.00    +0.161 C  
DOCKED: BRANCH  11  12
DOCKED: ATOM     12  C23 UNL     1      10.308  -9.687   4.476 +0.00 +0.00    +0.234 C  
DOCKED: ATOM     13  O6  UNL     1      10.825 -10.691   3.990 +0.00 -0.00    -0.274 OA 
DOCKED: ATOM     14  N4  UNL     1      10.951  -8.886   5.392 +0.00 -0.00    -0.310 N  
DOCKED: ATOM     15  H34 UNL     1      10.541  -8.002   5.656 +0.00 +0.00    +0.149 HD 
DOCKED: BRANCH  14  16
DOCKED: ATOM     16  C24 UNL     1      12.332  -9.111   5.762 +0.00 +0.00    +0.139 C  
DOCKED: BRANCH  16  17
DOCKED: ATOM     17  C25 UNL     1      12.700  -8.495   7.093 +0.00 -0.00    -0.030 A  
DOCKED: ATOM     18  C26 UNL     1      13.544  -9.138   8.013 +0.00 +0.00    +0.005 A  
DOCKED: ATOM     19  C27 UNL     1      13.834  -8.553   9.247 +0.00 +0.00    +0.000 A  
DOCKED: ATOM     20  C28 UNL     1      13.264  -7.327   9.591 +0.00 +0.00    +0.000 A  
DOCKED: ATOM     21  C29 UNL     1      12.403  -6.687   8.701 +0.00 +0.00    +0.000 A  
DOCKED: ATOM     22  C30 UNL     1      12.120  -7.268   7.463 +0.00 +0.00    +0.005 A  
DOCKED: ENDBRANCH  16  17
DOCKED: ENDBRANCH  14  16
DOCKED: ENDBRANCH  11  12
DOCKED: BRANCH  11  23
DOCKED: ATOM     23  C31 UNL     1       8.097 -10.289   3.273 +0.00 +0.00    +0.012 C  
DOCKED: ATOM     24  C32 UNL     1       7.219  -9.644   2.197 +0.00 +0.00    +0.009 C  
DOCKED: ATOM     25  C33 UNL     1       7.258 -11.234   4.140 +0.00 +0.00    +0.009 C  
DOCKED: ENDBRANCH  11  23
DOCKED: ENDBRANCH   9  11
DOCKED: ENDBRANCH   5   7
DOCKED: ENDBRANCH   4   5
DOCKED: ENDBRANCH   1   4
DOCKED: BRANCH   1  26
DOCKED: ATOM     26  C9  UNL     1      11.042  -4.077   5.261 +0.00 +0.00    +0.106 C  
DOCKED: BRANCH  26  29
DOCKED: ATOM     27  C8  UNL     1       9.705  -3.997   7.363 +0.00 +0.00    +0.233 C  
DOCKED: ATOM     28  O3  UNL     1       9.537  -2.780   7.299 +0.00 -0.00    -0.274 OA 
DOCKED: ATOM     29  N2  UNL     1      10.370  -4.716   6.393 +0.00 -0.00    -0.308 N  
DOCKED: ATOM     30  H15 UNL     1      10.413  -5.724   6.468 +0.00 +0.00    +0.149 HD 
DOCKED: BRANCH  27  31
DOCKED: ATOM     31  C6  UNL     1       9.179  -4.838   8.543 +0.00 +0.00    +0.156 C  
DOCKED: ATOM     32  C7  UNL     1      10.031  -4.623   9.787 +0.00 +0.00    +0.038 C  
DOCKED: BRANCH  31  35
DOCKED: ATOM     33  C5  UNL     1       8.884  -7.264   9.015 +0.00 +0.00    +0.242 C  
DOCKED: ATOM     34  O2  UNL     1       8.641  -7.075  10.201 +0.00 -0.00    -0.273 OA 
DOCKED: ATOM     35  N1  UNL     1       9.172  -6.236   8.145 +0.00 -0.00    -0.302 N  
DOCKED: ATOM     36  H10 UNL     1       9.325  -6.459   7.162 +0.00 +0.00    +0.150 HD 
DOCKED: BRANCH  33  37
DOCKED: ATOM     37  C4  UNL     1       8.877  -8.647   8.322 +0.00 +0.00    +0.202 C  
DOCKED: BRANCH  37  39
DOCKED: ATOM     38  C1  UNL     1      10.065  -9.930  10.209 +0.00 +0.00    +0.010 C  
DOCKED: ATOM     39  C2  UNL     1      10.020  -9.608   8.713 +0.00 +0.00    +0.020 C  
DOCKED: ATOM     40  C3  UNL     1      10.002 -10.896   7.888 +0.00 +0.00    +0.010 C  
DOCKED: ENDBRANCH  37  39
DOCKED: BRANCH  37  41
DOCKED: ATOM     41  O1  UNL     1       8.853  -8.481   6.899 +0.00 -0.00    -0.382 OA 
DOCKED: ATOM     42  H9  UNL     1       8.214  -7.775   6.702 +0.00 +0.00    +0.210 HD 
DOCKED: ENDBRANCH  37  41
DOCKED: ENDBRANCH  33  37
DOCKED: ENDBRANCH  31  35
DOCKED: ENDBRANCH  27  31
DOCKED: ENDBRANCH  26  29
DOCKED: BRANCH  26  43
DOCKED: ATOM     43  C10 UNL     1      12.145  -3.080   5.704 +0.00 +0.00    +0.060 C  
DOCKED: BRANCH  43  44
DOCKED: ATOM     44  C11 UNL     1      13.158  -3.554   6.717 +0.00 -0.00    -0.046 A  
DOCKED: ATOM     45  C12 UNL     1      13.093  -3.108   8.043 +0.00 +0.00    +0.004 A  
DOCKED: ATOM     46  C13 UNL     1      14.019  -3.552   8.986 +0.00 +0.00    +0.000 A  
DOCKED: ATOM     47  C14 UNL     1      15.009  -4.457   8.618 +0.00 +0.00    +0.000 A  
DOCKED: ATOM     48  C15 UNL     1      15.071  -4.930   7.310 +0.00 +0.00    +0.000 A  
DOCKED: ATOM     49  C16 UNL     1      14.144  -4.489   6.366 +0.00 +0.00    +0.004 A  
DOCKED: ENDBRANCH  43  44
DOCKED: ENDBRANCH  26  43
DOCKED: ENDBRANCH   1  26
DOCKED: TORSDOF 18
DOCKED: TER
DOCKED: ENDMDL
________________________________________________________________________________


    FINAL DOCKED STATE:
    ________________________


Run:   10 / 20
Time taken for this run:   0.463s

DOCKED: MODEL        10
DOCKED: USER    Run = 10
DOCKED: USER
DOCKED: USER    Estimated Free Energy of Binding    =  +5.37 kcal/mol  [=(1)+(2)+(3)-(4)]
DOCKED: USER
DOCKED: USER    (1) Final Intermolecular Energy     =  +0.00 kcal/mol
DOCKED: USER        vdW + Hbond + desolv Energy     =  +0.00 kcal/mol
DOCKED: USER        Electrostatic Energy            =  +0.00 kcal/mol
DOCKED: USER        Moving Ligand-Fixed Receptor    =  +0.00 kcal/mol
DOCKED: USER        Moving Ligand-Moving Receptor   =  +0.00 kcal/mol
DOCKED: USER    (2) Final Total Internal Energy     = -12.25 kcal/mol
DOCKED: USER    (3) Torsional Free Energy           =  +5.37 kcal/mol
DOCKED: USER    (4) Unbound System's Energy         = -12.25 kcal/mol
DOCKED: USER
DOCKED: USER
DOCKED: REMARK  Name = ligands/ligand_9.pdb
DOCKED: REMARK  24 active torsions:
DOCKED: REMARK  status: ('A' for Active; 'I' for Inactive)
DOCKED: REMARK    1  A    between atoms: C1_1  and  C2_2
DOCKED: REMARK    2  A    between atoms: C2_2  and  C3_3
DOCKED: REMARK    3  A    between atoms: C2_2  and  C4_4
DOCKED: REMARK    4  A    between atoms: C4_4  and  O1_5
DOCKED: REMARK    5  A    between atoms: C4_4  and  C5_6
DOCKED: REMARK    6  A    between atoms: N1_8  and  C6_9
DOCKED: REMARK    7  A    between atoms: C6_9  and  C7_10
DOCKED: REMARK    8  A    between atoms: C6_9  and  C8_11
DOCKED: REMARK    9  A    between atoms: N2_13  and  C9_14
DOCKED: REMARK   10  A    between atoms: C9_14  and  C10_15
DOCKED: REMARK   11  A    between atoms: C9_14  and  C17_22
DOCKED: REMARK   12  A    between atoms: C10_15  and  C11_16
DOCKED: REMARK   13  A    between atoms: C17_22  and  O4_23
DOCKED: REMARK   14  A    between atoms: C17_22  and  C18_24
DOCKED: REMARK   15  A    between atoms: C18_24  and  C19_25
DOCKED: REMARK   16  A    between atoms: C19_25  and  C20_26
DOCKED: REMARK   17  A    between atoms: C19_25  and  C21_27
DOCKED: REMARK   18  A    between atoms: N3_29  and  C22_30
DOCKED: REMARK   19  A    between atoms: C22_30  and  C23_31
DOCKED: REMARK   20  A    between atoms: C22_30  and  C31_41
DOCKED: REMARK   21  A    between atoms: N4_33  and  C24_34
DOCKED: REMARK   22  A    between atoms: C24_34  and  C25_35
DOCKED: REMARK   23  A    between atoms: C31_41  and  C32_42
DOCKED: REMARK   24  A    between atoms: C31_41  and  C33_43
DOCKED: REMARK                            x       y       z     vdW  Elec       q    Type
DOCKED: REMARK                         _______ _______ _______ _____ _____    ______ ____
DOCKED: USER                              x       y       z     vdW  Elec       q    Type
DOCKED: USER                           _______ _______ _______ _____ _____    ______ ____
DOCKED: ROOT
DOCKED: ATOM      1  C17 UNL     1      13.186  -5.030   0.546 +0.00 +0.00    +0.136 C  
DOCKED: ENDROOT
DOCKED: BRANCH   1   2
DOCKED: ATOM      2  O4  UNL     1      12.238  -5.434   1.550 +0.00 -0.00    -0.390 OA 
DOCKED: ATOM      3  H25 UNL     1      11.969  -4.633   2.035 +0.00 +0.00    +0.210 HD 
DOCKED: ENDBRANCH   1   2
DOCKED: BRANCH   1   4
DOCKED: ATOM      4  C18 UNL     1      12.369  -4.565  -0.671 +0.00 +0.00    +0.045 C  
DOCKED: BRANCH   4   5
DOCKED: ATOM      5  C19 UNL     1      11.554  -3.270  -0.539 +0.00 +0.00    +0.074 C  
DOCKED: ATOM      6  C20 UNL     1      10.714  -2.989  -1.788 +0.00 +0.00    +0.017 C  
DOCKED: BRANCH   5   7
DOCKED: ATOM      7  C21 UNL     1      10.621  -3.389   0.671 +0.00 +0.00    +0.217 C  
DOCKED: ATOM      8  O5  UNL     1      10.902  -2.941   1.778 +0.00 -0.00    -0.276 OA 
DOCKED: ATOM      9  N3  UNL     1       9.422  -4.006   0.418 +0.00 -0.00    -0.304 N  
DOCKED: ATOM     10  H32 UNL     1       9.222  -4.420  -0.492 +0.00 +0.00    +0.149 HD 
DOCKED: BRANCH   9  11
DOCKED: ATOM     11  C22 UNL     1       8.393  -4.150   1.450 +0.00 +0.00    +0.161 C  
DOCKED: BRANCH  11  12
DOCKED: ATOM     12  C23 UNL     1       8.636  -5.488   2.176 +0.00 +0.00    +0.234 C  
DOCKED: ATOM     13  O6  UNL     1       7.772  -6.361   2.236 +0.00 -0.00    -0.274 OA 
DOCKED: ATOM     14  N4  UNL     1       9.877  -5.626   2.755 +0.00 -0.00    -0.310 N  
DOCKED: ATOM     15  H34 UNL     1      10.596  -4.943   2.562 +0.00 +0.00    +0.149 HD 
DOCKED: BRANCH  14  16
DOCKED: ATOM     16  C24 UNL     1      10.291  -6.864   3.381 +0.00 +0.00    +0.139 C  
DOCKED: BRANCH  16  17
DOCKED: ATOM     17  C25 UNL     1      11.372  -6.672   4.420 +0.00 -0.00    -0.030 A  
DOCKED: ATOM     18  C26 UNL     1      12.213  -5.547   4.434 +0.00 +0.00    +0.005 A  
DOCKED: ATOM     19  C27 UNL     1      13.222  -5.421   5.390 +0.00 +0.00    +0.000 A  
DOCKED: ATOM     20  C28 UNL     1      13.423  -6.431   6.332 +0.00 +0.00    +0.000 A  
DOCKED: ATOM     21  C29 UNL     1      12.615  -7.567   6.316 +0.00 +0.00    +0.000 A  
DOCKED: ATOM     22  C30 UNL     1      11.600  -7.688   5.366 +0.00 +0.00    +0.005 A  
DOCKED: ENDBRANCH  16  17
DOCKED: ENDBRANCH  14  16
DOCKED: ENDBRANCH  11  12
DOCKED: BRANCH  11  23
DOCKED: ATOM     23  C31 UNL     1       6.977  -4.015   0.843 +0.00 +0.00    +0.012 C  
DOCKED: ATOM     24  C32 UNL     1       6.937  -3.049  -0.344 +0.00 +0.00    +0.009 C  
DOCKED: ATOM     25  C33 UNL     1       5.920  -3.618   1.879 +0.00 +0.00    +0.009 C  
DOCKED: ENDBRANCH  11  23
DOCKED: ENDBRANCH   9  11
DOCKED: ENDBRANCH   5   7
DOCKED: ENDBRANCH   4   5
DOCKED: ENDBRANCH   1   4
DOCKED: BRANCH   1  26
DOCKED: ATOM     26  C9  UNL     1      14.191  -4.044   1.209 +0.00 +0.00    +0.106 C  
DOCKED: BRANCH  26  29
DOCKED: ATOM     27  C8  UNL     1      14.326  -2.293   2.978 +0.00 +0.00    +0.233 C  
DOCKED: ATOM     28  O3  UNL     1      15.381  -1.830   2.544 +0.00 -0.00    -0.274 OA 
DOCKED: ATOM     29  N2  UNL     1      13.651  -3.326   2.363 +0.00 -0.00    -0.308 N  
DOCKED: ATOM     30  H15 UNL     1      12.753  -3.615   2.729 +0.00 +0.00    +0.149 HD 
DOCKED: BRANCH  27  31
DOCKED: ATOM     31  C6  UNL     1      13.657  -1.754   4.257 +0.00 +0.00    +0.156 C  
DOCKED: ATOM     32  C7  UNL     1      14.467  -2.124   5.492 +0.00 +0.00    +0.038 C  
DOCKED: BRANCH  31  35
DOCKED: ATOM     33  C5  UNL     1      11.455  -2.037   5.383 +0.00 +0.00    +0.242 C  
DOCKED: ATOM     34  O2  UNL     1      11.785  -1.362   6.351 +0.00 -0.00    -0.273 OA 
DOCKED: ATOM     35  N1  UNL     1      12.308  -2.290   4.332 +0.00 -0.00    -0.302 N  
DOCKED: ATOM     36  H10 UNL     1      11.956  -2.826   3.538 +0.00 +0.00    +0.150 HD 
DOCKED: BRANCH  33  37
DOCKED: ATOM     37  C4  UNL     1      10.057  -2.669   5.182 +0.00 +0.00    +0.202 C  
DOCKED: BRANCH  37  39
DOCKED: ATOM     38  C1  UNL     1       8.722  -4.765   5.848 +0.00 +0.00    +0.010 C  
DOCKED: ATOM     39  C2  UNL     1       9.549  -3.569   6.328 +0.00 +0.00    +0.020 C  
DOCKED: ATOM     40  C3  UNL     1      10.680  -4.034   7.246 +0.00 +0.00    +0.010 C  
DOCKED: ENDBRANCH  37  39
DOCKED: BRANCH  37  41
DOCKED: ATOM     41  O1  UNL     1      10.021  -3.395   3.947 +0.00 -0.00    -0.382 OA 
DOCKED: ATOM     42  H9  UNL     1      10.165  -2.752   3.232 +0.00 +0.00    +0.210 HD 
DOCKED: ENDBRANCH  37  41
DOCKED: ENDBRANCH  33  37
DOCKED: ENDBRANCH  31  35
DOCKED: ENDBRANCH  27  31
DOCKED: ENDBRANCH  26  29
DOCKED: BRANCH  26  43
DOCKED: ATOM     43  C10 UNL     1      15.629  -4.571   1.451 +0.00 +0.00    +0.060 C  
DOCKED: BRANCH  43  44
DOCKED: ATOM     44  C11 UNL     1      15.849  -5.519   2.605 +0.00 -0.00    -0.046 A  
DOCKED: ATOM     45  C12 UNL     1      16.488  -5.077   3.769 +0.00 +0.00    +0.004 A  
DOCKED: ATOM     46  C13 UNL     1      16.682  -5.945   4.843 +0.00 +0.00    +0.000 A  
DOCKED: ATOM     47  C14 UNL     1      16.227  -7.258   4.770 +0.00 +0.00    +0.000 A  
DOCKED: ATOM     48  C15 UNL     1      15.566  -7.704   3.629 +0.00 +0.00    +0.000 A  
DOCKED: ATOM     49  C16 UNL     1      15.368  -6.837   2.555 +0.00 +0.00    +0.004 A  
DOCKED: ENDBRANCH  43  44
DOCKED: ENDBRANCH  26  43
DOCKED: ENDBRANCH   1  26
DOCKED: TORSDOF 18
DOCKED: TER
DOCKED: ENDMDL
________________________________________________________________________________


    FINAL DOCKED STATE:
    ________________________


Run:   11 / 20
Time taken for this run:   0.463s

DOCKED: MODEL        11
DOCKED: USER    Run = 11
DOCKED: USER
DOCKED: USER    Estimated Free Energy of Binding    =  +5.37 kcal/mol  [=(1)+(2)+(3)-(4)]
DOCKED: USER
DOCKED: USER    (1) Final Intermolecular Energy     =  +0.00 kcal/mol
DOCKED: USER        vdW + Hbond + desolv Energy     =  +0.00 kcal/mol
DOCKED: USER        Electrostatic Energy            =  +0.00 kcal/mol
DOCKED: USER        Moving Ligand-Fixed Receptor    =  +0.00 kcal/mol
DOCKED: USER        Moving Ligand-Moving Receptor   =  +0.00 kcal/mol
DOCKED: USER    (2) Final Total Internal Energy     = -12.11 kcal/mol
DOCKED: USER    (3) Torsional Free Energy           =  +5.37 kcal/mol
DOCKED: USER    (4) Unbound System's Energy         = -12.11 kcal/mol
DOCKED: USER
DOCKED: USER
DOCKED: REMARK  Name = ligands/ligand_9.pdb
DOCKED: REMARK  24 active torsions:
DOCKED: REMARK  status: ('A' for Active; 'I' for Inactive)
DOCKED: REMARK    1  A    between atoms: C1_1  and  C2_2
DOCKED: REMARK    2  A    between atoms: C2_2  and  C3_3
DOCKED: REMARK    3  A    between atoms: C2_2  and  C4_4
DOCKED: REMARK    4  A    between atoms: C4_4  and  O1_5
DOCKED: REMARK    5  A    between atoms: C4_4  and  C5_6
DOCKED: REMARK    6  A    between atoms: N1_8  and  C6_9
DOCKED: REMARK    7  A    between atoms: C6_9  and  C7_10
DOCKED: REMARK    8  A    between atoms: C6_9  and  C8_11
DOCKED: REMARK    9  A    between atoms: N2_13  and  C9_14
DOCKED: REMARK   10  A    between atoms: C9_14  and  C10_15
DOCKED: REMARK   11  A    between atoms: C9_14  and  C17_22
DOCKED: REMARK   12  A    between atoms: C10_15  and  C11_16
DOCKED: REMARK   13  A    between atoms: C17_22  and  O4_23
DOCKED: REMARK   14  A    between atoms: C17_22  and  C18_24
DOCKED: REMARK   15  A    between atoms: C18_24  and  C19_25
DOCKED: REMARK   16  A    between atoms: C19_25  and  C20_26
DOCKED: REMARK   17  A    between atoms: C19_25  and  C21_27
DOCKED: REMARK   18  A    between atoms: N3_29  and  C22_30
DOCKED: REMARK   19  A    between atoms: C22_30  and  C23_31
DOCKED: REMARK   20  A    between atoms: C22_30  and  C31_41
DOCKED: REMARK   21  A    between atoms: N4_33  and  C24_34
DOCKED: REMARK   22  A    between atoms: C24_34  and  C25_35
DOCKED: REMARK   23  A    between atoms: C31_41  and  C32_42
DOCKED: REMARK   24  A    between atoms: C31_41  and  C33_43
DOCKED: REMARK                            x       y       z     vdW  Elec       q    Type
DOCKED: REMARK                         _______ _______ _______ _____ _____    ______ ____
DOCKED: USER                              x       y       z     vdW  Elec       q    Type
DOCKED: USER                           _______ _______ _______ _____ _____    ______ ____
DOCKED: ROOT
DOCKED: ATOM      1  C17 UNL     1       8.068  -5.749   5.233 +0.00 +0.00    +0.136 C  
DOCKED: ENDROOT
DOCKED: BRANCH   1   2
DOCKED: ATOM      2  O4  UNL     1       6.921  -6.093   6.031 +0.00 -0.00    -0.390 OA 
DOCKED: ATOM      3  H25 UNL     1       6.360  -5.300   6.091 +0.00 +0.00    +0.210 HD 
DOCKED: ENDBRANCH   1   2
DOCKED: BRANCH   1   4
DOCKED: ATOM      4  C18 UNL     1       7.569  -5.605   3.785 +0.00 +0.00    +0.045 C  
DOCKED: BRANCH   4   5
DOCKED: ATOM      5  C19 UNL     1       6.263  -6.315   3.399 +0.00 +0.00    +0.074 C  
DOCKED: ATOM      6  C20 UNL     1       6.239  -7.773   3.864 +0.00 +0.00    +0.017 C  
DOCKED: BRANCH   5   7
DOCKED: ATOM      7  C21 UNL     1       5.085  -5.570   4.037 +0.00 +0.00    +0.217 C  
DOCKED: ATOM      8  O5  UNL     1       5.229  -4.604   4.781 +0.00 -0.00    -0.276 OA 
DOCKED: ATOM      9  N3  UNL     1       3.845  -6.042   3.687 +0.00 -0.00    -0.304 N  
DOCKED: ATOM     10  H32 UNL     1       3.739  -6.876   3.111 +0.00 +0.00    +0.149 HD 
DOCKED: BRANCH   9  11
DOCKED: ATOM     11  C22 UNL     1       2.614  -5.406   4.162 +0.00 +0.00    +0.161 C  
DOCKED: BRANCH  11  12
DOCKED: ATOM     12  C23 UNL     1       2.368  -5.878   5.609 +0.00 +0.00    +0.234 C  
DOCKED: ATOM     13  O6  UNL     1       1.622  -6.820   5.868 +0.00 -0.00    -0.274 OA 
DOCKED: ATOM     14  N4  UNL     1       3.031  -5.164   6.581 +0.00 -0.00    -0.310 N  
DOCKED: ATOM     15  H34 UNL     1       3.736  -4.491   6.312 +0.00 +0.00    +0.149 HD 
DOCKED: BRANCH  14  16
DOCKED: ATOM     16  C24 UNL     1       2.985  -5.549   7.975 +0.00 +0.00    +0.139 C  
DOCKED: BRANCH  16  17
DOCKED: ATOM     17  C25 UNL     1       4.287  -6.129   8.477 +0.00 -0.00    -0.030 A  
DOCKED: ATOM     18  C26 UNL     1       5.040  -5.520   9.495 +0.00 +0.00    +0.005 A  
DOCKED: ATOM     19  C27 UNL     1       6.256  -6.067   9.909 +0.00 +0.00    +0.000 A  
DOCKED: ATOM     20  C28 UNL     1       6.750  -7.218   9.294 +0.00 +0.00    +0.000 A  
DOCKED: ATOM     21  C29 UNL     1       6.029  -7.820   8.264 +0.00 +0.00    +0.000 A  
DOCKED: ATOM     22  C30 UNL     1       4.809  -7.279   7.857 +0.00 +0.00    +0.005 A  
DOCKED: ENDBRANCH  16  17
DOCKED: ENDBRANCH  14  16
DOCKED: ENDBRANCH  11  12
DOCKED: BRANCH  11  23
DOCKED: ATOM     23  C31 UNL     1       1.435  -5.694   3.202 +0.00 +0.00    +0.012 C  
DOCKED: ATOM     24  C32 UNL     1       1.842  -5.594   1.729 +0.00 +0.00    +0.009 C  
DOCKED: ATOM     25  C33 UNL     1       0.216  -4.807   3.473 +0.00 +0.00    +0.009 C  
DOCKED: ENDBRANCH  11  23
DOCKED: ENDBRANCH   9  11
DOCKED: ENDBRANCH   5   7
DOCKED: ENDBRANCH   4   5
DOCKED: ENDBRANCH   1   4
DOCKED: BRANCH   1  26
DOCKED: ATOM     26  C9  UNL     1       8.780  -4.547   5.915 +0.00 +0.00    +0.106 C  
DOCKED: BRANCH  26  29
DOCKED: ATOM     27  C8  UNL     1       8.292  -2.511   7.269 +0.00 +0.00    +0.233 C  
DOCKED: ATOM     28  O3  UNL     1       9.360  -1.972   6.981 +0.00 -0.00    -0.274 OA 
DOCKED: ATOM     29  N2  UNL     1       7.902  -3.729   6.754 +0.00 -0.00    -0.308 N  
DOCKED: ATOM     30  H15 UNL     1       6.982  -4.086   6.973 +0.00 +0.00    +0.149 HD 
DOCKED: BRANCH  27  31
DOCKED: ATOM     31  C6  UNL     1       7.280  -1.866   8.236 +0.00 +0.00    +0.156 C  
DOCKED: ATOM     32  C7  UNL     1       6.963  -2.801   9.395 +0.00 +0.00    +0.038 C  
DOCKED: BRANCH  31  35
DOCKED: ATOM     33  C5  UNL     1       5.206  -2.474   7.002 +0.00 +0.00    +0.242 C  
DOCKED: ATOM     34  O2  UNL     1       5.394  -3.677   7.137 +0.00 -0.00    -0.273 OA 
DOCKED: ATOM     35  N1  UNL     1       6.079  -1.528   7.490 +0.00 -0.00    -0.302 N  
DOCKED: ATOM     36  H10 UNL     1       5.841  -0.542   7.379 +0.00 +0.00    +0.150 HD 
DOCKED: BRANCH  33  37
DOCKED: ATOM     37  C4  UNL     1       3.975  -1.845   6.307 +0.00 +0.00    +0.202 C  
DOCKED: BRANCH  37  39
DOCKED: ATOM     38  C1  UNL     1       1.445  -2.117   6.687 +0.00 +0.00    +0.010 C  
DOCKED: ATOM     39  C2  UNL     1       2.763  -1.544   7.213 +0.00 +0.00    +0.020 C  
DOCKED: ATOM     40  C3  UNL     1       2.998  -1.982   8.660 +0.00 +0.00    +0.010 C  
DOCKED: ENDBRANCH  37  39
DOCKED: BRANCH  37  41
DOCKED: ATOM     41  O1  UNL     1       3.561  -2.666   5.207 +0.00 -0.00    -0.382 OA 
DOCKED: ATOM     42  H9  UNL     1       4.136  -3.451   5.202 +0.00 +0.00    +0.210 HD 
DOCKED: ENDBRANCH  37  41
DOCKED: ENDBRANCH  33  37
DOCKED: ENDBRANCH  31  35
DOCKED: ENDBRANCH  27  31
DOCKED: ENDBRANCH  26  29
DOCKED: BRANCH  26  43
DOCKED: ATOM     43  C10 UNL     1      10.150  -4.834   6.583 +0.00 +0.00    +0.060 C  
DOCKED: BRANCH  43  44
DOCKED: ATOM     44  C11 UNL     1      10.150  -5.538   7.918 +0.00 -0.00    -0.046 A  
DOCKED: ATOM     45  C12 UNL     1      10.078  -4.799   9.106 +0.00 +0.00    +0.004 A  
DOCKED: ATOM     46  C13 UNL     1      10.064  -5.445  10.342 +0.00 +0.00    +0.000 A  
DOCKED: ATOM     47  C14 UNL     1      10.108  -6.834  10.403 +0.00 +0.00    +0.000 A  
DOCKED: ATOM     48  C15 UNL     1      10.153  -7.583   9.230 +0.00 +0.00    +0.000 A  
DOCKED: ATOM     49  C16 UNL     1      10.164  -6.939   7.993 +0.00 +0.00    +0.004 A  
DOCKED: ENDBRANCH  43  44
DOCKED: ENDBRANCH  26  43
DOCKED: ENDBRANCH   1  26
DOCKED: TORSDOF 18
DOCKED: TER
DOCKED: ENDMDL
________________________________________________________________________________


    FINAL DOCKED STATE:
    ________________________


Run:   12 / 20
Time taken for this run:   0.463s

DOCKED: MODEL        12
DOCKED: USER    Run = 12
DOCKED: USER
DOCKED: USER    Estimated Free Energy of Binding    =  +5.37 kcal/mol  [=(1)+(2)+(3)-(4)]
DOCKED: USER
DOCKED: USER    (1) Final Intermolecular Energy     =  +0.00 kcal/mol
DOCKED: USER        vdW + Hbond + desolv Energy     =  +0.00 kcal/mol
DOCKED: USER        Electrostatic Energy            =  +0.00 kcal/mol
DOCKED: USER        Moving Ligand-Fixed Receptor    =  +0.00 kcal/mol
DOCKED: USER        Moving Ligand-Moving Receptor   =  +0.00 kcal/mol
DOCKED: USER    (2) Final Total Internal Energy     = -12.32 kcal/mol
DOCKED: USER    (3) Torsional Free Energy           =  +5.37 kcal/mol
DOCKED: USER    (4) Unbound System's Energy         = -12.32 kcal/mol
DOCKED: USER
DOCKED: USER
DOCKED: REMARK  Name = ligands/ligand_9.pdb
DOCKED: REMARK  24 active torsions:
DOCKED: REMARK  status: ('A' for Active; 'I' for Inactive)
DOCKED: REMARK    1  A    between atoms: C1_1  and  C2_2
DOCKED: REMARK    2  A    between atoms: C2_2  and  C3_3
DOCKED: REMARK    3  A    between atoms: C2_2  and  C4_4
DOCKED: REMARK    4  A    between atoms: C4_4  and  O1_5
DOCKED: REMARK    5  A    between atoms: C4_4  and  C5_6
DOCKED: REMARK    6  A    between atoms: N1_8  and  C6_9
DOCKED: REMARK    7  A    between atoms: C6_9  and  C7_10
DOCKED: REMARK    8  A    between atoms: C6_9  and  C8_11
DOCKED: REMARK    9  A    between atoms: N2_13  and  C9_14
DOCKED: REMARK   10  A    between atoms: C9_14  and  C10_15
DOCKED: REMARK   11  A    between atoms: C9_14  and  C17_22
DOCKED: REMARK   12  A    between atoms: C10_15  and  C11_16
DOCKED: REMARK   13  A    between atoms: C17_22  and  O4_23
DOCKED: REMARK   14  A    between atoms: C17_22  and  C18_24
DOCKED: REMARK   15  A    between atoms: C18_24  and  C19_25
DOCKED: REMARK   16  A    between atoms: C19_25  and  C20_26
DOCKED: REMARK   17  A    between atoms: C19_25  and  C21_27
DOCKED: REMARK   18  A    between atoms: N3_29  and  C22_30
DOCKED: REMARK   19  A    between atoms: C22_30  and  C23_31
DOCKED: REMARK   20  A    between atoms: C22_30  and  C31_41
DOCKED: REMARK   21  A    between atoms: N4_33  and  C24_34
DOCKED: REMARK   22  A    between atoms: C24_34  and  C25_35
DOCKED: REMARK   23  A    between atoms: C31_41  and  C32_42
DOCKED: REMARK   24  A    between atoms: C31_41  and  C33_43
DOCKED: REMARK                            x       y       z     vdW  Elec       q    Type
DOCKED: REMARK                         _______ _______ _______ _____ _____    ______ ____
DOCKED: USER                              x       y       z     vdW  Elec       q    Type
DOCKED: USER                           _______ _______ _______ _____ _____    ______ ____
DOCKED: ROOT
DOCKED: ATOM      1  C17 UNL     1       6.243   0.518  -1.010 +0.00 +0.00    +0.136 C  
DOCKED: ENDROOT
DOCKED: BRANCH   1   2
DOCKED: ATOM      2  O4  UNL     1       6.340   1.954  -1.023 +0.00 -0.00    -0.390 OA 
DOCKED: ATOM      3  H25 UNL     1       6.926   2.212  -0.290 +0.00 +0.00    +0.210 HD 
DOCKED: ENDBRANCH   1   2
DOCKED: BRANCH   1   4
DOCKED: ATOM      4  C18 UNL     1       7.443  -0.012  -1.812 +0.00 +0.00    +0.045 C  
DOCKED: BRANCH   4   5
DOCKED: ATOM      5  C19 UNL     1       8.846   0.165  -1.211 +0.00 +0.00    +0.074 C  
DOCKED: ATOM      6  C20 UNL     1       9.948  -0.249  -2.190 +0.00 +0.00    +0.017 C  
DOCKED: BRANCH   5   7
DOCKED: ATOM      7  C21 UNL     1       9.043   1.637  -0.835 +0.00 +0.00    +0.217 C  
DOCKED: ATOM      8  O5  UNL     1       8.829   2.074   0.292 +0.00 -0.00    -0.276 OA 
DOCKED: ATOM      9  N3  UNL     1       9.516   2.435  -1.847 +0.00 -0.00    -0.304 N  
DOCKED: ATOM     10  H32 UNL     1       9.641   2.073  -2.791 +0.00 +0.00    +0.149 HD 
DOCKED: BRANCH   9  11
DOCKED: ATOM     11  C22 UNL     1       9.815   3.853  -1.638 +0.00 +0.00    +0.161 C  
DOCKED: BRANCH  11  12
DOCKED: ATOM     12  C23 UNL     1       8.532   4.654  -1.934 +0.00 +0.00    +0.234 C  
DOCKED: ATOM     13  O6  UNL     1       8.466   5.457  -2.864 +0.00 -0.00    -0.274 OA 
DOCKED: ATOM     14  N4  UNL     1       7.479   4.414  -1.081 +0.00 -0.00    -0.310 N  
DOCKED: ATOM     15  H34 UNL     1       7.535   3.651  -0.422 +0.00 +0.00    +0.149 HD 
DOCKED: BRANCH  14  16
DOCKED: ATOM     16  C24 UNL     1       6.177   5.011  -1.292 +0.00 +0.00    +0.139 C  
DOCKED: BRANCH  16  17
DOCKED: ATOM     17  C25 UNL     1       5.313   5.010  -0.052 +0.00 -0.00    -0.030 A  
DOCKED: ATOM     18  C26 UNL     1       4.430   6.059   0.252 +0.00 +0.00    +0.005 A  
DOCKED: ATOM     19  C27 UNL     1       3.673   6.039   1.425 +0.00 +0.00    +0.000 A  
DOCKED: ATOM     20  C28 UNL     1       3.806   4.982   2.325 +0.00 +0.00    +0.000 A  
DOCKED: ATOM     21  C29 UNL     1       4.697   3.945   2.053 +0.00 +0.00    +0.000 A  
DOCKED: ATOM     22  C30 UNL     1       5.447   3.960   0.876 +0.00 +0.00    +0.005 A  
DOCKED: ENDBRANCH  16  17
DOCKED: ENDBRANCH  14  16
DOCKED: ENDBRANCH  11  12
DOCKED: BRANCH  11  23
DOCKED: ATOM     23  C31 UNL     1      11.035   4.292  -2.481 +0.00 +0.00    +0.012 C  
DOCKED: ATOM     24  C32 UNL     1      12.104   3.201  -2.577 +0.00 +0.00    +0.009 C  
DOCKED: ATOM     25  C33 UNL     1      11.662   5.601  -1.987 +0.00 +0.00    +0.009 C  
DOCKED: ENDBRANCH  11  23
DOCKED: ENDBRANCH   9  11
DOCKED: ENDBRANCH   5   7
DOCKED: ENDBRANCH   4   5
DOCKED: ENDBRANCH   1   4
DOCKED: BRANCH   1  26
DOCKED: ATOM     26  C9  UNL     1       6.055   0.067   0.466 +0.00 +0.00    +0.106 C  
DOCKED: BRANCH  26  29
DOCKED: ATOM     27  C8  UNL     1       6.793   0.659   2.773 +0.00 +0.00    +0.233 C  
DOCKED: ATOM     28  O3  UNL     1       6.622  -0.482   3.201 +0.00 -0.00    -0.274 OA 
DOCKED: ATOM     29  N2  UNL     1       6.600   1.002   1.452 +0.00 -0.00    -0.308 N  
DOCKED: ATOM     30  H15 UNL     1       6.826   1.940   1.147 +0.00 +0.00    +0.149 HD 
DOCKED: BRANCH  27  31
DOCKED: ATOM     31  C6  UNL     1       7.247   1.818   3.681 +0.00 +0.00    +0.156 C  
DOCKED: ATOM     32  C7  UNL     1       6.118   2.264   4.599 +0.00 +0.00    +0.038 C  
DOCKED: BRANCH  31  35
DOCKED: ATOM     33  C5  UNL     1       8.122   4.123   3.341 +0.00 +0.00    +0.242 C  
DOCKED: ATOM     34  O2  UNL     1       8.111   4.379   4.539 +0.00 -0.00    -0.273 OA 
DOCKED: ATOM     35  N1  UNL     1       7.704   2.911   2.839 +0.00 -0.00    -0.302 N  
DOCKED: ATOM     36  H10 UNL     1       7.778   2.749   1.835 +0.00 +0.00    +0.150 HD 
DOCKED: BRANCH  33  37
DOCKED: ATOM     37  C4  UNL     1       8.622   5.085   2.237 +0.00 +0.00    +0.202 C  
DOCKED: BRANCH  37  39
DOCKED: ATOM     38  C1  UNL     1       7.200   7.068   3.053 +0.00 +0.00    +0.010 C  
DOCKED: ATOM     39  C2  UNL     1       7.666   6.235   1.856 +0.00 +0.00    +0.020 C  
DOCKED: ATOM     40  C3  UNL     1       8.251   7.139   0.770 +0.00 +0.00    +0.010 C  
DOCKED: ENDBRANCH  37  39
DOCKED: BRANCH  37  41
DOCKED: ATOM     41  O1  UNL     1       8.975   4.343   1.063 +0.00 -0.00    -0.382 OA 
DOCKED: ATOM     42  H9  UNL     1       9.040   3.408   1.323 +0.00 +0.00    +0.210 HD 
DOCKED: ENDBRANCH  37  41
DOCKED: ENDBRANCH  33  37
DOCKED: ENDBRANCH  31  35
DOCKED: ENDBRANCH  27  31
DOCKED: ENDBRANCH  26  29
DOCKED: BRANCH  26  43
DOCKED: ATOM     43  C10 UNL     1       4.654  -0.469   0.860 +0.00 +0.00    +0.060 C  
DOCKED: BRANCH  43  44
DOCKED: ATOM     44  C11 UNL     1       3.565   0.539   1.137 +0.00 -0.00    -0.046 A  
DOCKED: ATOM     45  C12 UNL     1       3.095   0.729   2.442 +0.00 +0.00    +0.004 A  
DOCKED: ATOM     46  C13 UNL     1       2.098   1.668   2.705 +0.00 +0.00    +0.000 A  
DOCKED: ATOM     47  C14 UNL     1       1.573   2.436   1.671 +0.00 +0.00    +0.000 A  
DOCKED: ATOM     48  C15 UNL     1       2.049   2.277   0.373 +0.00 +0.00    +0.000 A  
DOCKED: ATOM     49  C16 UNL     1       3.048   1.341   0.108 +0.00 +0.00    +0.004 A  
DOCKED: ENDBRANCH  43  44
DOCKED: ENDBRANCH  26  43
DOCKED: ENDBRANCH   1  26
DOCKED: TORSDOF 18
DOCKED: TER
DOCKED: ENDMDL
________________________________________________________________________________


    FINAL DOCKED STATE:
    ________________________


Run:   13 / 20
Time taken for this run:   0.463s

DOCKED: MODEL        13
DOCKED: USER    Run = 13
DOCKED: USER
DOCKED: USER    Estimated Free Energy of Binding    =  +5.37 kcal/mol  [=(1)+(2)+(3)-(4)]
DOCKED: USER
DOCKED: USER    (1) Final Intermolecular Energy     =  +0.00 kcal/mol
DOCKED: USER        vdW + Hbond + desolv Energy     =  +0.00 kcal/mol
DOCKED: USER        Electrostatic Energy            =  +0.00 kcal/mol
DOCKED: USER        Moving Ligand-Fixed Receptor    =  +0.00 kcal/mol
DOCKED: USER        Moving Ligand-Moving Receptor   =  +0.00 kcal/mol
DOCKED: USER    (2) Final Total Internal Energy     = -12.15 kcal/mol
DOCKED: USER    (3) Torsional Free Energy           =  +5.37 kcal/mol
DOCKED: USER    (4) Unbound System's Energy         = -12.15 kcal/mol
DOCKED: USER
DOCKED: USER
DOCKED: REMARK  Name = ligands/ligand_9.pdb
DOCKED: REMARK  24 active torsions:
DOCKED: REMARK  status: ('A' for Active; 'I' for Inactive)
DOCKED: REMARK    1  A    between atoms: C1_1  and  C2_2
DOCKED: REMARK    2  A    between atoms: C2_2  and  C3_3
DOCKED: REMARK    3  A    between atoms: C2_2  and  C4_4
DOCKED: REMARK    4  A    between atoms: C4_4  and  O1_5
DOCKED: REMARK    5  A    between atoms: C4_4  and  C5_6
DOCKED: REMARK    6  A    between atoms: N1_8  and  C6_9
DOCKED: REMARK    7  A    between atoms: C6_9  and  C7_10
DOCKED: REMARK    8  A    between atoms: C6_9  and  C8_11
DOCKED: REMARK    9  A    between atoms: N2_13  and  C9_14
DOCKED: REMARK   10  A    between atoms: C9_14  and  C10_15
DOCKED: REMARK   11  A    between atoms: C9_14  and  C17_22
DOCKED: REMARK   12  A    between atoms: C10_15  and  C11_16
DOCKED: REMARK   13  A    between atoms: C17_22  and  O4_23
DOCKED: REMARK   14  A    between atoms: C17_22  and  C18_24
DOCKED: REMARK   15  A    between atoms: C18_24  and  C19_25
DOCKED: REMARK   16  A    between atoms: C19_25  and  C20_26
DOCKED: REMARK   17  A    between atoms: C19_25  and  C21_27
DOCKED: REMARK   18  A    between atoms: N3_29  and  C22_30
DOCKED: REMARK   19  A    between atoms: C22_30  and  C23_31
DOCKED: REMARK   20  A    between atoms: C22_30  and  C31_41
DOCKED: REMARK   21  A    between atoms: N4_33  and  C24_34
DOCKED: REMARK   22  A    between atoms: C24_34  and  C25_35
DOCKED: REMARK   23  A    between atoms: C31_41  and  C32_42
DOCKED: REMARK   24  A    between atoms: C31_41  and  C33_43
DOCKED: REMARK                            x       y       z     vdW  Elec       q    Type
DOCKED: REMARK                         _______ _______ _______ _____ _____    ______ ____
DOCKED: USER                              x       y       z     vdW  Elec       q    Type
DOCKED: USER                           _______ _______ _______ _____ _____    ______ ____
DOCKED: ROOT
DOCKED: ATOM      1  C17 UNL     1       6.878  -2.375   3.469 +0.00 +0.00    +0.136 C  
DOCKED: ENDROOT
DOCKED: BRANCH   1   2
DOCKED: ATOM      2  O4  UNL     1       8.070  -2.976   4.007 +0.00 -0.00    -0.390 OA 
DOCKED: ATOM      3  H25 UNL     1       8.272  -3.758   3.464 +0.00 +0.00    +0.210 HD 
DOCKED: ENDBRANCH   1   2
DOCKED: BRANCH   1   4
DOCKED: ATOM      4  C18 UNL     1       7.306  -1.594   2.216 +0.00 +0.00    +0.045 C  
DOCKED: BRANCH   4   5
DOCKED: ATOM      5  C19 UNL     1       8.176  -2.318   1.177 +0.00 +0.00    +0.074 C  
DOCKED: ATOM      6  C20 UNL     1       8.310  -1.517  -0.121 +0.00 +0.00    +0.017 C  
DOCKED: BRANCH   5   7
DOCKED: ATOM      7  C21 UNL     1       9.571  -2.544   1.768 +0.00 +0.00    +0.217 C  
DOCKED: ATOM      8  O5  UNL     1       9.973  -3.645   2.132 +0.00 -0.00    -0.276 OA 
DOCKED: ATOM      9  N3  UNL     1      10.363  -1.424   1.828 +0.00 -0.00    -0.304 N  
DOCKED: ATOM     10  H32 UNL     1      10.001  -0.506   1.571 +0.00 +0.00    +0.149 HD 
DOCKED: BRANCH   9  11
DOCKED: ATOM     11  C22 UNL     1      11.744  -1.478   2.311 +0.00 +0.00    +0.161 C  
DOCKED: BRANCH  11  12
DOCKED: ATOM     12  C23 UNL     1      11.719  -1.259   3.837 +0.00 +0.00    +0.234 C  
DOCKED: ATOM     13  O6  UNL     1      12.425  -0.413   4.384 +0.00 -0.00    -0.274 OA 
DOCKED: ATOM     14  N4  UNL     1      10.864  -2.080   4.535 +0.00 -0.00    -0.310 N  
DOCKED: ATOM     15  H34 UNL     1      10.207  -2.660   4.031 +0.00 +0.00    +0.149 HD 
DOCKED: BRANCH  14  16
DOCKED: ATOM     16  C24 UNL     1      10.651  -1.925   5.959 +0.00 +0.00    +0.139 C  
DOCKED: BRANCH  16  17
DOCKED: ATOM     17  C25 UNL     1       9.245  -1.497   6.308 +0.00 -0.00    -0.030 A  
DOCKED: ATOM     18  C26 UNL     1       8.438  -2.219   7.204 +0.00 +0.00    +0.005 A  
DOCKED: ATOM     19  C27 UNL     1       7.131  -1.811   7.476 +0.00 +0.00    +0.000 A  
DOCKED: ATOM     20  C28 UNL     1       6.601  -0.689   6.838 +0.00 +0.00    +0.000 A  
DOCKED: ATOM     21  C29 UNL     1       7.378   0.023   5.926 +0.00 +0.00    +0.000 A  
DOCKED: ATOM     22  C30 UNL     1       8.688  -0.379   5.661 +0.00 +0.00    +0.005 A  
DOCKED: ENDBRANCH  16  17
DOCKED: ENDBRANCH  14  16
DOCKED: ENDBRANCH  11  12
DOCKED: BRANCH  11  23
DOCKED: ATOM     23  C31 UNL     1      12.638  -0.472   1.549 +0.00 +0.00    +0.012 C  
DOCKED: ATOM     24  C32 UNL     1      12.054   0.943   1.544 +0.00 +0.00    +0.009 C  
DOCKED: ATOM     25  C33 UNL     1      12.950  -0.918   0.117 +0.00 +0.00    +0.009 C  
DOCKED: ENDBRANCH  11  23
DOCKED: ENDBRANCH   9  11
DOCKED: ENDBRANCH   5   7
DOCKED: ENDBRANCH   4   5
DOCKED: ENDBRANCH   1   4
DOCKED: BRANCH   1  26
DOCKED: ATOM     26  C9  UNL     1       5.800  -3.488   3.339 +0.00 +0.00    +0.106 C  
DOCKED: BRANCH  26  29
DOCKED: ATOM     27  C8  UNL     1       5.699  -5.961   3.034 +0.00 +0.00    +0.233 C  
DOCKED: ATOM     28  O3  UNL     1       4.749  -5.901   2.254 +0.00 -0.00    -0.274 OA 
DOCKED: ATOM     29  N2  UNL     1       6.308  -4.843   3.563 +0.00 -0.00    -0.308 N  
DOCKED: ATOM     30  H15 UNL     1       7.129  -4.956   4.142 +0.00 +0.00    +0.149 HD 
DOCKED: BRANCH  27  31
DOCKED: ATOM     31  C6  UNL     1       6.303  -7.302   3.492 +0.00 +0.00    +0.156 C  
DOCKED: ATOM     32  C7  UNL     1       5.319  -8.075   4.359 +0.00 +0.00    +0.038 C  
DOCKED: BRANCH  31  35
DOCKED: ATOM     33  C5  UNL     1       8.552  -6.254   3.698 +0.00 +0.00    +0.242 C  
DOCKED: ATOM     34  O2  UNL     1       8.499  -5.757   2.579 +0.00 -0.00    -0.273 OA 
DOCKED: ATOM     35  N1  UNL     1       7.537  -7.031   4.211 +0.00 -0.00    -0.302 N  
DOCKED: ATOM     36  H10 UNL     1       7.627  -7.380   5.165 +0.00 +0.00    +0.150 HD 
DOCKED: BRANCH  33  37
DOCKED: ATOM     37  C4  UNL     1       9.721  -6.067   4.693 +0.00 +0.00    +0.202 C  
DOCKED: BRANCH  37  39
DOCKED: ATOM     38  C1  UNL     1      10.647  -6.360   7.076 +0.00 +0.00    +0.010 C  
DOCKED: ATOM     39  C2  UNL     1       9.412  -6.384   6.171 +0.00 +0.00    +0.020 C  
DOCKED: ATOM     40  C3  UNL     1       8.314  -5.483   6.739 +0.00 +0.00    +0.010 C  
DOCKED: ENDBRANCH  37  39
DOCKED: BRANCH  37  41
DOCKED: ATOM     41  O1  UNL     1      10.249  -4.739   4.585 +0.00 -0.00    -0.382 OA 
DOCKED: ATOM     42  H9  UNL     1       9.786  -4.305   3.848 +0.00 +0.00    +0.210 HD 
DOCKED: ENDBRANCH  37  41
DOCKED: ENDBRANCH  33  37
DOCKED: ENDBRANCH  31  35
DOCKED: ENDBRANCH  27  31
DOCKED: ENDBRANCH  26  29
DOCKED: BRANCH  26  43
DOCKED: ATOM     43  C10 UNL     1       4.444  -3.234   4.048 +0.00 +0.00    +0.060 C  
DOCKED: BRANCH  43  44
DOCKED: ATOM     44  C11 UNL     1       4.394  -3.381   5.550 +0.00 -0.00    -0.046 A  
DOCKED: ATOM     45  C12 UNL     1       3.697  -2.447   6.327 +0.00 +0.00    +0.004 A  
DOCKED: ATOM     46  C13 UNL     1       3.637  -2.585   7.714 +0.00 +0.00    +0.000 A  
DOCKED: ATOM     47  C14 UNL     1       4.259  -3.664   8.335 +0.00 +0.00    +0.000 A  
DOCKED: ATOM     48  C15 UNL     1       4.933  -4.614   7.572 +0.00 +0.00    +0.000 A  
DOCKED: ATOM     49  C16 UNL     1       4.992  -4.479   6.186 +0.00 +0.00    +0.004 A  
DOCKED: ENDBRANCH  43  44
DOCKED: ENDBRANCH  26  43
DOCKED: ENDBRANCH   1  26
DOCKED: TORSDOF 18
DOCKED: TER
DOCKED: ENDMDL
________________________________________________________________________________


    FINAL DOCKED STATE:
    ________________________


Run:   14 / 20
Time taken for this run:   0.463s

DOCKED: MODEL        14
DOCKED: USER    Run = 14
DOCKED: USER
DOCKED: USER    Estimated Free Energy of Binding    =  +5.37 kcal/mol  [=(1)+(2)+(3)-(4)]
DOCKED: USER
DOCKED: USER    (1) Final Intermolecular Energy     =  +0.00 kcal/mol
DOCKED: USER        vdW + Hbond + desolv Energy     =  +0.00 kcal/mol
DOCKED: USER        Electrostatic Energy            =  +0.00 kcal/mol
DOCKED: USER        Moving Ligand-Fixed Receptor    =  +0.00 kcal/mol
DOCKED: USER        Moving Ligand-Moving Receptor   =  +0.00 kcal/mol
DOCKED: USER    (2) Final Total Internal Energy     = -12.17 kcal/mol
DOCKED: USER    (3) Torsional Free Energy           =  +5.37 kcal/mol
DOCKED: USER    (4) Unbound System's Energy         = -12.17 kcal/mol
DOCKED: USER
DOCKED: USER
DOCKED: REMARK  Name = ligands/ligand_9.pdb
DOCKED: REMARK  24 active torsions:
DOCKED: REMARK  status: ('A' for Active; 'I' for Inactive)
DOCKED: REMARK    1  A    between atoms: C1_1  and  C2_2
DOCKED: REMARK    2  A    between atoms: C2_2  and  C3_3
DOCKED: REMARK    3  A    between atoms: C2_2  and  C4_4
DOCKED: REMARK    4  A    between atoms: C4_4  and  O1_5
DOCKED: REMARK    5  A    between atoms: C4_4  and  C5_6
DOCKED: REMARK    6  A    between atoms: N1_8  and  C6_9
DOCKED: REMARK    7  A    between atoms: C6_9  and  C7_10
DOCKED: REMARK    8  A    between atoms: C6_9  and  C8_11
DOCKED: REMARK    9  A    between atoms: N2_13  and  C9_14
DOCKED: REMARK   10  A    between atoms: C9_14  and  C10_15
DOCKED: REMARK   11  A    between atoms: C9_14  and  C17_22
DOCKED: REMARK   12  A    between atoms: C10_15  and  C11_16
DOCKED: REMARK   13  A    between atoms: C17_22  and  O4_23
DOCKED: REMARK   14  A    between atoms: C17_22  and  C18_24
DOCKED: REMARK   15  A    between atoms: C18_24  and  C19_25
DOCKED: REMARK   16  A    between atoms: C19_25  and  C20_26
DOCKED: REMARK   17  A    between atoms: C19_25  and  C21_27
DOCKED: REMARK   18  A    between atoms: N3_29  and  C22_30
DOCKED: REMARK   19  A    between atoms: C22_30  and  C23_31
DOCKED: REMARK   20  A    between atoms: C22_30  and  C31_41
DOCKED: REMARK   21  A    between atoms: N4_33  and  C24_34
DOCKED: REMARK   22  A    between atoms: C24_34  and  C25_35
DOCKED: REMARK   23  A    between atoms: C31_41  and  C32_42
DOCKED: REMARK   24  A    between atoms: C31_41  and  C33_43
DOCKED: REMARK                            x       y       z     vdW  Elec       q    Type
DOCKED: REMARK                         _______ _______ _______ _____ _____    ______ ____
DOCKED: USER                              x       y       z     vdW  Elec       q    Type
DOCKED: USER                           _______ _______ _______ _____ _____    ______ ____
DOCKED: ROOT
DOCKED: ATOM      1  C17 UNL     1      14.637  -4.618   2.538 +0.00 +0.00    +0.136 C  
DOCKED: ENDROOT
DOCKED: BRANCH   1   2
DOCKED: ATOM      2  O4  UNL     1      14.871  -5.157   3.852 +0.00 -0.00    -0.390 OA 
DOCKED: ATOM      3  H25 UNL     1      14.013  -5.456   4.200 +0.00 +0.00    +0.210 HD 
DOCKED: ENDBRANCH   1   2
DOCKED: BRANCH   1   4
DOCKED: ATOM      4  C18 UNL     1      14.312  -5.811   1.624 +0.00 +0.00    +0.045 C  
DOCKED: BRANCH   4   5
DOCKED: ATOM      5  C19 UNL     1      13.293  -6.847   2.125 +0.00 +0.00    +0.074 C  
DOCKED: ATOM      6  C20 UNL     1      12.867  -7.817   1.020 +0.00 +0.00    +0.017 C  
DOCKED: BRANCH   5   7
DOCKED: ATOM      7  C21 UNL     1      13.919  -7.645   3.273 +0.00 +0.00    +0.217 C  
DOCKED: ATOM      8  O5  UNL     1      13.527  -7.566   4.434 +0.00 -0.00    -0.276 OA 
DOCKED: ATOM      9  N3  UNL     1      14.935  -8.491   2.904 +0.00 -0.00    -0.304 N  
DOCKED: ATOM     10  H32 UNL     1      15.286  -8.509   1.947 +0.00 +0.00    +0.149 HD 
DOCKED: BRANCH   9  11
DOCKED: ATOM     11  C22 UNL     1      15.600  -9.368   3.869 +0.00 +0.00    +0.161 C  
DOCKED: BRANCH  11  12
DOCKED: ATOM     12  C23 UNL     1      16.785  -8.590   4.476 +0.00 +0.00    +0.234 C  
DOCKED: ATOM     13  O6  UNL     1      17.923  -9.054   4.501 +0.00 -0.00    -0.274 OA 
DOCKED: ATOM     14  N4  UNL     1      16.473  -7.353   4.992 +0.00 -0.00    -0.310 N  
DOCKED: ATOM     15  H34 UNL     1      15.557  -6.959   4.825 +0.00 +0.00    +0.149 HD 
DOCKED: BRANCH  14  16
DOCKED: ATOM     16  C24 UNL     1      17.492  -6.460   5.501 +0.00 +0.00    +0.139 C  
DOCKED: BRANCH  16  17
DOCKED: ATOM     17  C25 UNL     1      17.774  -5.293   4.583 +0.00 -0.00    -0.030 A  
DOCKED: ATOM     18  C26 UNL     1      17.853  -3.970   5.049 +0.00 +0.00    +0.005 A  
DOCKED: ATOM     19  C27 UNL     1      18.082  -2.914   4.165 +0.00 +0.00    +0.000 A  
DOCKED: ATOM     20  C28 UNL     1      18.211  -3.161   2.799 +0.00 +0.00    +0.000 A  
DOCKED: ATOM     21  C29 UNL     1      18.109  -4.464   2.315 +0.00 +0.00    +0.000 A  
DOCKED: ATOM     22  C30 UNL     1      17.890  -5.522   3.199 +0.00 +0.00    +0.005 A  
DOCKED: ENDBRANCH  16  17
DOCKED: ENDBRANCH  14  16
DOCKED: ENDBRANCH  11  12
DOCKED: BRANCH  11  23
DOCKED: ATOM     23  C31 UNL     1      16.004 -10.709   3.213 +0.00 +0.00    +0.012 C  
DOCKED: ATOM     24  C32 UNL     1      16.789 -10.513   1.913 +0.00 +0.00    +0.009 C  
DOCKED: ATOM     25  C33 UNL     1      14.809 -11.638   2.970 +0.00 +0.00    +0.009 C  
DOCKED: ENDBRANCH  11  23
DOCKED: ENDBRANCH   9  11
DOCKED: ENDBRANCH   5   7
DOCKED: ENDBRANCH   4   5
DOCKED: ENDBRANCH   1   4
DOCKED: BRANCH   1  26
DOCKED: ATOM     26  C9  UNL     1      13.607  -3.462   2.674 +0.00 +0.00    +0.106 C  
DOCKED: BRANCH  26  29
DOCKED: ATOM     27  C8  UNL     1      11.688  -2.866   4.150 +0.00 +0.00    +0.233 C  
DOCKED: ATOM     28  O3  UNL     1      10.981  -2.503   3.211 +0.00 -0.00    -0.274 OA 
DOCKED: ATOM     29  N2  UNL     1      12.949  -3.397   3.980 +0.00 -0.00    -0.308 N  
DOCKED: ATOM     30  H15 UNL     1      13.452  -3.742   4.787 +0.00 +0.00    +0.149 HD 
DOCKED: BRANCH  27  31
DOCKED: ATOM     31  C6  UNL     1      11.223  -2.763   5.616 +0.00 +0.00    +0.156 C  
DOCKED: ATOM     32  C7  UNL     1      11.126  -1.309   6.056 +0.00 +0.00    +0.038 C  
DOCKED: BRANCH  31  35
DOCKED: ATOM     33  C5  UNL     1      12.533  -4.802   6.188 +0.00 +0.00    +0.242 C  
DOCKED: ATOM     34  O2  UNL     1      12.080  -5.442   5.246 +0.00 -0.00    -0.273 OA 
DOCKED: ATOM     35  N1  UNL     1      12.158  -3.503   6.449 +0.00 -0.00    -0.302 N  
DOCKED: ATOM     36  H10 UNL     1      12.605  -3.014   7.225 +0.00 +0.00    +0.150 HD 
DOCKED: BRANCH  33  37
DOCKED: ATOM     37  C4  UNL     1      13.590  -5.330   7.187 +0.00 +0.00    +0.202 C  
DOCKED: BRANCH  37  39
DOCKED: ATOM     38  C1  UNL     1      15.247  -4.832   9.091 +0.00 +0.00    +0.010 C  
DOCKED: ATOM     39  C2  UNL     1      14.381  -4.258   7.967 +0.00 +0.00    +0.020 C  
DOCKED: ATOM     40  C3  UNL     1      15.218  -3.370   7.045 +0.00 +0.00    +0.010 C  
DOCKED: ENDBRANCH  37  39
DOCKED: BRANCH  37  41
DOCKED: ATOM     41  O1  UNL     1      14.502  -6.208   6.517 +0.00 -0.00    -0.382 OA 
DOCKED: ATOM     42  H9  UNL     1      14.198  -6.289   5.596 +0.00 +0.00    +0.210 HD 
DOCKED: ENDBRANCH  37  41
DOCKED: ENDBRANCH  33  37
DOCKED: ENDBRANCH  31  35
DOCKED: ENDBRANCH  27  31
DOCKED: ENDBRANCH  26  29
DOCKED: BRANCH  26  43
DOCKED: ATOM     43  C10 UNL     1      14.049  -2.068   2.157 +0.00 +0.00    +0.060 C  
DOCKED: BRANCH  43  44
DOCKED: ATOM     44  C11 UNL     1      14.986  -1.259   3.021 +0.00 -0.00    -0.046 A  
DOCKED: ATOM     45  C12 UNL     1      16.017  -0.514   2.437 +0.00 +0.00    +0.004 A  
DOCKED: ATOM     46  C13 UNL     1      16.878   0.245   3.230 +0.00 +0.00    +0.000 A  
DOCKED: ATOM     47  C14 UNL     1      16.707   0.279   4.610 +0.00 +0.00    +0.000 A  
DOCKED: ATOM     48  C15 UNL     1      15.669  -0.436   5.202 +0.00 +0.00    +0.000 A  
DOCKED: ATOM     49  C16 UNL     1      14.806  -1.193   4.411 +0.00 +0.00    +0.004 A  
DOCKED: ENDBRANCH  43  44
DOCKED: ENDBRANCH  26  43
DOCKED: ENDBRANCH   1  26
DOCKED: TORSDOF 18
DOCKED: TER
DOCKED: ENDMDL
________________________________________________________________________________


    FINAL DOCKED STATE:
    ________________________


Run:   15 / 20
Time taken for this run:   0.463s

DOCKED: MODEL        15
DOCKED: USER    Run = 15
DOCKED: USER
DOCKED: USER    Estimated Free Energy of Binding    =  +5.37 kcal/mol  [=(1)+(2)+(3)-(4)]
DOCKED: USER
DOCKED: USER    (1) Final Intermolecular Energy     =  +0.00 kcal/mol
DOCKED: USER        vdW + Hbond + desolv Energy     =  +0.00 kcal/mol
DOCKED: USER        Electrostatic Energy            =  +0.00 kcal/mol
DOCKED: USER        Moving Ligand-Fixed Receptor    =  +0.00 kcal/mol
DOCKED: USER        Moving Ligand-Moving Receptor   =  +0.00 kcal/mol
DOCKED: USER    (2) Final Total Internal Energy     = -12.28 kcal/mol
DOCKED: USER    (3) Torsional Free Energy           =  +5.37 kcal/mol
DOCKED: USER    (4) Unbound System's Energy         = -12.28 kcal/mol
DOCKED: USER
DOCKED: USER
DOCKED: REMARK  Name = ligands/ligand_9.pdb
DOCKED: REMARK  24 active torsions:
DOCKED: REMARK  status: ('A' for Active; 'I' for Inactive)
DOCKED: REMARK    1  A    between atoms: C1_1  and  C2_2
DOCKED: REMARK    2  A    between atoms: C2_2  and  C3_3
DOCKED: REMARK    3  A    between atoms: C2_2  and  C4_4
DOCKED: REMARK    4  A    between atoms: C4_4  and  O1_5
DOCKED: REMARK    5  A    between atoms: C4_4  and  C5_6
DOCKED: REMARK    6  A    between atoms: N1_8  and  C6_9
DOCKED: REMARK    7  A    between atoms: C6_9  and  C7_10
DOCKED: REMARK    8  A    between atoms: C6_9  and  C8_11
DOCKED: REMARK    9  A    between atoms: N2_13  and  C9_14
DOCKED: REMARK   10  A    between atoms: C9_14  and  C10_15
DOCKED: REMARK   11  A    between atoms: C9_14  and  C17_22
DOCKED: REMARK   12  A    between atoms: C10_15  and  C11_16
DOCKED: REMARK   13  A    between atoms: C17_22  and  O4_23
DOCKED: REMARK   14  A    between atoms: C17_22  and  C18_24
DOCKED: REMARK   15  A    between atoms: C18_24  and  C19_25
DOCKED: REMARK   16  A    between atoms: C19_25  and  C20_26
DOCKED: REMARK   17  A    between atoms: C19_25  and  C21_27
DOCKED: REMARK   18  A    between atoms: N3_29  and  C22_30
DOCKED: REMARK   19  A    between atoms: C22_30  and  C23_31
DOCKED: REMARK   20  A    between atoms: C22_30  and  C31_41
DOCKED: REMARK   21  A    between atoms: N4_33  and  C24_34
DOCKED: REMARK   22  A    between atoms: C24_34  and  C25_35
DOCKED: REMARK   23  A    between atoms: C31_41  and  C32_42
DOCKED: REMARK   24  A    between atoms: C31_41  and  C33_43
DOCKED: REMARK                            x       y       z     vdW  Elec       q    Type
DOCKED: REMARK                         _______ _______ _______ _____ _____    ______ ____
DOCKED: USER                              x       y       z     vdW  Elec       q    Type
DOCKED: USER                           _______ _______ _______ _____ _____    ______ ____
DOCKED: ROOT
DOCKED: ATOM      1  C17 UNL     1       6.492  -4.273  -1.507 +0.00 +0.00    +0.136 C  
DOCKED: ENDROOT
DOCKED: BRANCH   1   2
DOCKED: ATOM      2  O4  UNL     1       5.219  -4.703  -2.023 +0.00 -0.00    -0.390 OA 
DOCKED: ATOM      3  H25 UNL     1       4.669  -3.908  -2.138 +0.00 +0.00    +0.210 HD 
DOCKED: ENDBRANCH   1   2
DOCKED: BRANCH   1   4
DOCKED: ATOM      4  C18 UNL     1       7.343  -3.861  -2.719 +0.00 +0.00    +0.045 C  
DOCKED: BRANCH   4   5
DOCKED: ATOM      5  C19 UNL     1       6.906  -2.624  -3.519 +0.00 +0.00    +0.074 C  
DOCKED: ATOM      6  C20 UNL     1       7.743  -2.433  -4.787 +0.00 +0.00    +0.017 C  
DOCKED: BRANCH   5   7
DOCKED: ATOM      7  C21 UNL     1       5.434  -2.781  -3.914 +0.00 +0.00    +0.217 C  
DOCKED: ATOM      8  O5  UNL     1       4.511  -2.318  -3.251 +0.00 -0.00    -0.276 OA 
DOCKED: ATOM      9  N3  UNL     1       5.220  -3.451  -5.093 +0.00 -0.00    -0.304 N  
DOCKED: ATOM     10  H32 UNL     1       5.991  -3.876  -5.607 +0.00 +0.00    +0.149 HD 
DOCKED: BRANCH   9  11
DOCKED: ATOM     11  C22 UNL     1       3.876  -3.637  -5.643 +0.00 +0.00    +0.161 C  
DOCKED: BRANCH  11  12
DOCKED: ATOM     12  C23 UNL     1       3.317  -4.961  -5.087 +0.00 +0.00    +0.234 C  
DOCKED: ATOM     13  O6  UNL     1       3.027  -5.905  -5.821 +0.00 -0.00    -0.274 OA 
DOCKED: ATOM     14  N4  UNL     1       3.157  -5.004  -3.720 +0.00 -0.00    -0.310 N  
DOCKED: ATOM     15  H34 UNL     1       3.535  -4.260  -3.151 +0.00 +0.00    +0.149 HD 
DOCKED: BRANCH  14  16
DOCKED: ATOM     16  C24 UNL     1       2.741  -6.211  -3.039 +0.00 +0.00    +0.139 C  
DOCKED: BRANCH  16  17
DOCKED: ATOM     17  C25 UNL     1       2.205  -5.957  -1.649 +0.00 -0.00    -0.030 A  
DOCKED: ATOM     18  C26 UNL     1       1.293  -6.823  -1.024 +0.00 +0.00    +0.005 A  
DOCKED: ATOM     19  C27 UNL     1       0.793  -6.537   0.248 +0.00 +0.00    +0.000 A  
DOCKED: ATOM     20  C28 UNL     1       1.178  -5.367   0.904 +0.00 +0.00    +0.000 A  
DOCKED: ATOM     21  C29 UNL     1       2.062  -4.483   0.287 +0.00 +0.00    +0.000 A  
DOCKED: ATOM     22  C30 UNL     1       2.569  -4.774  -0.980 +0.00 +0.00    +0.005 A  
DOCKED: ENDBRANCH  16  17
DOCKED: ENDBRANCH  14  16
DOCKED: ENDBRANCH  11  12
DOCKED: BRANCH  11  23
DOCKED: ATOM     23  C31 UNL     1       3.896  -3.567  -7.189 +0.00 +0.00    +0.012 C  
DOCKED: ATOM     24  C32 UNL     1       4.991  -2.639  -7.719 +0.00 +0.00    +0.009 C  
DOCKED: ATOM     25  C33 UNL     1       2.540  -3.175  -7.785 +0.00 +0.00    +0.009 C  
DOCKED: ENDBRANCH  11  23
DOCKED: ENDBRANCH   9  11
DOCKED: ENDBRANCH   5   7
DOCKED: ENDBRANCH   4   5
DOCKED: ENDBRANCH   1   4
DOCKED: BRANCH   1  26
DOCKED: ATOM     26  C9  UNL     1       6.224  -3.237  -0.379 +0.00 +0.00    +0.106 C  
DOCKED: BRANCH  26  29
DOCKED: ATOM     27  C8  UNL     1       4.607  -1.460   0.287 +0.00 +0.00    +0.233 C  
DOCKED: ATOM     28  O3  UNL     1       5.399  -0.925   1.063 +0.00 -0.00    -0.274 OA 
DOCKED: ATOM     29  N2  UNL     1       4.938  -2.547  -0.494 +0.00 -0.00    -0.308 N  
DOCKED: ATOM     30  H15 UNL     1       4.266  -2.896  -1.164 +0.00 +0.00    +0.149 HD 
DOCKED: BRANCH  27  31
DOCKED: ATOM     31  C6  UNL     1       3.161  -0.956   0.112 +0.00 +0.00    +0.156 C  
DOCKED: ATOM     32  C7  UNL     1       2.313  -1.306   1.328 +0.00 +0.00    +0.038 C  
DOCKED: BRANCH  31  35
DOCKED: ATOM     33  C5  UNL     1       1.316  -1.334  -1.516 +0.00 +0.00    +0.242 C  
DOCKED: ATOM     34  O2  UNL     1       0.520  -0.657  -0.876 +0.00 -0.00    -0.273 OA 
DOCKED: ATOM     35  N1  UNL     1       2.611  -1.543  -1.099 +0.00 -0.00    -0.302 N  
DOCKED: ATOM     36  H10 UNL     1       3.235  -2.083  -1.700 +0.00 +0.00    +0.150 HD 
DOCKED: BRANCH  33  37
DOCKED: ATOM     37  C4  UNL     1       1.008  -2.016  -2.870 +0.00 +0.00    +0.202 C  
DOCKED: BRANCH  37  39
DOCKED: ATOM     38  C1  UNL     1      -0.076  -4.139  -3.837 +0.00 +0.00    +0.010 C  
DOCKED: ATOM     39  C2  UNL     1      -0.229  -2.938  -2.900 +0.00 +0.00    +0.020 C  
DOCKED: ATOM     40  C3  UNL     1      -0.642  -3.399  -1.501 +0.00 +0.00    +0.010 C  
DOCKED: ENDBRANCH  37  39
DOCKED: BRANCH  37  41
DOCKED: ATOM     41  O1  UNL     1       2.158  -2.738  -3.328 +0.00 -0.00    -0.382 OA 
DOCKED: ATOM     42  H9  UNL     1       2.875  -2.091  -3.447 +0.00 +0.00    +0.210 HD 
DOCKED: ENDBRANCH  37  41
DOCKED: ENDBRANCH  33  37
DOCKED: ENDBRANCH  31  35
DOCKED: ENDBRANCH  27  31
DOCKED: ENDBRANCH  26  29
DOCKED: BRANCH  26  43
DOCKED: ATOM     43  C10 UNL     1       6.532  -3.689   1.073 +0.00 +0.00    +0.060 C  
DOCKED: BRANCH  43  44
DOCKED: ATOM     44  C11 UNL     1       5.507  -4.541   1.780 +0.00 -0.00    -0.046 A  
DOCKED: ATOM     45  C12 UNL     1       5.342  -5.886   1.425 +0.00 +0.00    +0.004 A  
DOCKED: ATOM     46  C13 UNL     1       4.405  -6.682   2.083 +0.00 +0.00    +0.000 A  
DOCKED: ATOM     47  C14 UNL     1       3.635  -6.146   3.111 +0.00 +0.00    +0.000 A  
DOCKED: ATOM     48  C15 UNL     1       3.806  -4.819   3.492 +0.00 +0.00    +0.000 A  
DOCKED: ATOM     49  C16 UNL     1       4.745  -4.022   2.837 +0.00 +0.00    +0.004 A  
DOCKED: ENDBRANCH  43  44
DOCKED: ENDBRANCH  26  43
DOCKED: ENDBRANCH   1  26
DOCKED: TORSDOF 18
DOCKED: TER
DOCKED: ENDMDL
________________________________________________________________________________


    FINAL DOCKED STATE:
    ________________________


Run:   16 / 20
Time taken for this run:   0.463s

DOCKED: MODEL        16
DOCKED: USER    Run = 16
DOCKED: USER
DOCKED: USER    Estimated Free Energy of Binding    =  +5.37 kcal/mol  [=(1)+(2)+(3)-(4)]
DOCKED: USER
DOCKED: USER    (1) Final Intermolecular Energy     =  +0.00 kcal/mol
DOCKED: USER        vdW + Hbond + desolv Energy     =  +0.00 kcal/mol
DOCKED: USER        Electrostatic Energy            =  +0.00 kcal/mol
DOCKED: USER        Moving Ligand-Fixed Receptor    =  +0.00 kcal/mol
DOCKED: USER        Moving Ligand-Moving Receptor   =  +0.00 kcal/mol
DOCKED: USER    (2) Final Total Internal Energy     = -12.16 kcal/mol
DOCKED: USER    (3) Torsional Free Energy           =  +5.37 kcal/mol
DOCKED: USER    (4) Unbound System's Energy         = -12.16 kcal/mol
DOCKED: USER
DOCKED: USER
DOCKED: REMARK  Name = ligands/ligand_9.pdb
DOCKED: REMARK  24 active torsions:
DOCKED: REMARK  status: ('A' for Active; 'I' for Inactive)
DOCKED: REMARK    1  A    between atoms: C1_1  and  C2_2
DOCKED: REMARK    2  A    between atoms: C2_2  and  C3_3
DOCKED: REMARK    3  A    between atoms: C2_2  and  C4_4
DOCKED: REMARK    4  A    between atoms: C4_4  and  O1_5
DOCKED: REMARK    5  A    between atoms: C4_4  and  C5_6
DOCKED: REMARK    6  A    between atoms: N1_8  and  C6_9
DOCKED: REMARK    7  A    between atoms: C6_9  and  C7_10
DOCKED: REMARK    8  A    between atoms: C6_9  and  C8_11
DOCKED: REMARK    9  A    between atoms: N2_13  and  C9_14
DOCKED: REMARK   10  A    between atoms: C9_14  and  C10_15
DOCKED: REMARK   11  A    between atoms: C9_14  and  C17_22
DOCKED: REMARK   12  A    between atoms: C10_15  and  C11_16
DOCKED: REMARK   13  A    between atoms: C17_22  and  O4_23
DOCKED: REMARK   14  A    between atoms: C17_22  and  C18_24
DOCKED: REMARK   15  A    between atoms: C18_24  and  C19_25
DOCKED: REMARK   16  A    between atoms: C19_25  and  C20_26
DOCKED: REMARK   17  A    between atoms: C19_25  and  C21_27
DOCKED: REMARK   18  A    between atoms: N3_29  and  C22_30
DOCKED: REMARK   19  A    between atoms: C22_30  and  C23_31
DOCKED: REMARK   20  A    between atoms: C22_30  and  C31_41
DOCKED: REMARK   21  A    between atoms: N4_33  and  C24_34
DOCKED: REMARK   22  A    between atoms: C24_34  and  C25_35
DOCKED: REMARK   23  A    between atoms: C31_41  and  C32_42
DOCKED: REMARK   24  A    between atoms: C31_41  and  C33_43
DOCKED: REMARK                            x       y       z     vdW  Elec       q    Type
DOCKED: REMARK                         _______ _______ _______ _____ _____    ______ ____
DOCKED: USER                              x       y       z     vdW  Elec       q    Type
DOCKED: USER                           _______ _______ _______ _____ _____    ______ ____
DOCKED: ROOT
DOCKED: ATOM      1  C17 UNL     1      15.744  -7.603  -5.267 +0.00 +0.00    +0.136 C  
DOCKED: ENDROOT
DOCKED: BRANCH   1   2
DOCKED: ATOM      2  O4  UNL     1      16.887  -7.566  -4.393 +0.00 -0.00    -0.390 OA 
DOCKED: ATOM      3  H25 UNL     1      16.567  -7.324  -3.506 +0.00 +0.00    +0.210 HD 
DOCKED: ENDBRANCH   1   2
DOCKED: BRANCH   1   4
DOCKED: ATOM      4  C18 UNL     1      14.959  -8.877  -4.912 +0.00 +0.00    +0.045 C  
DOCKED: BRANCH   4   5
DOCKED: ATOM      5  C19 UNL     1      15.715 -10.018  -4.213 +0.00 +0.00    +0.074 C  
DOCKED: ATOM      6  C20 UNL     1      17.035 -10.348  -4.914 +0.00 +0.00    +0.017 C  
DOCKED: BRANCH   5   7
DOCKED: ATOM      7  C21 UNL     1      16.009  -9.607  -2.767 +0.00 +0.00    +0.217 C  
DOCKED: ATOM      8  O5  UNL     1      15.564  -8.582  -2.259 +0.00 -0.00    -0.276 OA 
DOCKED: ATOM      9  N3  UNL     1      16.783 -10.494  -2.060 +0.00 -0.00    -0.304 N  
DOCKED: ATOM     10  H32 UNL     1      17.189 -11.315  -2.507 +0.00 +0.00    +0.149 HD 
DOCKED: BRANCH   9  11
DOCKED: ATOM     11  C22 UNL     1      17.108 -10.281  -0.648 +0.00 +0.00    +0.161 C  
DOCKED: BRANCH  11  12
DOCKED: ATOM     12  C23 UNL     1      18.367  -9.394  -0.582 +0.00 +0.00    +0.234 C  
DOCKED: ATOM     13  O6  UNL     1      19.471  -9.852  -0.293 +0.00 -0.00    -0.274 OA 
DOCKED: ATOM     14  N4  UNL     1      18.161  -8.061  -0.857 +0.00 -0.00    -0.310 N  
DOCKED: ATOM     15  H34 UNL     1      17.269  -7.759  -1.221 +0.00 +0.00    +0.149 HD 
DOCKED: BRANCH  14  16
DOCKED: ATOM     16  C24 UNL     1      19.260  -7.122  -0.937 +0.00 +0.00    +0.139 C  
DOCKED: BRANCH  16  17
DOCKED: ATOM     17  C25 UNL     1      19.426  -6.515  -2.311 +0.00 -0.00    -0.030 A  
DOCKED: ATOM     18  C26 UNL     1      19.270  -5.140  -2.551 +0.00 +0.00    +0.005 A  
DOCKED: ATOM     19  C27 UNL     1      19.397  -4.620  -3.840 +0.00 +0.00    +0.000 A  
DOCKED: ATOM     20  C28 UNL     1      19.658  -5.470  -4.914 +0.00 +0.00    +0.000 A  
DOCKED: ATOM     21  C29 UNL     1      19.789  -6.842  -4.699 +0.00 +0.00    +0.000 A  
DOCKED: ATOM     22  C30 UNL     1      19.671  -7.360  -3.409 +0.00 +0.00    +0.005 A  
DOCKED: ENDBRANCH  16  17
DOCKED: ENDBRANCH  14  16
DOCKED: ENDBRANCH  11  12
DOCKED: BRANCH  11  23
DOCKED: ATOM     23  C31 UNL     1      17.253 -11.629   0.096 +0.00 +0.00    +0.012 C  
DOCKED: ATOM     24  C32 UNL     1      16.564 -12.782  -0.639 +0.00 +0.00    +0.009 C  
DOCKED: ATOM     25  C33 UNL     1      16.766 -11.565   1.547 +0.00 +0.00    +0.009 C  
DOCKED: ENDBRANCH  11  23
DOCKED: ENDBRANCH   9  11
DOCKED: ENDBRANCH   5   7
DOCKED: ENDBRANCH   4   5
DOCKED: ENDBRANCH   1   4
DOCKED: BRANCH   1  26
DOCKED: ATOM     26  C9  UNL     1      15.033  -6.223  -5.181 +0.00 +0.00    +0.106 C  
DOCKED: BRANCH  26  29
DOCKED: ATOM     27  C8  UNL     1      14.541  -4.453  -3.496 +0.00 +0.00    +0.233 C  
DOCKED: ATOM     28  O3  UNL     1      13.442  -4.189  -3.983 +0.00 -0.00    -0.274 OA 
DOCKED: ATOM     29  N2  UNL     1      15.353  -5.460  -3.974 +0.00 -0.00    -0.308 N  
DOCKED: ATOM     30  H15 UNL     1      16.212  -5.674  -3.486 +0.00 +0.00    +0.149 HD 
DOCKED: BRANCH  27  31
DOCKED: ATOM     31  C6  UNL     1      15.114  -3.678  -2.293 +0.00 +0.00    +0.156 C  
DOCKED: ATOM     32  C7  UNL     1      16.543  -3.230  -2.565 +0.00 +0.00    +0.038 C  
DOCKED: BRANCH  31  35
DOCKED: ATOM     33  C5  UNL     1      15.775  -5.694  -0.990 +0.00 +0.00    +0.242 C  
DOCKED: ATOM     34  O2  UNL     1      16.516  -6.108  -1.873 +0.00 -0.00    -0.273 OA 
DOCKED: ATOM     35  N1  UNL     1      15.045  -4.533  -1.119 +0.00 -0.00    -0.302 N  
DOCKED: ATOM     36  H10 UNL     1      14.479  -4.224  -0.329 +0.00 +0.00    +0.150 HD 
DOCKED: BRANCH  33  37
DOCKED: ATOM     37  C4  UNL     1      15.570  -6.377   0.383 +0.00 +0.00    +0.202 C  
DOCKED: BRANCH  37  39
DOCKED: ATOM     38  C1  UNL     1      17.268  -7.050   2.195 +0.00 +0.00    +0.010 C  
DOCKED: ATOM     39  C2  UNL     1      16.502  -5.909   1.520 +0.00 +0.00    +0.020 C  
DOCKED: ATOM     40  C3  UNL     1      17.467  -4.813   1.064 +0.00 +0.00    +0.010 C  
DOCKED: ENDBRANCH  37  39
DOCKED: BRANCH  37  41
DOCKED: ATOM     41  O1  UNL     1      15.661  -7.800   0.241 +0.00 -0.00    -0.382 OA 
DOCKED: ATOM     42  H9  UNL     1      15.866  -7.983  -0.692 +0.00 +0.00    +0.210 HD 
DOCKED: ENDBRANCH  37  41
DOCKED: ENDBRANCH  33  37
DOCKED: ENDBRANCH  31  35
DOCKED: ENDBRANCH  27  31
DOCKED: ENDBRANCH  26  29
DOCKED: BRANCH  26  43
DOCKED: ATOM     43  C10 UNL     1      15.046  -5.349  -6.462 +0.00 +0.00    +0.060 C  
DOCKED: BRANCH  43  44
DOCKED: ATOM     44  C11 UNL     1      16.312  -4.594  -6.789 +0.00 -0.00    -0.046 A  
DOCKED: ATOM     45  C12 UNL     1      16.591  -3.377  -6.156 +0.00 +0.00    +0.004 A  
DOCKED: ATOM     46  C13 UNL     1      17.764  -2.681  -6.444 +0.00 +0.00    +0.000 A  
DOCKED: ATOM     47  C14 UNL     1      18.678  -3.203  -7.356 +0.00 +0.00    +0.000 A  
DOCKED: ATOM     48  C15 UNL     1      18.426  -4.425  -7.973 +0.00 +0.00    +0.000 A  
DOCKED: ATOM     49  C16 UNL     1      17.255  -5.123  -7.684 +0.00 +0.00    +0.004 A  
DOCKED: ENDBRANCH  43  44
DOCKED: ENDBRANCH  26  43
DOCKED: ENDBRANCH   1  26
DOCKED: TORSDOF 18
DOCKED: TER
DOCKED: ENDMDL
________________________________________________________________________________


    FINAL DOCKED STATE:
    ________________________


Run:   17 / 20
Time taken for this run:   0.463s

DOCKED: MODEL        17
DOCKED: USER    Run = 17
DOCKED: USER
DOCKED: USER    Estimated Free Energy of Binding    =  +5.37 kcal/mol  [=(1)+(2)+(3)-(4)]
DOCKED: USER
DOCKED: USER    (1) Final Intermolecular Energy     =  +0.00 kcal/mol
DOCKED: USER        vdW + Hbond + desolv Energy     =  +0.00 kcal/mol
DOCKED: USER        Electrostatic Energy            =  +0.00 kcal/mol
DOCKED: USER        Moving Ligand-Fixed Receptor    =  +0.00 kcal/mol
DOCKED: USER        Moving Ligand-Moving Receptor   =  +0.00 kcal/mol
DOCKED: USER    (2) Final Total Internal Energy     = -12.31 kcal/mol
DOCKED: USER    (3) Torsional Free Energy           =  +5.37 kcal/mol
DOCKED: USER    (4) Unbound System's Energy         = -12.31 kcal/mol
DOCKED: USER
DOCKED: USER
DOCKED: REMARK  Name = ligands/ligand_9.pdb
DOCKED: REMARK  24 active torsions:
DOCKED: REMARK  status: ('A' for Active; 'I' for Inactive)
DOCKED: REMARK    1  A    between atoms: C1_1  and  C2_2
DOCKED: REMARK    2  A    between atoms: C2_2  and  C3_3
DOCKED: REMARK    3  A    between atoms: C2_2  and  C4_4
DOCKED: REMARK    4  A    between atoms: C4_4  and  O1_5
DOCKED: REMARK    5  A    between atoms: C4_4  and  C5_6
DOCKED: REMARK    6  A    between atoms: N1_8  and  C6_9
DOCKED: REMARK    7  A    between atoms: C6_9  and  C7_10
DOCKED: REMARK    8  A    between atoms: C6_9  and  C8_11
DOCKED: REMARK    9  A    between atoms: N2_13  and  C9_14
DOCKED: REMARK   10  A    between atoms: C9_14  and  C10_15
DOCKED: REMARK   11  A    between atoms: C9_14  and  C17_22
DOCKED: REMARK   12  A    between atoms: C10_15  and  C11_16
DOCKED: REMARK   13  A    between atoms: C17_22  and  O4_23
DOCKED: REMARK   14  A    between atoms: C17_22  and  C18_24
DOCKED: REMARK   15  A    between atoms: C18_24  and  C19_25
DOCKED: REMARK   16  A    between atoms: C19_25  and  C20_26
DOCKED: REMARK   17  A    between atoms: C19_25  and  C21_27
DOCKED: REMARK   18  A    between atoms: N3_29  and  C22_30
DOCKED: REMARK   19  A    between atoms: C22_30  and  C23_31
DOCKED: REMARK   20  A    between atoms: C22_30  and  C31_41
DOCKED: REMARK   21  A    between atoms: N4_33  and  C24_34
DOCKED: REMARK   22  A    between atoms: C24_34  and  C25_35
DOCKED: REMARK   23  A    between atoms: C31_41  and  C32_42
DOCKED: REMARK   24  A    between atoms: C31_41  and  C33_43
DOCKED: REMARK                            x       y       z     vdW  Elec       q    Type
DOCKED: REMARK                         _______ _______ _______ _____ _____    ______ ____
DOCKED: USER                              x       y       z     vdW  Elec       q    Type
DOCKED: USER                           _______ _______ _______ _____ _____    ______ ____
DOCKED: ROOT
DOCKED: ATOM      1  C17 UNL     1       9.929  -6.843   3.520 +0.00 +0.00    +0.136 C  
DOCKED: ENDROOT
DOCKED: BRANCH   1   2
DOCKED: ATOM      2  O4  UNL     1       8.996  -7.531   4.373 +0.00 -0.00    -0.390 OA 
DOCKED: ATOM      3  H25 UNL     1       8.441  -6.855   4.800 +0.00 +0.00    +0.210 HD 
DOCKED: ENDBRANCH   1   2
DOCKED: BRANCH   1   4
DOCKED: ATOM      4  C18 UNL     1       9.222  -6.638   2.170 +0.00 +0.00    +0.045 C  
DOCKED: BRANCH   4   5
DOCKED: ATOM      5  C19 UNL     1       8.025  -5.676   2.121 +0.00 +0.00    +0.074 C  
DOCKED: ATOM      6  C20 UNL     1       7.326  -5.694   0.760 +0.00 +0.00    +0.017 C  
DOCKED: BRANCH   5   7
DOCKED: ATOM      7  C21 UNL     1       7.018  -6.081   3.203 +0.00 +0.00    +0.217 C  
DOCKED: ATOM      8  O5  UNL     1       7.000  -5.578   4.322 +0.00 -0.00    -0.276 OA 
DOCKED: ATOM      9  N3  UNL     1       6.104  -7.029   2.816 +0.00 -0.00    -0.304 N  
DOCKED: ATOM     10  H32 UNL     1       6.161  -7.477   1.902 +0.00 +0.00    +0.149 HD 
DOCKED: BRANCH   9  11
DOCKED: ATOM     11  C22 UNL     1       5.037  -7.484   3.709 +0.00 +0.00    +0.161 C  
DOCKED: BRANCH  11  12
DOCKED: ATOM     12  C23 UNL     1       5.572  -8.688   4.510 +0.00 +0.00    +0.234 C  
DOCKED: ATOM     13  O6  UNL     1       5.036  -9.793   4.458 +0.00 -0.00    -0.274 OA 
DOCKED: ATOM     14  N4  UNL     1       6.678  -8.431   5.288 +0.00 -0.00    -0.310 N  
DOCKED: ATOM     15  H34 UNL     1       7.162  -7.549   5.192 +0.00 +0.00    +0.149 HD 
DOCKED: BRANCH  14  16
DOCKED: ATOM     16  C24 UNL     1       7.358  -9.482   6.015 +0.00 +0.00    +0.139 C  
DOCKED: BRANCH  16  17
DOCKED: ATOM     17  C25 UNL     1       8.106  -8.979   7.228 +0.00 -0.00    -0.030 A  
DOCKED: ATOM     18  C26 UNL     1       8.265  -9.753   8.389 +0.00 +0.00    +0.005 A  
DOCKED: ATOM     19  C27 UNL     1       8.933  -9.242   9.503 +0.00 +0.00    +0.000 A  
DOCKED: ATOM     20  C28 UNL     1       9.432  -7.939   9.482 +0.00 +0.00    +0.000 A  
DOCKED: ATOM     21  C29 UNL     1       9.260  -7.147   8.348 +0.00 +0.00    +0.000 A  
DOCKED: ATOM     22  C30 UNL     1       8.600  -7.662   7.231 +0.00 +0.00    +0.005 A  
DOCKED: ENDBRANCH  16  17
DOCKED: ENDBRANCH  14  16
DOCKED: ENDBRANCH  11  12
DOCKED: BRANCH  11  23
DOCKED: ATOM     23  C31 UNL     1       3.742  -7.785   2.918 +0.00 +0.00    +0.012 C  
DOCKED: ATOM     24  C32 UNL     1       3.648  -6.978   1.621 +0.00 +0.00    +0.009 C  
DOCKED: ATOM     25  C33 UNL     1       2.473  -7.589   3.753 +0.00 +0.00    +0.009 C  
DOCKED: ENDBRANCH  11  23
DOCKED: ENDBRANCH   9  11
DOCKED: ENDBRANCH   5   7
DOCKED: ENDBRANCH   4   5
DOCKED: ENDBRANCH   1   4
DOCKED: BRANCH   1  26
DOCKED: ATOM     26  C9  UNL     1      10.462  -5.605   4.295 +0.00 +0.00    +0.106 C  
DOCKED: BRANCH  26  29
DOCKED: ATOM     27  C8  UNL     1       9.724  -3.890   5.947 +0.00 +0.00    +0.233 C  
DOCKED: ATOM     28  O3  UNL     1      10.589  -3.083   5.609 +0.00 -0.00    -0.274 OA 
DOCKED: ATOM     29  N2  UNL     1       9.551  -5.110   5.329 +0.00 -0.00    -0.308 N  
DOCKED: ATOM     30  H15 UNL     1       8.777  -5.698   5.606 +0.00 +0.00    +0.149 HD 
DOCKED: BRANCH  27  31
DOCKED: ATOM     31  C6  UNL     1       8.743  -3.606   7.101 +0.00 +0.00    +0.156 C  
DOCKED: ATOM     32  C7  UNL     1       9.435  -3.743   8.450 +0.00 +0.00    +0.038 C  
DOCKED: BRANCH  31  35
DOCKED: ATOM     33  C5  UNL     1       6.582  -4.557   7.892 +0.00 +0.00    +0.242 C  
DOCKED: ATOM     34  O2  UNL     1       6.542  -3.829   8.876 +0.00 -0.00    -0.273 OA 
DOCKED: ATOM     35  N1  UNL     1       7.622  -4.525   6.989 +0.00 -0.00    -0.302 N  
DOCKED: ATOM     36  H10 UNL     1       7.573  -5.129   6.169 +0.00 +0.00    +0.150 HD 
DOCKED: BRANCH  33  37
DOCKED: ATOM     37  C4  UNL     1       5.487  -5.578   7.503 +0.00 +0.00    +0.202 C  
DOCKED: BRANCH  37  39
DOCKED: ATOM     38  C1  UNL     1       4.747  -7.983   8.040 +0.00 +0.00    +0.010 C  
DOCKED: ATOM     39  C2  UNL     1       5.091  -6.596   8.592 +0.00 +0.00    +0.020 C  
DOCKED: ATOM     40  C3  UNL     1       6.145  -6.705   9.695 +0.00 +0.00    +0.010 C  
DOCKED: ENDBRANCH  37  39
DOCKED: BRANCH  37  41
DOCKED: ATOM     41  O1  UNL     1       5.867  -6.273   6.309 +0.00 -0.00    -0.382 OA 
DOCKED: ATOM     42  H9  UNL     1       5.957  -5.607   5.605 +0.00 +0.00    +0.210 HD 
DOCKED: ENDBRANCH  37  41
DOCKED: ENDBRANCH  33  37
DOCKED: ENDBRANCH  31  35
DOCKED: ENDBRANCH  27  31
DOCKED: ENDBRANCH  26  29
DOCKED: BRANCH  26  43
DOCKED: ATOM     43  C10 UNL     1      11.936  -5.660   4.773 +0.00 +0.00    +0.060 C  
DOCKED: BRANCH  43  44
DOCKED: ATOM     44  C11 UNL     1      12.234  -6.390   6.060 +0.00 -0.00    -0.046 A  
DOCKED: ATOM     45  C12 UNL     1      12.519  -5.673   7.228 +0.00 +0.00    +0.004 A  
DOCKED: ATOM     46  C13 UNL     1      12.782  -6.342   8.423 +0.00 +0.00    +0.000 A  
DOCKED: ATOM     47  C14 UNL     1      12.749  -7.733   8.466 +0.00 +0.00    +0.000 A  
DOCKED: ATOM     48  C15 UNL     1      12.441  -8.458   7.318 +0.00 +0.00    +0.000 A  
DOCKED: ATOM     49  C16 UNL     1      12.175  -7.791   6.124 +0.00 +0.00    +0.004 A  
DOCKED: ENDBRANCH  43  44
DOCKED: ENDBRANCH  26  43
DOCKED: ENDBRANCH   1  26
DOCKED: TORSDOF 18
DOCKED: TER
DOCKED: ENDMDL
________________________________________________________________________________


    FINAL DOCKED STATE:
    ________________________


Run:   18 / 20
Time taken for this run:   0.463s

DOCKED: MODEL        18
DOCKED: USER    Run = 18
DOCKED: USER
DOCKED: USER    Estimated Free Energy of Binding    =  +5.37 kcal/mol  [=(1)+(2)+(3)-(4)]
DOCKED: USER
DOCKED: USER    (1) Final Intermolecular Energy     =  +0.00 kcal/mol
DOCKED: USER        vdW + Hbond + desolv Energy     =  +0.00 kcal/mol
DOCKED: USER        Electrostatic Energy            =  +0.00 kcal/mol
DOCKED: USER        Moving Ligand-Fixed Receptor    =  +0.00 kcal/mol
DOCKED: USER        Moving Ligand-Moving Receptor   =  +0.00 kcal/mol
DOCKED: USER    (2) Final Total Internal Energy     = -12.78 kcal/mol
DOCKED: USER    (3) Torsional Free Energy           =  +5.37 kcal/mol
DOCKED: USER    (4) Unbound System's Energy         = -12.78 kcal/mol
DOCKED: USER
DOCKED: USER
DOCKED: REMARK  Name = ligands/ligand_9.pdb
DOCKED: REMARK  24 active torsions:
DOCKED: REMARK  status: ('A' for Active; 'I' for Inactive)
DOCKED: REMARK    1  A    between atoms: C1_1  and  C2_2
DOCKED: REMARK    2  A    between atoms: C2_2  and  C3_3
DOCKED: REMARK    3  A    between atoms: C2_2  and  C4_4
DOCKED: REMARK    4  A    between atoms: C4_4  and  O1_5
DOCKED: REMARK    5  A    between atoms: C4_4  and  C5_6
DOCKED: REMARK    6  A    between atoms: N1_8  and  C6_9
DOCKED: REMARK    7  A    between atoms: C6_9  and  C7_10
DOCKED: REMARK    8  A    between atoms: C6_9  and  C8_11
DOCKED: REMARK    9  A    between atoms: N2_13  and  C9_14
DOCKED: REMARK   10  A    between atoms: C9_14  and  C10_15
DOCKED: REMARK   11  A    between atoms: C9_14  and  C17_22
DOCKED: REMARK   12  A    between atoms: C10_15  and  C11_16
DOCKED: REMARK   13  A    between atoms: C17_22  and  O4_23
DOCKED: REMARK   14  A    between atoms: C17_22  and  C18_24
DOCKED: REMARK   15  A    between atoms: C18_24  and  C19_25
DOCKED: REMARK   16  A    between atoms: C19_25  and  C20_26
DOCKED: REMARK   17  A    between atoms: C19_25  and  C21_27
DOCKED: REMARK   18  A    between atoms: N3_29  and  C22_30
DOCKED: REMARK   19  A    between atoms: C22_30  and  C23_31
DOCKED: REMARK   20  A    between atoms: C22_30  and  C31_41
DOCKED: REMARK   21  A    between atoms: N4_33  and  C24_34
DOCKED: REMARK   22  A    between atoms: C24_34  and  C25_35
DOCKED: REMARK   23  A    between atoms: C31_41  and  C32_42
DOCKED: REMARK   24  A    between atoms: C31_41  and  C33_43
DOCKED: REMARK                            x       y       z     vdW  Elec       q    Type
DOCKED: REMARK                         _______ _______ _______ _____ _____    ______ ____
DOCKED: USER                              x       y       z     vdW  Elec       q    Type
DOCKED: USER                           _______ _______ _______ _____ _____    ______ ____
DOCKED: ROOT
DOCKED: ATOM      1  C17 UNL     1      11.257  -1.503  -1.530 +0.00 +0.00    +0.136 C  
DOCKED: ENDROOT
DOCKED: BRANCH   1   2
DOCKED: ATOM      2  O4  UNL     1      11.659  -1.328  -0.159 +0.00 -0.00    -0.390 OA 
DOCKED: ATOM      3  H25 UNL     1      11.325  -2.094   0.341 +0.00 +0.00    +0.210 HD 
DOCKED: ENDBRANCH   1   2
DOCKED: BRANCH   1   4
DOCKED: ATOM      4  C18 UNL     1      12.283  -2.451  -2.173 +0.00 +0.00    +0.045 C  
DOCKED: BRANCH   4   5
DOCKED: ATOM      5  C19 UNL     1      12.217  -3.941  -1.805 +0.00 +0.00    +0.074 C  
DOCKED: ATOM      6  C20 UNL     1      13.511  -4.679  -2.158 +0.00 +0.00    +0.017 C  
DOCKED: BRANCH   5   7
DOCKED: ATOM      7  C21 UNL     1      11.966  -4.071  -0.299 +0.00 +0.00    +0.217 C  
DOCKED: ATOM      8  O5  UNL     1      10.846  -4.220   0.182 +0.00 -0.00    -0.276 OA 
DOCKED: ATOM      9  N3  UNL     1      13.096  -4.045   0.481 +0.00 -0.00    -0.304 N  
DOCKED: ATOM     10  H32 UNL     1      14.014  -3.869   0.075 +0.00 +0.00    +0.149 HD 
DOCKED: BRANCH   9  11
DOCKED: ATOM     11  C22 UNL     1      13.036  -4.216   1.934 +0.00 +0.00    +0.161 C  
DOCKED: BRANCH  11  12
DOCKED: ATOM     12  C23 UNL     1      12.283  -3.005   2.521 +0.00 +0.00    +0.234 C  
DOCKED: ATOM     13  O6  UNL     1      11.102  -2.785   2.258 +0.00 -0.00    -0.274 OA 
DOCKED: ATOM     14  N4  UNL     1      13.028  -2.192   3.343 +0.00 -0.00    -0.310 N  
DOCKED: ATOM     15  H34 UNL     1      13.949  -2.488   3.637 +0.00 +0.00    +0.149 HD 
DOCKED: BRANCH  14  16
DOCKED: ATOM     16  C24 UNL     1      12.436  -1.077   4.051 +0.00 +0.00    +0.139 C  
DOCKED: BRANCH  16  17
DOCKED: ATOM     17  C25 UNL     1      11.708  -0.114   3.143 +0.00 -0.00    -0.030 A  
DOCKED: ATOM     18  C26 UNL     1      10.314   0.059   3.191 +0.00 +0.00    +0.005 A  
DOCKED: ATOM     19  C27 UNL     1       9.672   0.934   2.312 +0.00 +0.00    +0.000 A  
DOCKED: ATOM     20  C28 UNL     1      10.410   1.630   1.354 +0.00 +0.00    +0.000 A  
DOCKED: ATOM     21  C29 UNL     1      11.790   1.450   1.275 +0.00 +0.00    +0.000 A  
DOCKED: ATOM     22  C30 UNL     1      12.433   0.583   2.159 +0.00 +0.00    +0.005 A  
DOCKED: ENDBRANCH  16  17
DOCKED: ENDBRANCH  14  16
DOCKED: ENDBRANCH  11  12
DOCKED: BRANCH  11  23
DOCKED: ATOM     23  C31 UNL     1      14.451  -4.420   2.526 +0.00 +0.00    +0.012 C  
DOCKED: ATOM     24  C32 UNL     1      15.496  -3.513   1.872 +0.00 +0.00    +0.009 C  
DOCKED: ATOM     25  C33 UNL     1      14.914  -5.879   2.475 +0.00 +0.00    +0.009 C  
DOCKED: ENDBRANCH  11  23
DOCKED: ENDBRANCH   9  11
DOCKED: ENDBRANCH   5   7
DOCKED: ENDBRANCH   4   5
DOCKED: ENDBRANCH   1   4
DOCKED: BRANCH   1  26
DOCKED: ATOM     26  C9  UNL     1       9.752  -1.893  -1.540 +0.00 +0.00    +0.106 C  
DOCKED: BRANCH  26  29
DOCKED: ATOM     27  C8  UNL     1       7.907  -2.629  -0.033 +0.00 +0.00    +0.233 C  
DOCKED: ATOM     28  O3  UNL     1       7.094  -2.728  -0.952 +0.00 -0.00    -0.274 OA 
DOCKED: ATOM     29  N2  UNL     1       9.228  -2.288  -0.231 +0.00 -0.00    -0.308 N  
DOCKED: ATOM     30  H15 UNL     1       9.862  -2.293   0.556 +0.00 +0.00    +0.149 HD 
DOCKED: BRANCH  27  31
DOCKED: ATOM     31  C6  UNL     1       7.520  -2.885   1.437 +0.00 +0.00    +0.156 C  
DOCKED: ATOM     32  C7  UNL     1       7.437  -1.577   2.213 +0.00 +0.00    +0.038 C  
DOCKED: BRANCH  31  35
DOCKED: ATOM     33  C5  UNL     1       8.248  -4.550   3.137 +0.00 +0.00    +0.242 C  
DOCKED: ATOM     34  O2  UNL     1       7.180  -4.508   3.737 +0.00 -0.00    -0.273 OA 
DOCKED: ATOM     35  N1  UNL     1       8.501  -3.783   2.022 +0.00 -0.00    -0.302 N  
DOCKED: ATOM     36  H10 UNL     1       9.396  -3.897   1.546 +0.00 +0.00    +0.150 HD 
DOCKED: BRANCH  33  37
DOCKED: ATOM     37  C4  UNL     1       9.436  -5.468   3.511 +0.00 +0.00    +0.202 C  
DOCKED: BRANCH  37  39
DOCKED: ATOM     38  C1  UNL     1      11.689  -5.511   4.753 +0.00 +0.00    +0.010 C  
DOCKED: ATOM     39  C2  UNL     1      10.220  -5.079   4.782 +0.00 +0.00    +0.020 C  
DOCKED: ATOM     40  C3  UNL     1      10.107  -3.587   5.098 +0.00 +0.00    +0.010 C  
DOCKED: ENDBRANCH  37  39
DOCKED: BRANCH  37  41
DOCKED: ATOM     41  O1  UNL     1      10.337  -5.579   2.403 +0.00 -0.00    -0.382 OA 
DOCKED: ATOM     42  H9  UNL     1      10.547  -4.675   2.112 +0.00 +0.00    +0.210 HD 
DOCKED: ENDBRANCH  37  41
DOCKED: ENDBRANCH  33  37
DOCKED: ENDBRANCH  31  35
DOCKED: ENDBRANCH  27  31
DOCKED: ENDBRANCH  26  29
DOCKED: BRANCH  26  43
DOCKED: ATOM     43  C10 UNL     1       8.790  -0.950  -2.309 +0.00 +0.00    +0.060 C  
DOCKED: BRANCH  43  44
DOCKED: ATOM     44  C11 UNL     1       8.540   0.424  -1.736 +0.00 -0.00    -0.046 A  
DOCKED: ATOM     45  C12 UNL     1       7.537   0.617  -0.778 +0.00 +0.00    +0.004 A  
DOCKED: ATOM     46  C13 UNL     1       7.310   1.881  -0.236 +0.00 +0.00    +0.000 A  
DOCKED: ATOM     47  C14 UNL     1       8.092   2.961  -0.633 +0.00 +0.00    +0.000 A  
DOCKED: ATOM     48  C15 UNL     1       9.111   2.779  -1.564 +0.00 +0.00    +0.000 A  
DOCKED: ATOM     49  C16 UNL     1       9.341   1.515  -2.105 +0.00 +0.00    +0.004 A  
DOCKED: ENDBRANCH  43  44
DOCKED: ENDBRANCH  26  43
DOCKED: ENDBRANCH   1  26
DOCKED: TORSDOF 18
DOCKED: TER
DOCKED: ENDMDL
________________________________________________________________________________


    FINAL DOCKED STATE:
    ________________________


Run:   19 / 20
Time taken for this run:   0.463s

DOCKED: MODEL        19
DOCKED: USER    Run = 19
DOCKED: USER
DOCKED: USER    Estimated Free Energy of Binding    =  +5.37 kcal/mol  [=(1)+(2)+(3)-(4)]
DOCKED: USER
DOCKED: USER    (1) Final Intermolecular Energy     =  +0.00 kcal/mol
DOCKED: USER        vdW + Hbond + desolv Energy     =  +0.00 kcal/mol
DOCKED: USER        Electrostatic Energy            =  +0.00 kcal/mol
DOCKED: USER        Moving Ligand-Fixed Receptor    =  +0.00 kcal/mol
DOCKED: USER        Moving Ligand-Moving Receptor   =  +0.00 kcal/mol
DOCKED: USER    (2) Final Total Internal Energy     = -11.98 kcal/mol
DOCKED: USER    (3) Torsional Free Energy           =  +5.37 kcal/mol
DOCKED: USER    (4) Unbound System's Energy         = -11.98 kcal/mol
DOCKED: USER
DOCKED: USER
DOCKED: REMARK  Name = ligands/ligand_9.pdb
DOCKED: REMARK  24 active torsions:
DOCKED: REMARK  status: ('A' for Active; 'I' for Inactive)
DOCKED: REMARK    1  A    between atoms: C1_1  and  C2_2
DOCKED: REMARK    2  A    between atoms: C2_2  and  C3_3
DOCKED: REMARK    3  A    between atoms: C2_2  and  C4_4
DOCKED: REMARK    4  A    between atoms: C4_4  and  O1_5
DOCKED: REMARK    5  A    between atoms: C4_4  and  C5_6
DOCKED: REMARK    6  A    between atoms: N1_8  and  C6_9
DOCKED: REMARK    7  A    between atoms: C6_9  and  C7_10
DOCKED: REMARK    8  A    between atoms: C6_9  and  C8_11
DOCKED: REMARK    9  A    between atoms: N2_13  and  C9_14
DOCKED: REMARK   10  A    between atoms: C9_14  and  C10_15
DOCKED: REMARK   11  A    between atoms: C9_14  and  C17_22
DOCKED: REMARK   12  A    between atoms: C10_15  and  C11_16
DOCKED: REMARK   13  A    between atoms: C17_22  and  O4_23
DOCKED: REMARK   14  A    between atoms: C17_22  and  C18_24
DOCKED: REMARK   15  A    between atoms: C18_24  and  C19_25
DOCKED: REMARK   16  A    between atoms: C19_25  and  C20_26
DOCKED: REMARK   17  A    between atoms: C19_25  and  C21_27
DOCKED: REMARK   18  A    between atoms: N3_29  and  C22_30
DOCKED: REMARK   19  A    between atoms: C22_30  and  C23_31
DOCKED: REMARK   20  A    between atoms: C22_30  and  C31_41
DOCKED: REMARK   21  A    between atoms: N4_33  and  C24_34
DOCKED: REMARK   22  A    between atoms: C24_34  and  C25_35
DOCKED: REMARK   23  A    between atoms: C31_41  and  C32_42
DOCKED: REMARK   24  A    between atoms: C31_41  and  C33_43
DOCKED: REMARK                            x       y       z     vdW  Elec       q    Type
DOCKED: REMARK                         _______ _______ _______ _____ _____    ______ ____
DOCKED: USER                              x       y       z     vdW  Elec       q    Type
DOCKED: USER                           _______ _______ _______ _____ _____    ______ ____
DOCKED: ROOT
DOCKED: ATOM      1  C17 UNL     1      10.016  -3.273   2.362 +0.00 +0.00    +0.136 C  
DOCKED: ENDROOT
DOCKED: BRANCH   1   2
DOCKED: ATOM      2  O4  UNL     1      11.077  -3.456   3.318 +0.00 -0.00    -0.390 OA 
DOCKED: ATOM      3  H25 UNL     1      11.909  -3.526   2.818 +0.00 +0.00    +0.210 HD 
DOCKED: ENDBRANCH   1   2
DOCKED: BRANCH   1   4
DOCKED: ATOM      4  C18 UNL     1      10.192  -1.865   1.772 +0.00 +0.00    +0.045 C  
DOCKED: BRANCH   4   5
DOCKED: ATOM      5  C19 UNL     1      11.470  -1.573   0.970 +0.00 +0.00    +0.074 C  
DOCKED: ATOM      6  C20 UNL     1      11.233  -0.542  -0.137 +0.00 +0.00    +0.017 C  
DOCKED: BRANCH   5   7
DOCKED: ATOM      7  C21 UNL     1      12.545  -1.041   1.923 +0.00 +0.00    +0.217 C  
DOCKED: ATOM      8  O5  UNL     1      13.598  -0.545   1.534 +0.00 -0.00    -0.276 OA 
DOCKED: ATOM      9  N3  UNL     1      12.229  -1.125   3.256 +0.00 -0.00    -0.304 N  
DOCKED: ATOM     10  H32 UNL     1      11.375  -1.586   3.569 +0.00 +0.00    +0.149 HD 
DOCKED: BRANCH   9  11
DOCKED: ATOM     11  C22 UNL     1      13.121  -0.608   4.296 +0.00 +0.00    +0.161 C  
DOCKED: BRANCH  11  12
DOCKED: ATOM     12  C23 UNL     1      14.097  -1.736   4.684 +0.00 +0.00    +0.234 C  
DOCKED: ATOM     13  O6  UNL     1      14.351  -2.002   5.858 +0.00 -0.00    -0.274 OA 
DOCKED: ATOM     14  N4  UNL     1      14.667  -2.410   3.628 +0.00 -0.00    -0.310 N  
DOCKED: ATOM     15  H34 UNL     1      14.325  -2.249   2.691 +0.00 +0.00    +0.149 HD 
DOCKED: BRANCH  14  16
DOCKED: ATOM     16  C24 UNL     1      15.522  -3.560   3.830 +0.00 +0.00    +0.139 C  
DOCKED: BRANCH  16  17
DOCKED: ATOM     17  C25 UNL     1      14.753  -4.840   4.062 +0.00 -0.00    -0.030 A  
DOCKED: ATOM     18  C26 UNL     1      13.381  -4.851   4.366 +0.00 +0.00    +0.005 A  
DOCKED: ATOM     19  C27 UNL     1      12.711  -6.052   4.607 +0.00 +0.00    +0.000 A  
DOCKED: ATOM     20  C28 UNL     1      13.408  -7.260   4.572 +0.00 +0.00    +0.000 A  
DOCKED: ATOM     21  C29 UNL     1      14.775  -7.266   4.299 +0.00 +0.00    +0.000 A  
DOCKED: ATOM     22  C30 UNL     1      15.442  -6.066   4.049 +0.00 +0.00    +0.005 A  
DOCKED: ENDBRANCH  16  17
DOCKED: ENDBRANCH  14  16
DOCKED: ENDBRANCH  11  12
DOCKED: BRANCH  11  23
DOCKED: ATOM     23  C31 UNL     1      12.313  -0.042   5.488 +0.00 +0.00    +0.012 C  
DOCKED: ATOM     24  C32 UNL     1      11.375  -1.082   6.106 +0.00 +0.00    +0.009 C  
DOCKED: ATOM     25  C33 UNL     1      11.531   1.226   5.130 +0.00 +0.00    +0.009 C  
DOCKED: ENDBRANCH  11  23
DOCKED: ENDBRANCH   9  11
DOCKED: ENDBRANCH   5   7
DOCKED: ENDBRANCH   4   5
DOCKED: ENDBRANCH   1   4
DOCKED: BRANCH   1  26
DOCKED: ATOM     26  C9  UNL     1      10.017  -4.503   1.409 +0.00 +0.00    +0.106 C  
DOCKED: BRANCH  26  29
DOCKED: ATOM     27  C8  UNL     1      11.765  -5.507  -0.058 +0.00 +0.00    +0.233 C  
DOCKED: ATOM     28  O3  UNL     1      11.108  -5.336  -1.084 +0.00 -0.00    -0.274 OA 
DOCKED: ATOM     29  N2  UNL     1      11.341  -5.084   1.184 +0.00 -0.00    -0.308 N  
DOCKED: ATOM     30  H15 UNL     1      11.958  -5.192   1.979 +0.00 +0.00    +0.149 HD 
DOCKED: BRANCH  27  31
DOCKED: ATOM     31  C6  UNL     1      13.134  -6.214  -0.067 +0.00 +0.00    +0.156 C  
DOCKED: ATOM     32  C7  UNL     1      13.358  -6.985   1.227 +0.00 +0.00    +0.038 C  
DOCKED: BRANCH  31  35
DOCKED: ATOM     33  C5  UNL     1      14.326  -4.118   0.554 +0.00 +0.00    +0.242 C  
DOCKED: ATOM     34  O2  UNL     1      13.582  -3.893   1.501 +0.00 -0.00    -0.273 OA 
DOCKED: ATOM     35  N1  UNL     1      14.168  -5.212  -0.267 +0.00 -0.00    -0.302 N  
DOCKED: ATOM     36  H10 UNL     1      14.848  -5.362  -1.013 +0.00 +0.00    +0.150 HD 
DOCKED: BRANCH  33  37
DOCKED: ATOM     37  C4  UNL     1      15.543  -3.247   0.161 +0.00 +0.00    +0.202 C  
DOCKED: BRANCH  37  39
DOCKED: ATOM     38  C1  UNL     1      17.991  -2.999   0.912 +0.00 +0.00    +0.010 C  
DOCKED: ATOM     39  C2  UNL     1      16.927  -3.914   0.299 +0.00 +0.00    +0.020 C  
DOCKED: ATOM     40  C3  UNL     1      16.859  -5.239   1.060 +0.00 +0.00    +0.010 C  
DOCKED: ENDBRANCH  37  39
DOCKED: BRANCH  37  41
DOCKED: ATOM     41  O1  UNL     1      15.524  -2.018   0.897 +0.00 -0.00    -0.382 OA 
DOCKED: ATOM     42  H9  UNL     1      14.655  -1.956   1.331 +0.00 +0.00    +0.210 HD 
DOCKED: ENDBRANCH  37  41
DOCKED: ENDBRANCH  33  37
DOCKED: ENDBRANCH  31  35
DOCKED: ENDBRANCH  27  31
DOCKED: ENDBRANCH  26  29
DOCKED: BRANCH  26  43
DOCKED: ATOM     43  C10 UNL     1       8.925  -5.577   1.653 +0.00 +0.00    +0.060 C  
DOCKED: BRANCH  43  44
DOCKED: ATOM     44  C11 UNL     1       9.331  -6.848   2.359 +0.00 -0.00    -0.046 A  
DOCKED: ATOM     45  C12 UNL     1       9.333  -6.908   3.758 +0.00 +0.00    +0.004 A  
DOCKED: ATOM     46  C13 UNL     1       9.694  -8.084   4.415 +0.00 +0.00    +0.000 A  
DOCKED: ATOM     47  C14 UNL     1      10.043  -9.214   3.682 +0.00 +0.00    +0.000 A  
DOCKED: ATOM     48  C15 UNL     1      10.021  -9.176   2.291 +0.00 +0.00    +0.000 A  
DOCKED: ATOM     49  C16 UNL     1       9.657  -8.003   1.632 +0.00 +0.00    +0.004 A  
DOCKED: ENDBRANCH  43  44
DOCKED: ENDBRANCH  26  43
DOCKED: ENDBRANCH   1  26
DOCKED: TORSDOF 18
DOCKED: TER
DOCKED: ENDMDL
________________________________________________________________________________


    FINAL DOCKED STATE:
    ________________________


Run:   20 / 20
Time taken for this run:   0.463s

DOCKED: MODEL        20
DOCKED: USER    Run = 20
DOCKED: USER
DOCKED: USER    Estimated Free Energy of Binding    =  +5.37 kcal/mol  [=(1)+(2)+(3)-(4)]
DOCKED: USER
DOCKED: USER    (1) Final Intermolecular Energy     =  +0.00 kcal/mol
DOCKED: USER        vdW + Hbond + desolv Energy     =  +0.00 kcal/mol
DOCKED: USER        Electrostatic Energy            =  +0.00 kcal/mol
DOCKED: USER        Moving Ligand-Fixed Receptor    =  +0.00 kcal/mol
DOCKED: USER        Moving Ligand-Moving Receptor   =  +0.00 kcal/mol
DOCKED: USER    (2) Final Total Internal Energy     = -12.33 kcal/mol
DOCKED: USER    (3) Torsional Free Energy           =  +5.37 kcal/mol
DOCKED: USER    (4) Unbound System's Energy         = -12.33 kcal/mol
DOCKED: USER
DOCKED: USER
DOCKED: REMARK  Name = ligands/ligand_9.pdb
DOCKED: REMARK  24 active torsions:
DOCKED: REMARK  status: ('A' for Active; 'I' for Inactive)
DOCKED: REMARK    1  A    between atoms: C1_1  and  C2_2
DOCKED: REMARK    2  A    between atoms: C2_2  and  C3_3
DOCKED: REMARK    3  A    between atoms: C2_2  and  C4_4
DOCKED: REMARK    4  A    between atoms: C4_4  and  O1_5
DOCKED: REMARK    5  A    between atoms: C4_4  and  C5_6
DOCKED: REMARK    6  A    between atoms: N1_8  and  C6_9
DOCKED: REMARK    7  A    between atoms: C6_9  and  C7_10
DOCKED: REMARK    8  A    between atoms: C6_9  and  C8_11
DOCKED: REMARK    9  A    between atoms: N2_13  and  C9_14
DOCKED: REMARK   10  A    between atoms: C9_14  and  C10_15
DOCKED: REMARK   11  A    between atoms: C9_14  and  C17_22
DOCKED: REMARK   12  A    between atoms: C10_15  and  C11_16
DOCKED: REMARK   13  A    between atoms: C17_22  and  O4_23
DOCKED: REMARK   14  A    between atoms: C17_22  and  C18_24
DOCKED: REMARK   15  A    between atoms: C18_24  and  C19_25
DOCKED: REMARK   16  A    between atoms: C19_25  and  C20_26
DOCKED: REMARK   17  A    between atoms: C19_25  and  C21_27
DOCKED: REMARK   18  A    between atoms: N3_29  and  C22_30
DOCKED: REMARK   19  A    between atoms: C22_30  and  C23_31
DOCKED: REMARK   20  A    between atoms: C22_30  and  C31_41
DOCKED: REMARK   21  A    between atoms: N4_33  and  C24_34
DOCKED: REMARK   22  A    between atoms: C24_34  and  C25_35
DOCKED: REMARK   23  A    between atoms: C31_41  and  C32_42
DOCKED: REMARK   24  A    between atoms: C31_41  and  C33_43
DOCKED: REMARK                            x       y       z     vdW  Elec       q    Type
DOCKED: REMARK                         _______ _______ _______ _____ _____    ______ ____
DOCKED: USER                              x       y       z     vdW  Elec       q    Type
DOCKED: USER                           _______ _______ _______ _____ _____    ______ ____
DOCKED: ROOT
DOCKED: ATOM      1  C17 UNL     1       9.078  -5.294  -6.615 +0.00 +0.00    +0.136 C  
DOCKED: ENDROOT
DOCKED: BRANCH   1   2
DOCKED: ATOM      2  O4  UNL     1       8.573  -6.551  -6.127 +0.00 -0.00    -0.390 OA 
DOCKED: ATOM      3  H25 UNL     1       8.063  -6.364  -5.319 +0.00 +0.00    +0.210 HD 
DOCKED: ENDBRANCH   1   2
DOCKED: BRANCH   1   4
DOCKED: ATOM      4  C18 UNL     1       7.980  -4.696  -7.510 +0.00 +0.00    +0.045 C  
DOCKED: BRANCH   4   5
DOCKED: ATOM      5  C19 UNL     1       6.671  -4.246  -6.843 +0.00 +0.00    +0.074 C  
DOCKED: ATOM      6  C20 UNL     1       5.597  -3.880  -7.871 +0.00 +0.00    +0.017 C  
DOCKED: BRANCH   5   7
DOCKED: ATOM      7  C21 UNL     1       6.147  -5.382  -5.959 +0.00 +0.00    +0.217 C  
DOCKED: ATOM      8  O5  UNL     1       6.419  -5.481  -4.766 +0.00 -0.00    -0.276 OA 
DOCKED: ATOM      9  N3  UNL     1       5.314  -6.271  -6.592 +0.00 -0.00    -0.304 N  
DOCKED: ATOM     10  H32 UNL     1       5.138  -6.208  -7.594 +0.00 +0.00    +0.149 HD 
DOCKED: BRANCH   9  11
DOCKED: ATOM     11  C22 UNL     1       4.681  -7.381  -5.877 +0.00 +0.00    +0.161 C  
DOCKED: BRANCH  11  12
DOCKED: ATOM     12  C23 UNL     1       5.636  -8.589  -5.940 +0.00 +0.00    +0.234 C  
DOCKED: ATOM     13  O6  UNL     1       5.344  -9.618  -6.548 +0.00 -0.00    -0.274 OA 
DOCKED: ATOM     14  N4  UNL     1       6.823  -8.436  -5.262 +0.00 -0.00    -0.310 N  
DOCKED: ATOM     15  H34 UNL     1       7.075  -7.528  -4.896 +0.00 +0.00    +0.149 HD 
DOCKED: BRANCH  14  16
DOCKED: ATOM     16  C24 UNL     1       7.865  -9.439  -5.314 +0.00 +0.00    +0.139 C  
DOCKED: BRANCH  16  17
DOCKED: ATOM     17  C25 UNL     1       8.873  -9.310  -4.195 +0.00 -0.00    -0.030 A  
DOCKED: ATOM     18  C26 UNL     1       9.486 -10.425  -3.601 +0.00 +0.00    +0.005 A  
DOCKED: ATOM     19  C27 UNL     1      10.388 -10.268  -2.546 +0.00 +0.00    +0.000 A  
DOCKED: ATOM     20  C28 UNL     1      10.672  -8.994  -2.053 +0.00 +0.00    +0.000 A  
DOCKED: ATOM     21  C29 UNL     1      10.053  -7.878  -2.614 +0.00 +0.00    +0.000 A  
DOCKED: ATOM     22  C30 UNL     1       9.159  -8.034  -3.674 +0.00 +0.00    +0.005 A  
DOCKED: ENDBRANCH  16  17
DOCKED: ENDBRANCH  14  16
DOCKED: ENDBRANCH  11  12
DOCKED: BRANCH  11  23
DOCKED: ATOM     23  C31 UNL     1       3.269  -7.669  -6.440 +0.00 +0.00    +0.012 C  
DOCKED: ATOM     24  C32 UNL     1       2.575  -6.406  -6.957 +0.00 +0.00    +0.009 C  
DOCKED: ATOM     25  C33 UNL     1       2.364  -8.395  -5.439 +0.00 +0.00    +0.009 C  
DOCKED: ENDBRANCH  11  23
DOCKED: ENDBRANCH   9  11
DOCKED: ENDBRANCH   5   7
DOCKED: ENDBRANCH   4   5
DOCKED: ENDBRANCH   1   4
DOCKED: BRANCH   1  26
DOCKED: ATOM     26  C9  UNL     1       9.590  -4.479  -5.393 +0.00 +0.00    +0.106 C  
DOCKED: BRANCH  26  29
DOCKED: ATOM     27  C8  UNL     1       9.060  -4.065  -2.993 +0.00 +0.00    +0.233 C  
DOCKED: ATOM     28  O3  UNL     1       9.587  -2.953  -2.991 +0.00 -0.00    -0.274 OA 
DOCKED: ATOM     29  N2  UNL     1       8.964  -4.849  -4.123 +0.00 -0.00    -0.308 N  
DOCKED: ATOM     30  H15 UNL     1       8.457  -5.722  -4.076 +0.00 +0.00    +0.149 HD 
DOCKED: BRANCH  27  31
DOCKED: ATOM     31  C6  UNL     1       8.450  -4.688  -1.722 +0.00 +0.00    +0.156 C  
DOCKED: ATOM     32  C7  UNL     1       9.540  -5.179  -0.780 +0.00 +0.00    +0.038 C  
DOCKED: BRANCH  31  35
DOCKED: ATOM     33  C5  UNL     1       6.959  -6.615  -1.215 +0.00 +0.00    +0.242 C  
DOCKED: ATOM     34  O2  UNL     1       7.140  -6.527  -0.006 +0.00 -0.00    -0.273 OA 
DOCKED: ATOM     35  N1  UNL     1       7.569  -5.774  -2.118 +0.00 -0.00    -0.302 N  
DOCKED: ATOM     36  H10 UNL     1       7.342  -5.875  -3.108 +0.00 +0.00    +0.150 HD 
DOCKED: BRANCH  33  37
DOCKED: ATOM     37  C4  UNL     1       6.019  -7.639  -1.895 +0.00 +0.00    +0.202 C  
DOCKED: BRANCH  37  39
DOCKED: ATOM     38  C1  UNL     1       6.818  -9.643  -0.493 +0.00 +0.00    +0.010 C  
DOCKED: ATOM     39  C2  UNL     1       6.497  -9.106  -1.891 +0.00 +0.00    +0.020 C  
DOCKED: ATOM     40  C3  UNL     1       5.520 -10.036  -2.611 +0.00 +0.00    +0.010 C  
DOCKED: ENDBRANCH  37  39
DOCKED: BRANCH  37  41
DOCKED: ATOM     41  O1  UNL     1       5.737  -7.228  -3.238 +0.00 -0.00    -0.382 OA 
DOCKED: ATOM     42  H9  UNL     1       5.642  -6.260  -3.229 +0.00 +0.00    +0.210 HD 
DOCKED: ENDBRANCH  37  41
DOCKED: ENDBRANCH  33  37
DOCKED: ENDBRANCH  31  35
DOCKED: ENDBRANCH  27  31
DOCKED: ENDBRANCH  26  29
DOCKED: BRANCH  26  43
DOCKED: ATOM     43  C10 UNL     1      11.125  -4.292  -5.273 +0.00 +0.00    +0.060 C  
DOCKED: BRANCH  43  44
DOCKED: ATOM     44  C11 UNL     1      11.933  -5.436  -4.711 +0.00 -0.00    -0.046 A  
DOCKED: ATOM     45  C12 UNL     1      12.539  -5.322  -3.453 +0.00 +0.00    +0.004 A  
DOCKED: ATOM     46  C13 UNL     1      13.276  -6.380  -2.924 +0.00 +0.00    +0.000 A  
DOCKED: ATOM     47  C14 UNL     1      13.403  -7.568  -3.638 +0.00 +0.00    +0.000 A  
DOCKED: ATOM     48  C15 UNL     1      12.785  -7.705  -4.877 +0.00 +0.00    +0.000 A  
DOCKED: ATOM     49  C16 UNL     1      12.045  -6.649  -5.407 +0.00 +0.00    +0.004 A  
DOCKED: ENDBRANCH  43  44
DOCKED: ENDBRANCH  26  43
DOCKED: ENDBRANCH   1  26
DOCKED: TORSDOF 18
DOCKED: TER
DOCKED: ENDMDL
________________________________________________________________________________


    CLUSTERING HISTOGRAM
    ____________________


________________________________________________________________________________
     |           |     |           |     |
Clus | Lowest    | Run | Mean      | Num | Histogram
-ter | Binding   |     | Binding   | in  |
Rank | Energy    |     | Energy    | Clus|    5    10   15   20   25   30   35
_____|___________|_____|___________|_____|____:____|____:____|____:____|____:___
   1 |     +5.37 |   1 |     +5.37 |   1 |#
   2 |     +5.37 |   2 |     +5.37 |   1 |#
   3 |     +5.37 |   3 |     +5.37 |   1 |#
   4 |     +5.37 |   4 |     +5.37 |   1 |#
   5 |     +5.37 |   5 |     +5.37 |   1 |#
   6 |     +5.37 |   6 |     +5.37 |   1 |#
   7 |     +5.37 |   7 |     +5.37 |   1 |#
   8 |     +5.37 |   8 |     +5.37 |   1 |#
   9 |     +5.37 |   9 |     +5.37 |   1 |#
  10 |     +5.37 |  10 |     +5.37 |   1 |#
  11 |     +5.37 |  11 |     +5.37 |   1 |#
  12 |     +5.37 |  12 |     +5.37 |   1 |#
  13 |     +5.37 |  13 |     +5.37 |   1 |#
  14 |     +5.37 |  14 |     +5.37 |   1 |#
  15 |     +5.37 |  15 |     +5.37 |   1 |#
  16 |     +5.37 |  16 |     +5.37 |   1 |#
  17 |     +5.37 |  17 |     +5.37 |   1 |#
  18 |     +5.37 |  18 |     +5.37 |   1 |#
  19 |     +5.37 |  19 |     +5.37 |   1 |#
  20 |     +5.37 |  20 |     +5.37 |   1 |#
_____|___________|_____|___________|_____|______________________________________


    RMSD TABLE
    __________


_______________________________________________________________________
     |      |      |           |         |                 |
Rank | Sub- | Run  | Binding   | Cluster | Reference       | Grep
     | Rank |      | Energy    | RMSD    | RMSD            | Pattern
_____|______|______|___________|_________|_________________|___________
   1      1      1       +5.37      0.00     14.69           RANKING
   2      1      2       +5.37      0.00      7.51           RANKING
   3      1      3       +5.37      0.00      7.96           RANKING
   4      1      4       +5.37      0.00      6.22           RANKING
   5      1      5       +5.37      0.00     10.21           RANKING
   6      1      6       +5.37      0.00     10.96           RANKING
   7      1      7       +5.37      0.00      9.44           RANKING
   8      1      8       +5.37      0.00      8.52           RANKING
   9      1      9       +5.37      0.00     10.15           RANKING
  10      1     10       +5.37      0.00     10.69           RANKING
  11      1     11       +5.37      0.00      7.53           RANKING
  12      1     12       +5.37      0.00      8.21           RANKING
  13      1     13       +5.37      0.00      7.06           RANKING
  14      1     14       +5.37      0.00     12.52           RANKING
  15      1     15       +5.37      0.00      6.62           RANKING
  16      1     16       +5.37      0.00     14.79           RANKING
  17      1     17       +5.37      0.00      8.62           RANKING
  18      1     18       +5.37      0.00      8.54           RANKING
  19      1     19       +5.37      0.00     11.36           RANKING
  20      1     20       +5.37      0.00      9.88           RANKING

Run time 9.410 sec
Idle time 0.325 sec
