AutoDock-GPU version: v1.6

**********************************************************
**    AutoDock-GPU AUTODOCKTOOLS-COMPATIBLE DLG FILE    **
**********************************************************


    DOCKING PARAMETERS
    ________________________


Ligand file:                               ligands/ligand_23.pdbqt
Grid fld file:                             protein.maps.fld

Random seed:                               1770972821, 28669
Number of runs:                            20
Number of energy evaluations:              10503056
Number of generations:                     42000
Size of population:                        150
Rate of crossover:                         80.000000%
Tournament selection probability limit:    60.000000%
Rate of mutation:                          2.000000%
Maximal allowed delta movement:            +/- 6.000000A
Maximal allowed delta angle:               +/- 90.000000

Rate of local search:                      100.000000%
Maximal number of local search iterations: 300
Rho lower bound:                           0.010000
Spread of local search delta movement:     2.000000A
Spread of local search delta angle:        74.999999
Limit of consecutive successes/failures:   4

Handle symmetry during clustering:         YES
RMSD tolerance:                            2.000000A

Program call in command line was:          ./autodock-gpu --ffile protein.maps.fld --lfile ligands/ligand_23.pdbqt --nrun 20 


    GRID PARAMETERS
    ________________________


Receptor name:                             #MACROMOLECULE
Number of grid points (x, y, z):           61, 61, 61
Grid center (x, y, z):                     10.261000, -3.492000, -0.127000A
Grid size (x, y, z):                       22.500000, 22.500000, 22.500000A
Grid spacing:                              0.375000A


    LIGAND PARAMETERS
    ________________________


Ligand name:                               ligands/ligand_23
Number of atoms:                           59
Number of rotatable bonds:                 23
Number of atom types:                      7


    DUMMY DATA (only for ADT-compatibility)
    ________________________


DPF> outlev 1
DPF> ga_run 20
DPF> fld protein.maps.fld
DPF> move ligands/ligand_23.pdbqt


    COUNTER STATES
    ________________________


Number of energy evaluations performed:    7394569
Number of generations used:                295


    INPUT LIGAND PDBQT FILE:
    ________________________


INPUT-LIGAND-PDBQT: REMARK  Name = ligands/ligand_23.pdb
INPUT-LIGAND-PDBQT: REMARK  32 active torsions:
INPUT-LIGAND-PDBQT: REMARK  status: ('A' for Active; 'I' for Inactive)
INPUT-LIGAND-PDBQT: REMARK    1  A    between atoms: C1_1  and  S1_2
INPUT-LIGAND-PDBQT: REMARK    2  A    between atoms: S1_2  and  C2_3
INPUT-LIGAND-PDBQT: REMARK    3  A    between atoms: C2_3  and  C3_4
INPUT-LIGAND-PDBQT: REMARK    4  A    between atoms: C3_4  and  C4_5
INPUT-LIGAND-PDBQT: REMARK    5  A    between atoms: C4_5  and  N1_6
INPUT-LIGAND-PDBQT: REMARK    6  A    between atoms: C4_5  and  C15_21
INPUT-LIGAND-PDBQT: REMARK    7  A    between atoms: C5_7  and  C6_9
INPUT-LIGAND-PDBQT: REMARK    8  A    between atoms: C6_9  and  N2_10
INPUT-LIGAND-PDBQT: REMARK    9  A    between atoms: C6_9  and  C12_18
INPUT-LIGAND-PDBQT: REMARK   10  A    between atoms: C7_11  and  O3_13
INPUT-LIGAND-PDBQT: REMARK   11  A    between atoms: O3_13  and  C8_14
INPUT-LIGAND-PDBQT: REMARK   12  A    between atoms: C8_14  and  C9_15
INPUT-LIGAND-PDBQT: REMARK   13  A    between atoms: C8_14  and  C10_16
INPUT-LIGAND-PDBQT: REMARK   14  A    between atoms: C8_14  and  C11_17
INPUT-LIGAND-PDBQT: REMARK   15  A    between atoms: C12_18  and  C13_19
INPUT-LIGAND-PDBQT: REMARK   16  A    between atoms: C12_18  and  C14_20
INPUT-LIGAND-PDBQT: REMARK   17  A    between atoms: N3_23  and  C16_24
INPUT-LIGAND-PDBQT: REMARK   18  A    between atoms: C16_24  and  C17_25
INPUT-LIGAND-PDBQT: REMARK   19  A    between atoms: C16_24  and  C24_32
INPUT-LIGAND-PDBQT: REMARK   20  A    between atoms: C17_25  and  C18_26
INPUT-LIGAND-PDBQT: REMARK   21  A    between atoms: C24_32  and  O5_33
INPUT-LIGAND-PDBQT: REMARK   22  A    between atoms: C24_32  and  C25_34
INPUT-LIGAND-PDBQT: REMARK   23  A    between atoms: C25_34  and  C26_35
INPUT-LIGAND-PDBQT: REMARK   24  A    between atoms: C26_35  and  C27_36
INPUT-LIGAND-PDBQT: REMARK   25  A    between atoms: C26_35  and  C28_37
INPUT-LIGAND-PDBQT: REMARK   26  A    between atoms: N4_39  and  C29_40
INPUT-LIGAND-PDBQT: REMARK   27  A    between atoms: C29_40  and  C30_41
INPUT-LIGAND-PDBQT: REMARK   28  A    between atoms: C29_40  and  C37_51
INPUT-LIGAND-PDBQT: REMARK   29  A    between atoms: N5_43  and  C31_44
INPUT-LIGAND-PDBQT: REMARK   30  A    between atoms: C31_44  and  C32_45
INPUT-LIGAND-PDBQT: REMARK   31  A    between atoms: C37_51  and  C38_52
INPUT-LIGAND-PDBQT: REMARK   32  A    between atoms: C37_51  and  C39_53
INPUT-LIGAND-PDBQT: REMARK                            x       y       z     vdW  Elec       q    Type
INPUT-LIGAND-PDBQT: REMARK                         _______ _______ _______ _____ _____    ______ ____
INPUT-LIGAND-PDBQT: ROOT
INPUT-LIGAND-PDBQT: ATOM      1  C16 UNL     1      -0.822  -2.177  -1.437  0.00  0.00    +0.106 C 
INPUT-LIGAND-PDBQT: ENDROOT
INPUT-LIGAND-PDBQT: BRANCH   1   4
INPUT-LIGAND-PDBQT: ATOM      2  C15 UNL     1      -0.143   0.091  -2.225  0.00  0.00    +0.234 C 
INPUT-LIGAND-PDBQT: ATOM      3  O4  UNL     1      -1.287   0.526  -2.239  0.00  0.00    -0.274 OA
INPUT-LIGAND-PDBQT: ATOM      4  N3  UNL     1       0.156  -1.226  -1.980  0.00  0.00    -0.308 N 
INPUT-LIGAND-PDBQT: ATOM      5  H28 UNL     1       1.131  -1.450  -1.831  0.00  0.00    +0.149 HD
INPUT-LIGAND-PDBQT: BRANCH   2   6
INPUT-LIGAND-PDBQT: ATOM      6  C4  UNL     1       1.071   0.963  -2.619  0.00  0.00    +0.160 C 
INPUT-LIGAND-PDBQT: BRANCH   6   7
INPUT-LIGAND-PDBQT: ATOM      7  N1  UNL     1       2.350   0.453  -2.079  0.00  0.00    -0.302 N 
INPUT-LIGAND-PDBQT: ATOM      8  C5  UNL     1       2.592   0.478  -0.721  0.00  0.00    +0.234 C 
INPUT-LIGAND-PDBQT: ATOM      9  O1  UNL     1       1.655   0.507   0.083  0.00  0.00    -0.274 OA
INPUT-LIGAND-PDBQT: ATOM     10  H9  UNL     1       3.139   0.541  -2.699  0.00  0.00    +0.150 HD
INPUT-LIGAND-PDBQT: BRANCH   8  11
INPUT-LIGAND-PDBQT: ATOM     11  C6  UNL     1       4.049   0.236  -0.251  0.00  0.00    +0.165 C 
INPUT-LIGAND-PDBQT: BRANCH  11  12
INPUT-LIGAND-PDBQT: ATOM     12  N2  UNL     1       4.216  -1.202  -0.083  0.00  0.00    -0.270 N 
INPUT-LIGAND-PDBQT: ATOM     13  C7  UNL     1       4.244  -1.784   1.147  0.00  0.00    +0.401 C 
INPUT-LIGAND-PDBQT: ATOM     14  O2  UNL     1       4.356  -1.185   2.203  0.00  0.00    -0.226 OA
INPUT-LIGAND-PDBQT: ATOM     15  H11 UNL     1       4.003  -1.838  -0.839  0.00  0.00    +0.153 HD
INPUT-LIGAND-PDBQT: BRANCH  13  16
INPUT-LIGAND-PDBQT: ATOM     16  O3  UNL     1       4.142  -3.119   0.987  0.00  0.00    -0.445 OA
INPUT-LIGAND-PDBQT: BRANCH  16  17
INPUT-LIGAND-PDBQT: ATOM     17  C8  UNL     1       4.148  -4.002   2.136  0.00  0.00    +0.107 C 
INPUT-LIGAND-PDBQT: ATOM     18  C9  UNL     1       5.484  -3.938   2.883  0.00  0.00    +0.055 C 
INPUT-LIGAND-PDBQT: ATOM     19  C10 UNL     1       3.977  -5.412   1.546  0.00  0.00    +0.055 C 
INPUT-LIGAND-PDBQT: ATOM     20  C11 UNL     1       2.969  -3.709   3.080  0.00  0.00    +0.055 C 
INPUT-LIGAND-PDBQT: ENDBRANCH  16  17
INPUT-LIGAND-PDBQT: ENDBRANCH  13  16
INPUT-LIGAND-PDBQT: ENDBRANCH  11  12
INPUT-LIGAND-PDBQT: BRANCH  11  21
INPUT-LIGAND-PDBQT: ATOM     21  C12 UNL     1       5.222   0.872  -1.034  0.00  0.00    +0.012 C 
INPUT-LIGAND-PDBQT: ATOM     22  C13 UNL     1       5.725   0.065  -2.238  0.00  0.00    +0.009 C 
INPUT-LIGAND-PDBQT: ATOM     23  C14 UNL     1       4.963   2.333  -1.417  0.00  0.00    +0.009 C 
INPUT-LIGAND-PDBQT: ENDBRANCH  11  21
INPUT-LIGAND-PDBQT: ENDBRANCH   8  11
INPUT-LIGAND-PDBQT: ENDBRANCH   6   7
INPUT-LIGAND-PDBQT: BRANCH   6  24
INPUT-LIGAND-PDBQT: ATOM     24  C3  UNL     1       1.185   1.049  -4.148  0.00  0.00    +0.042 C 
INPUT-LIGAND-PDBQT: BRANCH  24  25
INPUT-LIGAND-PDBQT: ATOM     25  C2  UNL     1       0.022   1.819  -4.774  0.00  0.00    +0.071 C 
INPUT-LIGAND-PDBQT: BRANCH  25  27
INPUT-LIGAND-PDBQT: ATOM     26  C1  UNL     1       1.438   3.542  -6.431  0.00  0.00    +0.084 C 
INPUT-LIGAND-PDBQT: ATOM     27  S1  UNL     1       0.321   2.120  -6.547  0.00  0.00    -0.164 S 
INPUT-LIGAND-PDBQT: ENDBRANCH  25  27
INPUT-LIGAND-PDBQT: ENDBRANCH  24  25
INPUT-LIGAND-PDBQT: ENDBRANCH   6  24
INPUT-LIGAND-PDBQT: ENDBRANCH   2   6
INPUT-LIGAND-PDBQT: ENDBRANCH   1   4
INPUT-LIGAND-PDBQT: BRANCH   1  28
INPUT-LIGAND-PDBQT: ATOM     28  C17 UNL     1      -0.477  -3.604  -1.922  0.00  0.00    +0.060 C 
INPUT-LIGAND-PDBQT: BRANCH  28  29
INPUT-LIGAND-PDBQT: ATOM     29  C18 UNL     1      -0.372  -3.735  -3.426  0.00  0.00    -0.046 A 
INPUT-LIGAND-PDBQT: ATOM     30  C19 UNL     1      -1.450  -3.393  -4.256  0.00  0.00    +0.004 A 
INPUT-LIGAND-PDBQT: ATOM     31  C20 UNL     1      -1.339  -3.506  -5.644  0.00  0.00    +0.000 A 
INPUT-LIGAND-PDBQT: ATOM     32  C21 UNL     1      -0.156  -3.971  -6.219  0.00  0.00    +0.000 A 
INPUT-LIGAND-PDBQT: ATOM     33  C22 UNL     1       0.917  -4.334  -5.408  0.00  0.00    +0.000 A 
INPUT-LIGAND-PDBQT: ATOM     34  C23 UNL     1       0.808  -4.218  -4.019  0.00  0.00    +0.004 A 
INPUT-LIGAND-PDBQT: ENDBRANCH  28  29
INPUT-LIGAND-PDBQT: ENDBRANCH   1  28
INPUT-LIGAND-PDBQT: BRANCH   1  35
INPUT-LIGAND-PDBQT: ATOM     35  C24 UNL     1      -0.817  -2.140   0.122  0.00  0.00    +0.136 C 
INPUT-LIGAND-PDBQT: BRANCH  35  36
INPUT-LIGAND-PDBQT: ATOM     36  O5  UNL     1       0.545  -2.184   0.571  0.00  0.00    -0.390 OA
INPUT-LIGAND-PDBQT: ATOM     37  H38 UNL     1       0.891  -1.267   0.500  0.00  0.00    +0.210 HD
INPUT-LIGAND-PDBQT: ENDBRANCH  35  36
INPUT-LIGAND-PDBQT: BRANCH  35  38
INPUT-LIGAND-PDBQT: ATOM     38  C25 UNL     1      -1.536  -0.908   0.699  0.00  0.00    +0.045 C 
INPUT-LIGAND-PDBQT: BRANCH  38  39
INPUT-LIGAND-PDBQT: ATOM     39  C26 UNL     1      -1.737  -0.946   2.232  0.00  0.00    +0.074 C 
INPUT-LIGAND-PDBQT: ATOM     40  C27 UNL     1      -0.435  -0.886   3.041  0.00  0.00    +0.017 C 
INPUT-LIGAND-PDBQT: BRANCH  39  41
INPUT-LIGAND-PDBQT: ATOM     41  C28 UNL     1      -2.645   0.186   2.720  0.00  0.00    +0.217 C 
INPUT-LIGAND-PDBQT: ATOM     42  O6  UNL     1      -3.620  -0.013   3.443  0.00  0.00    -0.276 OA
INPUT-LIGAND-PDBQT: ATOM     43  N4  UNL     1      -2.245   1.452   2.363  0.00  0.00    -0.304 N 
INPUT-LIGAND-PDBQT: ATOM     44  H45 UNL     1      -1.693   1.551   1.515  0.00  0.00    +0.149 HD
INPUT-LIGAND-PDBQT: BRANCH  43  45
INPUT-LIGAND-PDBQT: ATOM     45  C29 UNL     1      -2.970   2.636   2.798  0.00  0.00    +0.161 C 
INPUT-LIGAND-PDBQT: BRANCH  45  46
INPUT-LIGAND-PDBQT: ATOM     46  C30 UNL     1      -4.258   2.782   1.950  0.00  0.00    +0.234 C 
INPUT-LIGAND-PDBQT: ATOM     47  O7  UNL     1      -4.297   3.319   0.846  0.00  0.00    -0.274 OA
INPUT-LIGAND-PDBQT: ATOM     48  N5  UNL     1      -5.347   2.182   2.547  0.00  0.00    -0.310 N 
INPUT-LIGAND-PDBQT: ATOM     49  H47 UNL     1      -5.123   1.480   3.256  0.00  0.00    +0.149 HD
INPUT-LIGAND-PDBQT: BRANCH  48  50
INPUT-LIGAND-PDBQT: ATOM     50  C31 UNL     1      -6.644   2.093   1.926  0.00  0.00    +0.139 C 
INPUT-LIGAND-PDBQT: BRANCH  50  51
INPUT-LIGAND-PDBQT: ATOM     51  C32 UNL     1      -6.897   0.766   1.258  0.00  0.00    -0.027 A 
INPUT-LIGAND-PDBQT: ATOM     52  C33 UNL     1      -7.386   0.711  -0.055  0.00  0.00    +0.025 A 
INPUT-LIGAND-PDBQT: ATOM     53  C34 UNL     1      -7.660  -0.532  -0.614  0.00  0.00    +0.111 A 
INPUT-LIGAND-PDBQT: ATOM     54  N6  UNL     1      -7.512  -1.703   0.041  0.00  0.00    -0.263 NA
INPUT-LIGAND-PDBQT: ATOM     55  C35 UNL     1      -7.036  -1.626   1.302  0.00  0.00    +0.111 A 
INPUT-LIGAND-PDBQT: ATOM     56  C36 UNL     1      -6.719  -0.439   1.944  0.00  0.00    +0.025 A 
INPUT-LIGAND-PDBQT: ENDBRANCH  50  51
INPUT-LIGAND-PDBQT: ENDBRANCH  48  50
INPUT-LIGAND-PDBQT: ENDBRANCH  45  46
INPUT-LIGAND-PDBQT: BRANCH  45  57
INPUT-LIGAND-PDBQT: ATOM     57  C37 UNL     1      -2.102   3.919   2.770  0.00  0.00    +0.012 C 
INPUT-LIGAND-PDBQT: ATOM     58  C38 UNL     1      -1.182   3.974   3.997  0.00  0.00    +0.009 C 
INPUT-LIGAND-PDBQT: ATOM     59  C39 UNL     1      -1.267   4.094   1.500  0.00  0.00    +0.009 C 
INPUT-LIGAND-PDBQT: ENDBRANCH  45  57
INPUT-LIGAND-PDBQT: ENDBRANCH  43  45
INPUT-LIGAND-PDBQT: ENDBRANCH  39  41
INPUT-LIGAND-PDBQT: ENDBRANCH  38  39
INPUT-LIGAND-PDBQT: ENDBRANCH  35  38
INPUT-LIGAND-PDBQT: ENDBRANCH   1  35
INPUT-LIGAND-PDBQT: TORSDOF 23


    FINAL DOCKED STATE:
    ________________________


Run:   1 / 20
Time taken for this run:   2.355s

DOCKED: MODEL        1
DOCKED: USER    Run = 1
DOCKED: USER
DOCKED: USER    Estimated Free Energy of Binding    =  +6.86 kcal/mol  [=(1)+(2)+(3)-(4)]
DOCKED: USER
DOCKED: USER    (1) Final Intermolecular Energy     =  +0.00 kcal/mol
DOCKED: USER        vdW + Hbond + desolv Energy     =  +0.00 kcal/mol
DOCKED: USER        Electrostatic Energy            =  +0.00 kcal/mol
DOCKED: USER        Moving Ligand-Fixed Receptor    =  +0.00 kcal/mol
DOCKED: USER        Moving Ligand-Moving Receptor   =  +0.00 kcal/mol
DOCKED: USER    (2) Final Total Internal Energy     = -15.46 kcal/mol
DOCKED: USER    (3) Torsional Free Energy           =  +6.86 kcal/mol
DOCKED: USER    (4) Unbound System's Energy         = -15.46 kcal/mol
DOCKED: USER
DOCKED: USER
DOCKED: REMARK  Name = ligands/ligand_23.pdb
DOCKED: REMARK  32 active torsions:
DOCKED: REMARK  status: ('A' for Active; 'I' for Inactive)
DOCKED: REMARK    1  A    between atoms: C1_1  and  S1_2
DOCKED: REMARK    2  A    between atoms: S1_2  and  C2_3
DOCKED: REMARK    3  A    between atoms: C2_3  and  C3_4
DOCKED: REMARK    4  A    between atoms: C3_4  and  C4_5
DOCKED: REMARK    5  A    between atoms: C4_5  and  N1_6
DOCKED: REMARK    6  A    between atoms: C4_5  and  C15_21
DOCKED: REMARK    7  A    between atoms: C5_7  and  C6_9
DOCKED: REMARK    8  A    between atoms: C6_9  and  N2_10
DOCKED: REMARK    9  A    between atoms: C6_9  and  C12_18
DOCKED: REMARK   10  A    between atoms: C7_11  and  O3_13
DOCKED: REMARK   11  A    between atoms: O3_13  and  C8_14
DOCKED: REMARK   12  A    between atoms: C8_14  and  C9_15
DOCKED: REMARK   13  A    between atoms: C8_14  and  C10_16
DOCKED: REMARK   14  A    between atoms: C8_14  and  C11_17
DOCKED: REMARK   15  A    between atoms: C12_18  and  C13_19
DOCKED: REMARK   16  A    between atoms: C12_18  and  C14_20
DOCKED: REMARK   17  A    between atoms: N3_23  and  C16_24
DOCKED: REMARK   18  A    between atoms: C16_24  and  C17_25
DOCKED: REMARK   19  A    between atoms: C16_24  and  C24_32
DOCKED: REMARK   20  A    between atoms: C17_25  and  C18_26
DOCKED: REMARK   21  A    between atoms: C24_32  and  O5_33
DOCKED: REMARK   22  A    between atoms: C24_32  and  C25_34
DOCKED: REMARK   23  A    between atoms: C25_34  and  C26_35
DOCKED: REMARK   24  A    between atoms: C26_35  and  C27_36
DOCKED: REMARK   25  A    between atoms: C26_35  and  C28_37
DOCKED: REMARK   26  A    between atoms: N4_39  and  C29_40
DOCKED: REMARK   27  A    between atoms: C29_40  and  C30_41
DOCKED: REMARK   28  A    between atoms: C29_40  and  C37_51
DOCKED: REMARK   29  A    between atoms: N5_43  and  C31_44
DOCKED: REMARK   30  A    between atoms: C31_44  and  C32_45
DOCKED: REMARK   31  A    between atoms: C37_51  and  C38_52
DOCKED: REMARK   32  A    between atoms: C37_51  and  C39_53
DOCKED: REMARK                            x       y       z     vdW  Elec       q    Type
DOCKED: REMARK                         _______ _______ _______ _____ _____    ______ ____
DOCKED: USER                              x       y       z     vdW  Elec       q    Type
DOCKED: USER                           _______ _______ _______ _____ _____    ______ ____
DOCKED: ROOT
DOCKED: ATOM      1  C16 UNL     1       6.482   0.347  -6.836 +0.00 +0.00    +0.106 C  
DOCKED: ENDROOT
DOCKED: BRANCH   1   4
DOCKED: ATOM      2  C15 UNL     1       6.765   1.343  -4.566 +0.00 +0.00    +0.234 C  
DOCKED: ATOM      3  O4  UNL     1       5.639   1.821  -4.538 +0.00 -0.00    -0.274 OA 
DOCKED: ATOM      4  N3  UNL     1       7.295   0.736  -5.677 +0.00 -0.00    -0.308 N  
DOCKED: ATOM      5  H28 UNL     1       8.164   0.234  -5.549 +0.00 +0.00    +0.149 HD 
DOCKED: BRANCH   2   6
DOCKED: ATOM      6  C4  UNL     1       7.753   1.500  -3.388 +0.00 +0.00    +0.160 C  
DOCKED: BRANCH   6   7
DOCKED: ATOM      7  N1  UNL     1       9.167   1.539  -3.818 +0.00 -0.00    -0.302 N  
DOCKED: ATOM      8  C5  UNL     1       9.627   2.573  -4.607 +0.00 +0.00    +0.234 C  
DOCKED: ATOM      9  O1  UNL     1       9.044   3.661  -4.618 +0.00 -0.00    -0.274 OA 
DOCKED: ATOM     10  H9  UNL     1       9.605   0.638  -3.922 +0.00 +0.00    +0.150 HD 
DOCKED: BRANCH   8  11
DOCKED: ATOM     11  C6  UNL     1      11.010   2.394  -5.283 +0.00 +0.00    +0.165 C  
DOCKED: BRANCH  11  12
DOCKED: ATOM     12  N2  UNL     1      10.805   1.592  -6.482 +0.00 -0.00    -0.270 N  
DOCKED: ATOM     13  C7  UNL     1      10.345   0.313  -6.422 +0.00 +0.00    +0.401 C  
DOCKED: ATOM     14  O2  UNL     1      10.271  -0.358  -5.406 +0.00 -0.00    -0.226 OA 
DOCKED: ATOM     15  H11 UNL     1      10.690   2.033  -7.385 +0.00 +0.00    +0.153 HD 
DOCKED: BRANCH  13  16
DOCKED: ATOM     16  O3  UNL     1      10.007  -0.076  -7.668 +0.00 -0.00    -0.445 OA 
DOCKED: BRANCH  16  17
DOCKED: ATOM     17  C8  UNL     1      10.708  -1.167  -8.315 +0.00 +0.00    +0.107 C  
DOCKED: ATOM     18  C9  UNL     1      12.201  -0.859  -8.470 +0.00 +0.00    +0.055 C  
DOCKED: ATOM     19  C10 UNL     1      10.074  -1.263  -9.713 +0.00 +0.00    +0.055 C  
DOCKED: ATOM     20  C11 UNL     1      10.489  -2.498  -7.575 +0.00 +0.00    +0.055 C  
DOCKED: ENDBRANCH  16  17
DOCKED: ENDBRANCH  13  16
DOCKED: ENDBRANCH  11  12
DOCKED: BRANCH  11  21
DOCKED: ATOM     21  C12 UNL     1      11.896   3.633  -5.555 +0.00 +0.00    +0.012 C  
DOCKED: ATOM     22  C13 UNL     1      12.081   4.585  -4.365 +0.00 +0.00    +0.009 C  
DOCKED: ATOM     23  C14 UNL     1      13.243   3.278  -6.193 +0.00 +0.00    +0.009 C  
DOCKED: ENDBRANCH  11  21
DOCKED: ENDBRANCH   8  11
DOCKED: ENDBRANCH   6   7
DOCKED: BRANCH   6  24
DOCKED: ATOM     24  C3  UNL     1       7.444   2.787  -2.608 +0.00 +0.00    +0.042 C  
DOCKED: BRANCH  24  25
DOCKED: ATOM     25  C2  UNL     1       7.100   2.510  -1.144 +0.00 +0.00    +0.071 C  
DOCKED: BRANCH  25  27
DOCKED: ATOM     26  C1  UNL     1       4.754   1.075  -1.540 +0.00 +0.00    +0.084 C  
DOCKED: ATOM     27  S1  UNL     1       6.445   0.822  -0.939 +0.00 -0.00    -0.164 S  
DOCKED: ENDBRANCH  25  27
DOCKED: ENDBRANCH  24  25
DOCKED: ENDBRANCH   6  24
DOCKED: ENDBRANCH   2   6
DOCKED: ENDBRANCH   1   4
DOCKED: BRANCH   1  28
DOCKED: ATOM     28  C17 UNL     1       6.846   1.241  -8.044 +0.00 +0.00    +0.060 C  
DOCKED: BRANCH  28  29
DOCKED: ATOM     29  C18 UNL     1       7.285   2.639  -7.665 +0.00 -0.00    -0.046 A  
DOCKED: ATOM     30  C19 UNL     1       6.416   3.509  -6.991 +0.00 +0.00    +0.004 A  
DOCKED: ATOM     31  C20 UNL     1       6.835   4.794  -6.635 +0.00 +0.00    +0.000 A  
DOCKED: ATOM     32  C21 UNL     1       8.121   5.228  -6.957 +0.00 +0.00    +0.000 A  
DOCKED: ATOM     33  C22 UNL     1       8.990   4.384  -7.644 +0.00 +0.00    +0.000 A  
DOCKED: ATOM     34  C23 UNL     1       8.573   3.097  -7.998 +0.00 +0.00    +0.004 A  
DOCKED: ENDBRANCH  28  29
DOCKED: ENDBRANCH   1  28
DOCKED: BRANCH   1  35
DOCKED: ATOM     35  C24 UNL     1       6.726  -1.149  -7.202 +0.00 +0.00    +0.136 C  
DOCKED: BRANCH  35  36
DOCKED: ATOM     36  O5  UNL     1       7.770  -1.656  -6.358 +0.00 -0.00    -0.390 OA 
DOCKED: ATOM     37  H38 UNL     1       8.465  -0.962  -6.328 +0.00 +0.00    +0.210 HD 
DOCKED: ENDBRANCH  35  36
DOCKED: BRANCH  35  38
DOCKED: ATOM     38  C25 UNL     1       5.461  -2.016  -7.076 +0.00 +0.00    +0.045 C  
DOCKED: BRANCH  38  39
DOCKED: ATOM     39  C26 UNL     1       4.330  -1.376  -6.237 +0.00 +0.00    +0.074 C  
DOCKED: ATOM     40  C27 UNL     1       2.993  -2.124  -6.305 +0.00 +0.00    +0.017 C  
DOCKED: BRANCH  39  41
DOCKED: ATOM     41  C28 UNL     1       4.717  -1.240  -4.762 +0.00 +0.00    +0.217 C  
DOCKED: ATOM     42  O6  UNL     1       3.963  -0.748  -3.923 +0.00 -0.00    -0.276 OA 
DOCKED: ATOM     43  N4  UNL     1       5.933  -1.785  -4.423 +0.00 -0.00    -0.304 N  
DOCKED: ATOM     44  H45 UNL     1       6.643  -1.842  -5.148 +0.00 +0.00    +0.149 HD 
DOCKED: BRANCH  43  45
DOCKED: ATOM     45  C29 UNL     1       6.416  -1.787  -3.050 +0.00 +0.00    +0.161 C  
DOCKED: BRANCH  45  46
DOCKED: ATOM     46  C30 UNL     1       7.961  -1.686  -3.057 +0.00 +0.00    +0.234 C  
DOCKED: ATOM     47  O7  UNL     1       8.620  -1.284  -4.012 +0.00 -0.00    -0.274 OA 
DOCKED: ATOM     48  N5  UNL     1       8.513  -2.038  -1.843 +0.00 -0.00    -0.310 N  
DOCKED: ATOM     49  H47 UNL     1       7.872  -2.003  -1.047 +0.00 +0.00    +0.149 HD 
DOCKED: BRANCH  48  50
DOCKED: ATOM     50  C31 UNL     1       9.921  -1.944  -1.553 +0.00 +0.00    +0.139 C  
DOCKED: BRANCH  50  51
DOCKED: ATOM     51  C32 UNL     1      10.460  -0.540  -1.659 +0.00 -0.00    -0.027 A  
DOCKED: ATOM     52  C33 UNL     1      11.552  -0.258  -2.492 +0.00 +0.00    +0.025 A  
DOCKED: ATOM     53  C34 UNL     1      12.055   1.038  -2.517 +0.00 +0.00    +0.111 A  
DOCKED: ATOM     54  N6  UNL     1      11.574   2.049  -1.763 +0.00 -0.00    -0.263 NA 
DOCKED: ATOM     55  C35 UNL     1      10.520   1.755  -0.972 +0.00 +0.00    +0.111 A  
DOCKED: ATOM     56  C36 UNL     1       9.937   0.500  -0.886 +0.00 +0.00    +0.025 A  
DOCKED: ENDBRANCH  50  51
DOCKED: ENDBRANCH  48  50
DOCKED: ENDBRANCH  45  46
DOCKED: BRANCH  45  57
DOCKED: ATOM     57  C37 UNL     1       5.912  -3.005  -2.235 +0.00 +0.00    +0.012 C  
DOCKED: ATOM     58  C38 UNL     1       4.708  -2.612  -1.369 +0.00 +0.00    +0.009 C  
DOCKED: ATOM     59  C39 UNL     1       5.553  -4.230  -3.079 +0.00 +0.00    +0.009 C  
DOCKED: ENDBRANCH  45  57
DOCKED: ENDBRANCH  43  45
DOCKED: ENDBRANCH  39  41
DOCKED: ENDBRANCH  38  39
DOCKED: ENDBRANCH  35  38
DOCKED: ENDBRANCH   1  35
DOCKED: TORSDOF 23
DOCKED: TER
DOCKED: ENDMDL
________________________________________________________________________________


    FINAL DOCKED STATE:
    ________________________


Run:   2 / 20
Time taken for this run:   2.355s

DOCKED: MODEL        2
DOCKED: USER    Run = 2
DOCKED: USER
DOCKED: USER    Estimated Free Energy of Binding    =  +6.86 kcal/mol  [=(1)+(2)+(3)-(4)]
DOCKED: USER
DOCKED: USER    (1) Final Intermolecular Energy     =  +0.00 kcal/mol
DOCKED: USER        vdW + Hbond + desolv Energy     =  +0.00 kcal/mol
DOCKED: USER        Electrostatic Energy            =  +0.00 kcal/mol
DOCKED: USER        Moving Ligand-Fixed Receptor    =  +0.00 kcal/mol
DOCKED: USER        Moving Ligand-Moving Receptor   =  +0.00 kcal/mol
DOCKED: USER    (2) Final Total Internal Energy     = -15.50 kcal/mol
DOCKED: USER    (3) Torsional Free Energy           =  +6.86 kcal/mol
DOCKED: USER    (4) Unbound System's Energy         = -15.50 kcal/mol
DOCKED: USER
DOCKED: USER
DOCKED: REMARK  Name = ligands/ligand_23.pdb
DOCKED: REMARK  32 active torsions:
DOCKED: REMARK  status: ('A' for Active; 'I' for Inactive)
DOCKED: REMARK    1  A    between atoms: C1_1  and  S1_2
DOCKED: REMARK    2  A    between atoms: S1_2  and  C2_3
DOCKED: REMARK    3  A    between atoms: C2_3  and  C3_4
DOCKED: REMARK    4  A    between atoms: C3_4  and  C4_5
DOCKED: REMARK    5  A    between atoms: C4_5  and  N1_6
DOCKED: REMARK    6  A    between atoms: C4_5  and  C15_21
DOCKED: REMARK    7  A    between atoms: C5_7  and  C6_9
DOCKED: REMARK    8  A    between atoms: C6_9  and  N2_10
DOCKED: REMARK    9  A    between atoms: C6_9  and  C12_18
DOCKED: REMARK   10  A    between atoms: C7_11  and  O3_13
DOCKED: REMARK   11  A    between atoms: O3_13  and  C8_14
DOCKED: REMARK   12  A    between atoms: C8_14  and  C9_15
DOCKED: REMARK   13  A    between atoms: C8_14  and  C10_16
DOCKED: REMARK   14  A    between atoms: C8_14  and  C11_17
DOCKED: REMARK   15  A    between atoms: C12_18  and  C13_19
DOCKED: REMARK   16  A    between atoms: C12_18  and  C14_20
DOCKED: REMARK   17  A    between atoms: N3_23  and  C16_24
DOCKED: REMARK   18  A    between atoms: C16_24  and  C17_25
DOCKED: REMARK   19  A    between atoms: C16_24  and  C24_32
DOCKED: REMARK   20  A    between atoms: C17_25  and  C18_26
DOCKED: REMARK   21  A    between atoms: C24_32  and  O5_33
DOCKED: REMARK   22  A    between atoms: C24_32  and  C25_34
DOCKED: REMARK   23  A    between atoms: C25_34  and  C26_35
DOCKED: REMARK   24  A    between atoms: C26_35  and  C27_36
DOCKED: REMARK   25  A    between atoms: C26_35  and  C28_37
DOCKED: REMARK   26  A    between atoms: N4_39  and  C29_40
DOCKED: REMARK   27  A    between atoms: C29_40  and  C30_41
DOCKED: REMARK   28  A    between atoms: C29_40  and  C37_51
DOCKED: REMARK   29  A    between atoms: N5_43  and  C31_44
DOCKED: REMARK   30  A    between atoms: C31_44  and  C32_45
DOCKED: REMARK   31  A    between atoms: C37_51  and  C38_52
DOCKED: REMARK   32  A    between atoms: C37_51  and  C39_53
DOCKED: REMARK                            x       y       z     vdW  Elec       q    Type
DOCKED: REMARK                         _______ _______ _______ _____ _____    ______ ____
DOCKED: USER                              x       y       z     vdW  Elec       q    Type
DOCKED: USER                           _______ _______ _______ _____ _____    ______ ____
DOCKED: ROOT
DOCKED: ATOM      1  C16 UNL     1       9.463  -5.855  -4.038 +0.00 +0.00    +0.106 C  
DOCKED: ENDROOT
DOCKED: BRANCH   1   4
DOCKED: ATOM      2  C15 UNL     1       7.260  -6.718  -3.247 +0.00 +0.00    +0.234 C  
DOCKED: ATOM      3  O4  UNL     1       7.020  -7.315  -4.288 +0.00 -0.00    -0.274 OA 
DOCKED: ATOM      4  N3  UNL     1       8.343  -5.889  -3.089 +0.00 -0.00    -0.308 N  
DOCKED: ATOM      5  H28 UNL     1       8.540  -5.574  -2.149 +0.00 +0.00    +0.149 HD 
DOCKED: BRANCH   2   6
DOCKED: ATOM      6  C4  UNL     1       6.284  -6.734  -2.048 +0.00 +0.00    +0.160 C  
DOCKED: BRANCH   6   7
DOCKED: ATOM      7  N1  UNL     1       6.330  -5.492  -1.246 +0.00 -0.00    -0.302 N  
DOCKED: ATOM      8  C5  UNL     1       5.943  -4.290  -1.802 +0.00 +0.00    +0.234 C  
DOCKED: ATOM      9  O1  UNL     1       5.177  -4.264  -2.770 +0.00 -0.00    -0.274 OA 
DOCKED: ATOM     10  H9  UNL     1       7.040  -5.473  -0.531 +0.00 +0.00    +0.150 HD 
DOCKED: BRANCH   8  11
DOCKED: ATOM     11  C6  UNL     1       6.312  -2.996  -1.033 +0.00 +0.00    +0.165 C  
DOCKED: BRANCH  11  12
DOCKED: ATOM     12  N2  UNL     1       7.699  -2.683  -1.354 +0.00 -0.00    -0.270 N  
DOCKED: ATOM     13  C7  UNL     1       8.721  -3.519  -1.021 +0.00 +0.00    +0.401 C  
DOCKED: ATOM     14  O2  UNL     1       8.631  -4.465  -0.257 +0.00 -0.00    -0.226 OA 
DOCKED: ATOM     15  H11 UNL     1       7.923  -2.025  -2.087 +0.00 +0.00    +0.153 HD 
DOCKED: BRANCH  13  16
DOCKED: ATOM     16  O3  UNL     1       9.831  -3.109  -1.666 +0.00 -0.00    -0.445 OA 
DOCKED: BRANCH  16  17
DOCKED: ATOM     17  C8  UNL     1      10.991  -2.657  -0.924 +0.00 +0.00    +0.107 C  
DOCKED: ATOM     18  C9  UNL     1      10.655  -1.448  -0.044 +0.00 +0.00    +0.055 C  
DOCKED: ATOM     19  C10 UNL     1      11.999  -2.221  -2.001 +0.00 +0.00    +0.055 C  
DOCKED: ATOM     20  C11 UNL     1      11.609  -3.795  -0.093 +0.00 +0.00    +0.055 C  
DOCKED: ENDBRANCH  16  17
DOCKED: ENDBRANCH  13  16
DOCKED: ENDBRANCH  11  12
DOCKED: BRANCH  11  21
DOCKED: ATOM     21  C12 UNL     1       5.395  -1.755  -1.137 +0.00 +0.00    +0.012 C  
DOCKED: ATOM     22  C13 UNL     1       3.891  -2.036  -1.025 +0.00 +0.00    +0.009 C  
DOCKED: ATOM     23  C14 UNL     1       5.816  -0.619  -0.199 +0.00 +0.00    +0.009 C  
DOCKED: ENDBRANCH  11  21
DOCKED: ENDBRANCH   8  11
DOCKED: ENDBRANCH   6   7
DOCKED: BRANCH   6  24
DOCKED: ATOM     24  C3  UNL     1       4.845  -6.946  -2.541 +0.00 +0.00    +0.042 C  
DOCKED: BRANCH  24  25
DOCKED: ATOM     25  C2  UNL     1       4.214  -8.212  -1.962 +0.00 +0.00    +0.071 C  
DOCKED: BRANCH  25  27
DOCKED: ATOM     26  C1  UNL     1       5.897 -10.111  -3.094 +0.00 +0.00    +0.084 C  
DOCKED: ATOM     27  S1  UNL     1       5.496  -9.412  -1.472 +0.00 -0.00    -0.164 S  
DOCKED: ENDBRANCH  25  27
DOCKED: ENDBRANCH  24  25
DOCKED: ENDBRANCH   6  24
DOCKED: ENDBRANCH   2   6
DOCKED: ENDBRANCH   1   4
DOCKED: BRANCH   1  28
DOCKED: ATOM     28  C17 UNL     1       9.457  -4.505  -4.793 +0.00 +0.00    +0.060 C  
DOCKED: BRANCH  28  29
DOCKED: ATOM     29  C18 UNL     1       8.078  -3.913  -4.986 +0.00 -0.00    -0.046 A  
DOCKED: ATOM     30  C19 UNL     1       7.098  -4.594  -5.723 +0.00 +0.00    +0.004 A  
DOCKED: ATOM     31  C20 UNL     1       5.824  -4.044  -5.885 +0.00 +0.00    +0.000 A  
DOCKED: ATOM     32  C21 UNL     1       5.516  -2.805  -5.323 +0.00 +0.00    +0.000 A  
DOCKED: ATOM     33  C22 UNL     1       6.484  -2.107  -4.604 +0.00 +0.00    +0.000 A  
DOCKED: ATOM     34  C23 UNL     1       7.759  -2.658  -4.439 +0.00 +0.00    +0.004 A  
DOCKED: ENDBRANCH  28  29
DOCKED: ENDBRANCH   1  28
DOCKED: BRANCH   1  35
DOCKED: ATOM     35  C24 UNL     1      10.821  -6.029  -3.290 +0.00 +0.00    +0.136 C  
DOCKED: BRANCH  35  36
DOCKED: ATOM     36  O5  UNL     1      10.560  -6.055  -1.880 +0.00 -0.00    -0.390 OA 
DOCKED: ATOM     37  H38 UNL     1       9.908  -5.341  -1.704 +0.00 +0.00    +0.210 HD 
DOCKED: ENDBRANCH  35  36
DOCKED: BRANCH  35  38
DOCKED: ATOM     38  C25 UNL     1      11.589  -7.291  -3.721 +0.00 +0.00    +0.045 C  
DOCKED: BRANCH  38  39
DOCKED: ATOM     39  C26 UNL     1      10.725  -8.347  -4.448 +0.00 +0.00    +0.074 C  
DOCKED: ATOM     40  C27 UNL     1      11.525  -9.502  -5.064 +0.00 +0.00    +0.017 C  
DOCKED: BRANCH  39  41
DOCKED: ATOM     41  C28 UNL     1       9.662  -8.952  -3.527 +0.00 +0.00    +0.217 C  
DOCKED: ATOM     42  O6  UNL     1       8.838  -9.777  -3.920 +0.00 -0.00    -0.276 OA 
DOCKED: ATOM     43  N4  UNL     1       9.746  -8.573  -2.208 +0.00 -0.00    -0.304 N  
DOCKED: ATOM     44  H45 UNL     1      10.166  -7.671  -2.003 +0.00 +0.00    +0.149 HD 
DOCKED: BRANCH  43  45
DOCKED: ATOM     45  C29 UNL     1       8.844  -9.106  -1.199 +0.00 +0.00    +0.161 C  
DOCKED: BRANCH  45  46
DOCKED: ATOM     46  C30 UNL     1       8.557  -8.008  -0.145 +0.00 +0.00    +0.234 C  
DOCKED: ATOM     47  O7  UNL     1       8.733  -6.807  -0.338 +0.00 -0.00    -0.274 OA 
DOCKED: ATOM     48  N5  UNL     1       8.019  -8.525   1.015 +0.00 -0.00    -0.310 N  
DOCKED: ATOM     49  H47 UNL     1       7.595  -9.451   0.923 +0.00 +0.00    +0.149 HD 
DOCKED: BRANCH  48  50
DOCKED: ATOM     50  C31 UNL     1       7.575  -7.709   2.116 +0.00 +0.00    +0.139 C  
DOCKED: BRANCH  50  51
DOCKED: ATOM     51  C32 UNL     1       6.457  -6.767   1.750 +0.00 -0.00    -0.027 A  
DOCKED: ATOM     52  C33 UNL     1       6.575  -5.391   1.996 +0.00 +0.00    +0.025 A  
DOCKED: ATOM     53  C34 UNL     1       5.499  -4.565   1.697 +0.00 +0.00    +0.111 A  
DOCKED: ATOM     54  N6  UNL     1       4.322  -5.007   1.205 +0.00 -0.00    -0.263 NA 
DOCKED: ATOM     55  C35 UNL     1       4.233  -6.333   0.972 +0.00 +0.00    +0.111 A  
DOCKED: ATOM     56  C36 UNL     1       5.252  -7.239   1.223 +0.00 +0.00    +0.025 A  
DOCKED: ENDBRANCH  50  51
DOCKED: ENDBRANCH  48  50
DOCKED: ENDBRANCH  45  46
DOCKED: BRANCH  45  57
DOCKED: ATOM     57  C37 UNL     1       9.366 -10.414  -0.553 +0.00 +0.00    +0.012 C  
DOCKED: ATOM     58  C38 UNL     1       8.699 -11.637  -1.197 +0.00 +0.00    +0.009 C  
DOCKED: ATOM     59  C39 UNL     1      10.886 -10.582  -0.598 +0.00 +0.00    +0.009 C  
DOCKED: ENDBRANCH  45  57
DOCKED: ENDBRANCH  43  45
DOCKED: ENDBRANCH  39  41
DOCKED: ENDBRANCH  38  39
DOCKED: ENDBRANCH  35  38
DOCKED: ENDBRANCH   1  35
DOCKED: TORSDOF 23
DOCKED: TER
DOCKED: ENDMDL
________________________________________________________________________________


    FINAL DOCKED STATE:
    ________________________


Run:   3 / 20
Time taken for this run:   2.355s

DOCKED: MODEL        3
DOCKED: USER    Run = 3
DOCKED: USER
DOCKED: USER    Estimated Free Energy of Binding    =  +6.86 kcal/mol  [=(1)+(2)+(3)-(4)]
DOCKED: USER
DOCKED: USER    (1) Final Intermolecular Energy     =  +0.00 kcal/mol
DOCKED: USER        vdW + Hbond + desolv Energy     =  +0.00 kcal/mol
DOCKED: USER        Electrostatic Energy            =  +0.00 kcal/mol
DOCKED: USER        Moving Ligand-Fixed Receptor    =  +0.00 kcal/mol
DOCKED: USER        Moving Ligand-Moving Receptor   =  +0.00 kcal/mol
DOCKED: USER    (2) Final Total Internal Energy     = -15.35 kcal/mol
DOCKED: USER    (3) Torsional Free Energy           =  +6.86 kcal/mol
DOCKED: USER    (4) Unbound System's Energy         = -15.35 kcal/mol
DOCKED: USER
DOCKED: USER
DOCKED: REMARK  Name = ligands/ligand_23.pdb
DOCKED: REMARK  32 active torsions:
DOCKED: REMARK  status: ('A' for Active; 'I' for Inactive)
DOCKED: REMARK    1  A    between atoms: C1_1  and  S1_2
DOCKED: REMARK    2  A    between atoms: S1_2  and  C2_3
DOCKED: REMARK    3  A    between atoms: C2_3  and  C3_4
DOCKED: REMARK    4  A    between atoms: C3_4  and  C4_5
DOCKED: REMARK    5  A    between atoms: C4_5  and  N1_6
DOCKED: REMARK    6  A    between atoms: C4_5  and  C15_21
DOCKED: REMARK    7  A    between atoms: C5_7  and  C6_9
DOCKED: REMARK    8  A    between atoms: C6_9  and  N2_10
DOCKED: REMARK    9  A    between atoms: C6_9  and  C12_18
DOCKED: REMARK   10  A    between atoms: C7_11  and  O3_13
DOCKED: REMARK   11  A    between atoms: O3_13  and  C8_14
DOCKED: REMARK   12  A    between atoms: C8_14  and  C9_15
DOCKED: REMARK   13  A    between atoms: C8_14  and  C10_16
DOCKED: REMARK   14  A    between atoms: C8_14  and  C11_17
DOCKED: REMARK   15  A    between atoms: C12_18  and  C13_19
DOCKED: REMARK   16  A    between atoms: C12_18  and  C14_20
DOCKED: REMARK   17  A    between atoms: N3_23  and  C16_24
DOCKED: REMARK   18  A    between atoms: C16_24  and  C17_25
DOCKED: REMARK   19  A    between atoms: C16_24  and  C24_32
DOCKED: REMARK   20  A    between atoms: C17_25  and  C18_26
DOCKED: REMARK   21  A    between atoms: C24_32  and  O5_33
DOCKED: REMARK   22  A    between atoms: C24_32  and  C25_34
DOCKED: REMARK   23  A    between atoms: C25_34  and  C26_35
DOCKED: REMARK   24  A    between atoms: C26_35  and  C27_36
DOCKED: REMARK   25  A    between atoms: C26_35  and  C28_37
DOCKED: REMARK   26  A    between atoms: N4_39  and  C29_40
DOCKED: REMARK   27  A    between atoms: C29_40  and  C30_41
DOCKED: REMARK   28  A    between atoms: C29_40  and  C37_51
DOCKED: REMARK   29  A    between atoms: N5_43  and  C31_44
DOCKED: REMARK   30  A    between atoms: C31_44  and  C32_45
DOCKED: REMARK   31  A    between atoms: C37_51  and  C38_52
DOCKED: REMARK   32  A    between atoms: C37_51  and  C39_53
DOCKED: REMARK                            x       y       z     vdW  Elec       q    Type
DOCKED: REMARK                         _______ _______ _______ _____ _____    ______ ____
DOCKED: USER                              x       y       z     vdW  Elec       q    Type
DOCKED: USER                           _______ _______ _______ _____ _____    ______ ____
DOCKED: ROOT
DOCKED: ATOM      1  C16 UNL     1      12.917  -7.699  -2.592 +0.00 +0.00    +0.106 C  
DOCKED: ENDROOT
DOCKED: BRANCH   1   4
DOCKED: ATOM      2  C15 UNL     1      15.215  -6.816  -2.184 +0.00 +0.00    +0.234 C  
DOCKED: ATOM      3  O4  UNL     1      15.161  -6.004  -3.097 +0.00 -0.00    -0.274 OA 
DOCKED: ATOM      4  N3  UNL     1      14.239  -7.754  -1.955 +0.00 -0.00    -0.308 N  
DOCKED: ATOM      5  H28 UNL     1      14.298  -8.268  -1.086 +0.00 +0.00    +0.149 HD 
DOCKED: BRANCH   2   6
DOCKED: ATOM      6  C4  UNL     1      16.461  -6.952  -1.279 +0.00 +0.00    +0.160 C  
DOCKED: BRANCH   6   7
DOCKED: ATOM      7  N1  UNL     1      17.035  -8.315  -1.284 +0.00 -0.00    -0.302 N  
DOCKED: ATOM      8  C5  UNL     1      17.413  -8.907  -2.472 +0.00 +0.00    +0.234 C  
DOCKED: ATOM      9  O1  UNL     1      17.687  -8.216  -3.458 +0.00 -0.00    -0.274 OA 
DOCKED: ATOM     10  H9  UNL     1      16.715  -8.915  -0.541 +0.00 +0.00    +0.150 HD 
DOCKED: BRANCH   8  11
DOCKED: ATOM     11  C6  UNL     1      17.701 -10.430  -2.451 +0.00 +0.00    +0.165 C  
DOCKED: BRANCH  11  12
DOCKED: ATOM     12  N2  UNL     1      16.447 -11.111  -2.749 +0.00 -0.00    -0.270 N  
DOCKED: ATOM     13  C7  UNL     1      15.308 -10.861  -2.047 +0.00 +0.00    +0.401 C  
DOCKED: ATOM     14  O2  UNL     1      15.254 -10.244  -0.997 +0.00 -0.00    -0.226 OA 
DOCKED: ATOM     15  H11 UNL     1      16.294 -11.536  -3.653 +0.00 +0.00    +0.153 HD 
DOCKED: BRANCH  13  16
DOCKED: ATOM     16  O3  UNL     1      14.274 -11.423  -2.704 +0.00 -0.00    -0.445 OA 
DOCKED: BRANCH  16  17
DOCKED: ATOM     17  C8  UNL     1      13.904 -12.802  -2.456 +0.00 +0.00    +0.107 C  
DOCKED: ATOM     18  C9  UNL     1      14.442 -13.731  -3.549 +0.00 +0.00    +0.055 C  
DOCKED: ATOM     19  C10 UNL     1      12.367 -12.810  -2.512 +0.00 +0.00    +0.055 C  
DOCKED: ATOM     20  C11 UNL     1      14.356 -13.266  -1.060 +0.00 +0.00    +0.055 C  
DOCKED: ENDBRANCH  16  17
DOCKED: ENDBRANCH  13  16
DOCKED: ENDBRANCH  11  12
DOCKED: BRANCH  11  21
DOCKED: ATOM     21  C12 UNL     1      18.883 -10.997  -3.272 +0.00 +0.00    +0.012 C  
DOCKED: ATOM     22  C13 UNL     1      18.520 -11.545  -4.658 +0.00 +0.00    +0.009 C  
DOCKED: ATOM     23  C14 UNL     1      20.072 -10.034  -3.352 +0.00 +0.00    +0.009 C  
DOCKED: ENDBRANCH  11  21
DOCKED: ENDBRANCH   8  11
DOCKED: ENDBRANCH   6   7
DOCKED: BRANCH   6  24
DOCKED: ATOM     24  C3  UNL     1      17.547  -5.962  -1.724 +0.00 +0.00    +0.042 C  
DOCKED: BRANCH  24  25
DOCKED: ATOM     25  C2  UNL     1      18.628  -5.769  -0.660 +0.00 +0.00    +0.071 C  
DOCKED: BRANCH  25  27
DOCKED: ATOM     26  C1  UNL     1      18.495  -7.561   1.459 +0.00 +0.00    +0.084 C  
DOCKED: ATOM     27  S1  UNL     1      17.922  -5.901   1.016 +0.00 -0.00    -0.164 S  
DOCKED: ENDBRANCH  25  27
DOCKED: ENDBRANCH  24  25
DOCKED: ENDBRANCH   6  24
DOCKED: ENDBRANCH   2   6
DOCKED: ENDBRANCH   1   4
DOCKED: BRANCH   1  28
DOCKED: ATOM     28  C17 UNL     1      13.088  -7.594  -4.125 +0.00 +0.00    +0.060 C  
DOCKED: BRANCH  28  29
DOCKED: ATOM     29  C18 UNL     1      13.777  -8.787  -4.751 +0.00 -0.00    -0.046 A  
DOCKED: ATOM     30  C19 UNL     1      15.159  -8.776  -4.994 +0.00 +0.00    +0.004 A  
DOCKED: ATOM     31  C20 UNL     1      15.788  -9.887  -5.561 +0.00 +0.00    +0.000 A  
DOCKED: ATOM     32  C21 UNL     1      15.045 -11.017  -5.902 +0.00 +0.00    +0.000 A  
DOCKED: ATOM     33  C22 UNL     1      13.669 -11.037  -5.686 +0.00 +0.00    +0.000 A  
DOCKED: ATOM     34  C23 UNL     1      13.039  -9.927  -5.116 +0.00 +0.00    +0.004 A  
DOCKED: ENDBRANCH  28  29
DOCKED: ENDBRANCH   1  28
DOCKED: BRANCH   1  35
DOCKED: ATOM     35  C24 UNL     1      12.087  -8.973  -2.245 +0.00 +0.00    +0.136 C  
DOCKED: BRANCH  35  36
DOCKED: ATOM     36  O5  UNL     1      12.831  -9.753  -1.298 +0.00 -0.00    -0.390 OA 
DOCKED: ATOM     37  H38 UNL     1      13.247 -10.484  -1.805 +0.00 +0.00    +0.210 HD 
DOCKED: ENDBRANCH  35  36
DOCKED: BRANCH  35  38
DOCKED: ATOM     38  C25 UNL     1      10.686  -8.650  -1.697 +0.00 +0.00    +0.045 C  
DOCKED: BRANCH  38  39
DOCKED: ATOM     39  C26 UNL     1      10.409  -9.211  -0.282 +0.00 +0.00    +0.074 C  
DOCKED: ATOM     40  C27 UNL     1      10.477 -10.740  -0.185 +0.00 +0.00    +0.017 C  
DOCKED: BRANCH  39  41
DOCKED: ATOM     41  C28 UNL     1      11.367  -8.631   0.763 +0.00 +0.00    +0.217 C  
DOCKED: ATOM     42  O6  UNL     1      11.192  -7.529   1.281 +0.00 -0.00    -0.276 OA 
DOCKED: ATOM     43  N4  UNL     1      12.391  -9.466   1.144 +0.00 -0.00    -0.304 N  
DOCKED: ATOM     44  H45 UNL     1      12.704 -10.164   0.476 +0.00 +0.00    +0.149 HD 
DOCKED: BRANCH  43  45
DOCKED: ATOM     45  C29 UNL     1      13.350  -9.083   2.169 +0.00 +0.00    +0.161 C  
DOCKED: BRANCH  45  46
DOCKED: ATOM     46  C30 UNL     1      14.289  -7.989   1.602 +0.00 +0.00    +0.234 C  
DOCKED: ATOM     47  O7  UNL     1      15.247  -8.218   0.869 +0.00 -0.00    -0.274 OA 
DOCKED: ATOM     48  N5  UNL     1      13.888  -6.719   1.961 +0.00 -0.00    -0.310 N  
DOCKED: ATOM     49  H47 UNL     1      12.911  -6.637   2.252 +0.00 +0.00    +0.149 HD 
DOCKED: BRANCH  48  50
DOCKED: ATOM     50  C31 UNL     1      14.533  -5.520   1.489 +0.00 +0.00    +0.139 C  
DOCKED: BRANCH  50  51
DOCKED: ATOM     51  C32 UNL     1      13.862  -4.915   0.283 +0.00 -0.00    -0.027 A  
DOCKED: ATOM     52  C33 UNL     1      12.577  -5.327  -0.099 +0.00 +0.00    +0.025 A  
DOCKED: ATOM     53  C34 UNL     1      12.017  -4.786  -1.250 +0.00 +0.00    +0.111 A  
DOCKED: ATOM     54  N6  UNL     1      12.647  -3.901  -2.052 +0.00 -0.00    -0.263 NA 
DOCKED: ATOM     55  C35 UNL     1      13.881  -3.516  -1.662 +0.00 +0.00    +0.111 A  
DOCKED: ATOM     56  C36 UNL     1      14.521  -3.984  -0.525 +0.00 +0.00    +0.025 A  
DOCKED: ENDBRANCH  50  51
DOCKED: ENDBRANCH  48  50
DOCKED: ENDBRANCH  45  46
DOCKED: BRANCH  45  57
DOCKED: ATOM     57  C37 UNL     1      14.135 -10.289   2.742 +0.00 +0.00    +0.012 C  
DOCKED: ATOM     58  C38 UNL     1      14.341 -11.360   1.661 +0.00 +0.00    +0.009 C  
DOCKED: ATOM     59  C39 UNL     1      15.485  -9.931   3.366 +0.00 +0.00    +0.009 C  
DOCKED: ENDBRANCH  45  57
DOCKED: ENDBRANCH  43  45
DOCKED: ENDBRANCH  39  41
DOCKED: ENDBRANCH  38  39
DOCKED: ENDBRANCH  35  38
DOCKED: ENDBRANCH   1  35
DOCKED: TORSDOF 23
DOCKED: TER
DOCKED: ENDMDL
________________________________________________________________________________


    FINAL DOCKED STATE:
    ________________________


Run:   4 / 20
Time taken for this run:   2.355s

DOCKED: MODEL        4
DOCKED: USER    Run = 4
DOCKED: USER
DOCKED: USER    Estimated Free Energy of Binding    =  +6.86 kcal/mol  [=(1)+(2)+(3)-(4)]
DOCKED: USER
DOCKED: USER    (1) Final Intermolecular Energy     =  +0.00 kcal/mol
DOCKED: USER        vdW + Hbond + desolv Energy     =  +0.00 kcal/mol
DOCKED: USER        Electrostatic Energy            =  +0.00 kcal/mol
DOCKED: USER        Moving Ligand-Fixed Receptor    =  +0.00 kcal/mol
DOCKED: USER        Moving Ligand-Moving Receptor   =  +0.00 kcal/mol
DOCKED: USER    (2) Final Total Internal Energy     = -16.01 kcal/mol
DOCKED: USER    (3) Torsional Free Energy           =  +6.86 kcal/mol
DOCKED: USER    (4) Unbound System's Energy         = -16.01 kcal/mol
DOCKED: USER
DOCKED: USER
DOCKED: REMARK  Name = ligands/ligand_23.pdb
DOCKED: REMARK  32 active torsions:
DOCKED: REMARK  status: ('A' for Active; 'I' for Inactive)
DOCKED: REMARK    1  A    between atoms: C1_1  and  S1_2
DOCKED: REMARK    2  A    between atoms: S1_2  and  C2_3
DOCKED: REMARK    3  A    between atoms: C2_3  and  C3_4
DOCKED: REMARK    4  A    between atoms: C3_4  and  C4_5
DOCKED: REMARK    5  A    between atoms: C4_5  and  N1_6
DOCKED: REMARK    6  A    between atoms: C4_5  and  C15_21
DOCKED: REMARK    7  A    between atoms: C5_7  and  C6_9
DOCKED: REMARK    8  A    between atoms: C6_9  and  N2_10
DOCKED: REMARK    9  A    between atoms: C6_9  and  C12_18
DOCKED: REMARK   10  A    between atoms: C7_11  and  O3_13
DOCKED: REMARK   11  A    between atoms: O3_13  and  C8_14
DOCKED: REMARK   12  A    between atoms: C8_14  and  C9_15
DOCKED: REMARK   13  A    between atoms: C8_14  and  C10_16
DOCKED: REMARK   14  A    between atoms: C8_14  and  C11_17
DOCKED: REMARK   15  A    between atoms: C12_18  and  C13_19
DOCKED: REMARK   16  A    between atoms: C12_18  and  C14_20
DOCKED: REMARK   17  A    between atoms: N3_23  and  C16_24
DOCKED: REMARK   18  A    between atoms: C16_24  and  C17_25
DOCKED: REMARK   19  A    between atoms: C16_24  and  C24_32
DOCKED: REMARK   20  A    between atoms: C17_25  and  C18_26
DOCKED: REMARK   21  A    between atoms: C24_32  and  O5_33
DOCKED: REMARK   22  A    between atoms: C24_32  and  C25_34
DOCKED: REMARK   23  A    between atoms: C25_34  and  C26_35
DOCKED: REMARK   24  A    between atoms: C26_35  and  C27_36
DOCKED: REMARK   25  A    between atoms: C26_35  and  C28_37
DOCKED: REMARK   26  A    between atoms: N4_39  and  C29_40
DOCKED: REMARK   27  A    between atoms: C29_40  and  C30_41
DOCKED: REMARK   28  A    between atoms: C29_40  and  C37_51
DOCKED: REMARK   29  A    between atoms: N5_43  and  C31_44
DOCKED: REMARK   30  A    between atoms: C31_44  and  C32_45
DOCKED: REMARK   31  A    between atoms: C37_51  and  C38_52
DOCKED: REMARK   32  A    between atoms: C37_51  and  C39_53
DOCKED: REMARK                            x       y       z     vdW  Elec       q    Type
DOCKED: REMARK                         _______ _______ _______ _____ _____    ______ ____
DOCKED: USER                              x       y       z     vdW  Elec       q    Type
DOCKED: USER                           _______ _______ _______ _____ _____    ______ ____
DOCKED: ROOT
DOCKED: ATOM      1  C16 UNL     1      12.722  -9.805   2.111 +0.00 +0.00    +0.106 C  
DOCKED: ENDROOT
DOCKED: BRANCH   1   4
DOCKED: ATOM      2  C15 UNL     1      13.392  -7.973   0.556 +0.00 +0.00    +0.234 C  
DOCKED: ATOM      3  O4  UNL     1      12.382  -8.065  -0.130 +0.00 -0.00    -0.274 OA 
DOCKED: ATOM      4  N3  UNL     1      13.696  -8.850   1.566 +0.00 -0.00    -0.308 N  
DOCKED: ATOM      5  H28 UNL     1      14.463  -8.596   2.173 +0.00 +0.00    +0.149 HD 
DOCKED: BRANCH   2   6
DOCKED: ATOM      6  C4  UNL     1      14.495  -6.932   0.255 +0.00 +0.00    +0.160 C  
DOCKED: BRANCH   6   7
DOCKED: ATOM      7  N1  UNL     1      15.749  -7.187   0.997 +0.00 -0.00    -0.302 N  
DOCKED: ATOM      8  C5  UNL     1      15.865  -6.812   2.319 +0.00 +0.00    +0.234 C  
DOCKED: ATOM      9  O1  UNL     1      14.859  -6.666   3.021 +0.00 -0.00    -0.274 OA 
DOCKED: ATOM     10  H9  UNL     1      16.584  -7.187   0.433 +0.00 +0.00    +0.150 HD 
DOCKED: BRANCH   8  11
DOCKED: ATOM     11  C6  UNL     1      17.286  -6.810   2.939 +0.00 +0.00    +0.165 C  
DOCKED: BRANCH  11  12
DOCKED: ATOM     12  N2  UNL     1      17.249  -7.682   4.106 +0.00 -0.00    -0.270 N  
DOCKED: ATOM     13  C7  UNL     1      16.838  -8.977   4.024 +0.00 +0.00    +0.401 C  
DOCKED: ATOM     14  O2  UNL     1      16.267  -9.471   3.067 +0.00 -0.00    -0.226 OA 
DOCKED: ATOM     15  H11 UNL     1      17.806  -7.474   4.923 +0.00 +0.00    +0.153 HD 
DOCKED: BRANCH  13  16
DOCKED: ATOM     16  O3  UNL     1      17.159  -9.598   5.177 +0.00 -0.00    -0.445 OA 
DOCKED: BRANCH  16  17
DOCKED: ATOM     17  C8  UNL     1      18.498 -10.109   5.392 +0.00 +0.00    +0.107 C  
DOCKED: ATOM     18  C9  UNL     1      19.209 -10.388   4.065 +0.00 +0.00    +0.055 C  
DOCKED: ATOM     19  C10 UNL     1      18.293 -11.440   6.135 +0.00 +0.00    +0.055 C  
DOCKED: ATOM     20  C11 UNL     1      19.327  -9.164   6.279 +0.00 +0.00    +0.055 C  
DOCKED: ENDBRANCH  16  17
DOCKED: ENDBRANCH  13  16
DOCKED: ENDBRANCH  11  12
DOCKED: BRANCH  11  21
DOCKED: ATOM     21  C12 UNL     1      18.513  -7.089   2.040 +0.00 +0.00    +0.012 C  
DOCKED: ATOM     22  C13 UNL     1      18.513  -8.448   1.327 +0.00 +0.00    +0.009 C  
DOCKED: ATOM     23  C14 UNL     1      18.808  -5.950   1.059 +0.00 +0.00    +0.009 C  
DOCKED: ENDBRANCH  11  21
DOCKED: ENDBRANCH   8  11
DOCKED: ENDBRANCH   6   7
DOCKED: BRANCH   6  24
DOCKED: ATOM     24  C3  UNL     1      14.809  -6.915  -1.248 +0.00 +0.00    +0.042 C  
DOCKED: BRANCH  24  25
DOCKED: ATOM     25  C2  UNL     1      15.041  -8.318  -1.808 +0.00 +0.00    +0.071 C  
DOCKED: BRANCH  25  27
DOCKED: ATOM     26  C1  UNL     1      17.567  -7.169  -1.945 +0.00 +0.00    +0.084 C  
DOCKED: ATOM     27  S1  UNL     1      16.798  -8.788  -1.677 +0.00 -0.00    -0.164 S  
DOCKED: ENDBRANCH  25  27
DOCKED: ENDBRANCH  24  25
DOCKED: ENDBRANCH   6  24
DOCKED: ENDBRANCH   2   6
DOCKED: ENDBRANCH   1   4
DOCKED: BRANCH   1  28
DOCKED: ATOM     28  C17 UNL     1      13.074 -11.231   1.629 +0.00 +0.00    +0.060 C  
DOCKED: BRANCH  28  29
DOCKED: ATOM     29  C18 UNL     1      14.554 -11.547   1.666 +0.00 -0.00    -0.046 A  
DOCKED: ATOM     30  C19 UNL     1      15.121 -12.217   2.760 +0.00 +0.00    +0.004 A  
DOCKED: ATOM     31  C20 UNL     1      16.486 -12.514   2.780 +0.00 +0.00    +0.000 A  
DOCKED: ATOM     32  C21 UNL     1      17.302 -12.137   1.713 +0.00 +0.00    +0.000 A  
DOCKED: ATOM     33  C22 UNL     1      16.759 -11.453   0.628 +0.00 +0.00    +0.000 A  
DOCKED: ATOM     34  C23 UNL     1      15.392 -11.158   0.606 +0.00 +0.00    +0.004 A  
DOCKED: ENDBRANCH  28  29
DOCKED: ENDBRANCH   1  28
DOCKED: BRANCH   1  35
DOCKED: ATOM     35  C24 UNL     1      12.727  -9.765   3.670 +0.00 +0.00    +0.136 C  
DOCKED: BRANCH  35  36
DOCKED: ATOM     36  O5  UNL     1      14.069  -9.516   4.112 +0.00 -0.00    -0.390 OA 
DOCKED: ATOM     37  H38 UNL     1      14.378  -8.719   3.627 +0.00 +0.00    +0.210 HD 
DOCKED: ENDBRANCH  35  36
DOCKED: BRANCH  35  38
DOCKED: ATOM     38  C25 UNL     1      11.764  -8.714   4.250 +0.00 +0.00    +0.045 C  
DOCKED: BRANCH  38  39
DOCKED: ATOM     39  C26 UNL     1      12.159  -7.250   3.945 +0.00 +0.00    +0.074 C  
DOCKED: ATOM     40  C27 UNL     1      10.971  -6.323   3.655 +0.00 +0.00    +0.017 C  
DOCKED: BRANCH  39  41
DOCKED: ATOM     41  C28 UNL     1      12.973  -6.626   5.081 +0.00 +0.00    +0.217 C  
DOCKED: ATOM     42  O6  UNL     1      12.608  -5.615   5.680 +0.00 -0.00    -0.276 OA 
DOCKED: ATOM     43  N4  UNL     1      14.101  -7.324   5.444 +0.00 -0.00    -0.304 N  
DOCKED: ATOM     44  H45 UNL     1      14.546  -7.903   4.736 +0.00 +0.00    +0.149 HD 
DOCKED: BRANCH  43  45
DOCKED: ATOM     45  C29 UNL     1      14.949  -6.892   6.544 +0.00 +0.00    +0.161 C  
DOCKED: BRANCH  45  46
DOCKED: ATOM     46  C30 UNL     1      15.984  -5.868   6.015 +0.00 +0.00    +0.234 C  
DOCKED: ATOM     47  O7  UNL     1      17.180  -5.893   6.294 +0.00 -0.00    -0.274 OA 
DOCKED: ATOM     48  N5  UNL     1      15.421  -4.961   5.142 +0.00 -0.00    -0.310 N  
DOCKED: ATOM     49  H47 UNL     1      14.536  -5.253   4.721 +0.00 +0.00    +0.149 HD 
DOCKED: BRANCH  48  50
DOCKED: ATOM     50  C31 UNL     1      16.182  -3.961   4.436 +0.00 +0.00    +0.139 C  
DOCKED: BRANCH  50  51
DOCKED: ATOM     51  C32 UNL     1      15.681  -3.704   3.039 +0.00 -0.00    -0.027 A  
DOCKED: ATOM     52  C33 UNL     1      14.307  -3.728   2.759 +0.00 +0.00    +0.025 A  
DOCKED: ATOM     53  C34 UNL     1      13.889  -3.543   1.446 +0.00 +0.00    +0.111 A  
DOCKED: ATOM     54  N6  UNL     1      14.730  -3.369   0.404 +0.00 -0.00    -0.263 NA 
DOCKED: ATOM     55  C35 UNL     1      16.048  -3.345   0.698 +0.00 +0.00    +0.111 A  
DOCKED: ATOM     56  C36 UNL     1      16.565  -3.505   1.974 +0.00 +0.00    +0.025 A  
DOCKED: ENDBRANCH  50  51
DOCKED: ENDBRANCH  48  50
DOCKED: ENDBRANCH  45  46
DOCKED: BRANCH  45  57
DOCKED: ATOM     57  C37 UNL     1      15.621  -8.073   7.288 +0.00 +0.00    +0.012 C  
DOCKED: ATOM     58  C38 UNL     1      15.892  -7.704   8.752 +0.00 +0.00    +0.009 C  
DOCKED: ATOM     59  C39 UNL     1      14.840  -9.387   7.231 +0.00 +0.00    +0.009 C  
DOCKED: ENDBRANCH  45  57
DOCKED: ENDBRANCH  43  45
DOCKED: ENDBRANCH  39  41
DOCKED: ENDBRANCH  38  39
DOCKED: ENDBRANCH  35  38
DOCKED: ENDBRANCH   1  35
DOCKED: TORSDOF 23
DOCKED: TER
DOCKED: ENDMDL
________________________________________________________________________________


    FINAL DOCKED STATE:
    ________________________


Run:   5 / 20
Time taken for this run:   2.355s

DOCKED: MODEL        5
DOCKED: USER    Run = 5
DOCKED: USER
DOCKED: USER    Estimated Free Energy of Binding    =  +6.86 kcal/mol  [=(1)+(2)+(3)-(4)]
DOCKED: USER
DOCKED: USER    (1) Final Intermolecular Energy     =  +0.00 kcal/mol
DOCKED: USER        vdW + Hbond + desolv Energy     =  +0.00 kcal/mol
DOCKED: USER        Electrostatic Energy            =  +0.00 kcal/mol
DOCKED: USER        Moving Ligand-Fixed Receptor    =  +0.00 kcal/mol
DOCKED: USER        Moving Ligand-Moving Receptor   =  +0.00 kcal/mol
DOCKED: USER    (2) Final Total Internal Energy     = -15.45 kcal/mol
DOCKED: USER    (3) Torsional Free Energy           =  +6.86 kcal/mol
DOCKED: USER    (4) Unbound System's Energy         = -15.45 kcal/mol
DOCKED: USER
DOCKED: USER
DOCKED: REMARK  Name = ligands/ligand_23.pdb
DOCKED: REMARK  32 active torsions:
DOCKED: REMARK  status: ('A' for Active; 'I' for Inactive)
DOCKED: REMARK    1  A    between atoms: C1_1  and  S1_2
DOCKED: REMARK    2  A    between atoms: S1_2  and  C2_3
DOCKED: REMARK    3  A    between atoms: C2_3  and  C3_4
DOCKED: REMARK    4  A    between atoms: C3_4  and  C4_5
DOCKED: REMARK    5  A    between atoms: C4_5  and  N1_6
DOCKED: REMARK    6  A    between atoms: C4_5  and  C15_21
DOCKED: REMARK    7  A    between atoms: C5_7  and  C6_9
DOCKED: REMARK    8  A    between atoms: C6_9  and  N2_10
DOCKED: REMARK    9  A    between atoms: C6_9  and  C12_18
DOCKED: REMARK   10  A    between atoms: C7_11  and  O3_13
DOCKED: REMARK   11  A    between atoms: O3_13  and  C8_14
DOCKED: REMARK   12  A    between atoms: C8_14  and  C9_15
DOCKED: REMARK   13  A    between atoms: C8_14  and  C10_16
DOCKED: REMARK   14  A    between atoms: C8_14  and  C11_17
DOCKED: REMARK   15  A    between atoms: C12_18  and  C13_19
DOCKED: REMARK   16  A    between atoms: C12_18  and  C14_20
DOCKED: REMARK   17  A    between atoms: N3_23  and  C16_24
DOCKED: REMARK   18  A    between atoms: C16_24  and  C17_25
DOCKED: REMARK   19  A    between atoms: C16_24  and  C24_32
DOCKED: REMARK   20  A    between atoms: C17_25  and  C18_26
DOCKED: REMARK   21  A    between atoms: C24_32  and  O5_33
DOCKED: REMARK   22  A    between atoms: C24_32  and  C25_34
DOCKED: REMARK   23  A    between atoms: C25_34  and  C26_35
DOCKED: REMARK   24  A    between atoms: C26_35  and  C27_36
DOCKED: REMARK   25  A    between atoms: C26_35  and  C28_37
DOCKED: REMARK   26  A    between atoms: N4_39  and  C29_40
DOCKED: REMARK   27  A    between atoms: C29_40  and  C30_41
DOCKED: REMARK   28  A    between atoms: C29_40  and  C37_51
DOCKED: REMARK   29  A    between atoms: N5_43  and  C31_44
DOCKED: REMARK   30  A    between atoms: C31_44  and  C32_45
DOCKED: REMARK   31  A    between atoms: C37_51  and  C38_52
DOCKED: REMARK   32  A    between atoms: C37_51  and  C39_53
DOCKED: REMARK                            x       y       z     vdW  Elec       q    Type
DOCKED: REMARK                         _______ _______ _______ _____ _____    ______ ____
DOCKED: USER                              x       y       z     vdW  Elec       q    Type
DOCKED: USER                           _______ _______ _______ _____ _____    ______ ____
DOCKED: ROOT
DOCKED: ATOM      1  C16 UNL     1      14.053  -3.193   2.399 +0.00 +0.00    +0.106 C  
DOCKED: ENDROOT
DOCKED: BRANCH   1   4
DOCKED: ATOM      2  C15 UNL     1      14.476  -2.327   0.098 +0.00 +0.00    +0.234 C  
DOCKED: ATOM      3  O4  UNL     1      14.747  -1.195   0.478 +0.00 -0.00    -0.274 OA 
DOCKED: ATOM      4  N3  UNL     1      14.008  -3.308   0.936 +0.00 -0.00    -0.308 N  
DOCKED: ATOM      5  H28 UNL     1      13.969  -4.246   0.560 +0.00 +0.00    +0.149 HD 
DOCKED: BRANCH   2   6
DOCKED: ATOM      6  C4  UNL     1      14.507  -2.719  -1.397 +0.00 +0.00    +0.160 C  
DOCKED: BRANCH   6   7
DOCKED: ATOM      7  N1  UNL     1      13.532  -3.779  -1.737 +0.00 -0.00    -0.302 N  
DOCKED: ATOM      8  C5  UNL     1      12.179  -3.547  -1.607 +0.00 +0.00    +0.234 C  
DOCKED: ATOM      9  O1  UNL     1      11.734  -2.396  -1.629 +0.00 -0.00    -0.274 OA 
DOCKED: ATOM     10  H9  UNL     1      13.864  -4.721  -1.604 +0.00 +0.00    +0.150 HD 
DOCKED: BRANCH   8  11
DOCKED: ATOM     11  C6  UNL     1      11.236  -4.776  -1.667 +0.00 +0.00    +0.165 C  
DOCKED: BRANCH  11  12
DOCKED: ATOM     12  N2  UNL     1      11.221  -5.375  -0.339 +0.00 -0.00    -0.270 N  
DOCKED: ATOM     13  C7  UNL     1      12.342  -5.906   0.223 +0.00 +0.00    +0.401 C  
DOCKED: ATOM     14  O2  UNL     1      13.381  -6.138  -0.371 +0.00 -0.00    -0.226 OA 
DOCKED: ATOM     15  H11 UNL     1      10.493  -5.145   0.323 +0.00 +0.00    +0.153 HD 
DOCKED: BRANCH  13  16
DOCKED: ATOM     16  O3  UNL     1      12.093  -6.138   1.528 +0.00 -0.00    -0.445 OA 
DOCKED: BRANCH  16  17
DOCKED: ATOM     17  C8  UNL     1      12.123  -7.487   2.056 +0.00 +0.00    +0.107 C  
DOCKED: ATOM     18  C9  UNL     1      11.115  -8.391   1.339 +0.00 +0.00    +0.055 C  
DOCKED: ATOM     19  C10 UNL     1      11.699  -7.341   3.527 +0.00 +0.00    +0.055 C  
DOCKED: ATOM     20  C11 UNL     1      13.540  -8.084   2.001 +0.00 +0.00    +0.055 C  
DOCKED: ENDBRANCH  16  17
DOCKED: ENDBRANCH  13  16
DOCKED: ENDBRANCH  11  12
DOCKED: BRANCH  11  21
DOCKED: ATOM     21  C12 UNL     1       9.812  -4.621  -2.253 +0.00 +0.00    +0.012 C  
DOCKED: ATOM     22  C13 UNL     1       9.729  -3.885  -3.597 +0.00 +0.00    +0.009 C  
DOCKED: ATOM     23  C14 UNL     1       9.036  -5.942  -2.296 +0.00 +0.00    +0.009 C  
DOCKED: ENDBRANCH  11  21
DOCKED: ENDBRANCH   8  11
DOCKED: ENDBRANCH   6   7
DOCKED: BRANCH   6  24
DOCKED: ATOM     24  C3  UNL     1      14.219  -1.490  -2.271 +0.00 +0.00    +0.042 C  
DOCKED: BRANCH  24  25
DOCKED: ATOM     25  C2  UNL     1      15.443  -1.053  -3.077 +0.00 +0.00    +0.071 C  
DOCKED: BRANCH  25  27
DOCKED: ATOM     26  C1  UNL     1      17.498  -0.596  -1.264 +0.00 +0.00    +0.084 C  
DOCKED: ATOM     27  S1  UNL     1      16.955  -1.854  -2.449 +0.00 -0.00    -0.164 S  
DOCKED: ENDBRANCH  25  27
DOCKED: ENDBRANCH  24  25
DOCKED: ENDBRANCH   6  24
DOCKED: ENDBRANCH   2   6
DOCKED: ENDBRANCH   1   4
DOCKED: BRANCH   1  28
DOCKED: ATOM     28  C17 UNL     1      12.614  -3.059   2.950 +0.00 +0.00    +0.060 C  
DOCKED: BRANCH  28  29
DOCKED: ATOM     29  C18 UNL     1      11.659  -2.353   2.013 +0.00 -0.00    -0.046 A  
DOCKED: ATOM     30  C19 UNL     1      11.888  -1.027   1.615 +0.00 +0.00    +0.004 A  
DOCKED: ATOM     31  C20 UNL     1      11.007  -0.387   0.740 +0.00 +0.00    +0.000 A  
DOCKED: ATOM     32  C21 UNL     1       9.882  -1.059   0.260 +0.00 +0.00    +0.000 A  
DOCKED: ATOM     33  C22 UNL     1       9.629  -2.369   0.660 +0.00 +0.00    +0.000 A  
DOCKED: ATOM     34  C23 UNL     1      10.512  -3.011   1.534 +0.00 +0.00    +0.004 A  
DOCKED: ENDBRANCH  28  29
DOCKED: ENDBRANCH   1  28
DOCKED: BRANCH   1  35
DOCKED: ATOM     35  C24 UNL     1      14.738  -4.445   3.028 +0.00 +0.00    +0.136 C  
DOCKED: BRANCH  35  36
DOCKED: ATOM     36  O5  UNL     1      14.988  -5.396   1.983 +0.00 -0.00    -0.390 OA 
DOCKED: ATOM     37  H38 UNL     1      14.177  -5.419   1.428 +0.00 +0.00    +0.210 HD 
DOCKED: ENDBRANCH  35  36
DOCKED: BRANCH  35  38
DOCKED: ATOM     38  C25 UNL     1      16.041  -4.110   3.775 +0.00 +0.00    +0.045 C  
DOCKED: BRANCH  38  39
DOCKED: ATOM     39  C26 UNL     1      16.647  -2.733   3.414 +0.00 +0.00    +0.074 C  
DOCKED: ATOM     40  C27 UNL     1      17.748  -2.259   4.370 +0.00 +0.00    +0.017 C  
DOCKED: BRANCH  39  41
DOCKED: ATOM     41  C28 UNL     1      17.217  -2.712   1.994 +0.00 +0.00    +0.217 C  
DOCKED: ATOM     42  O6  UNL     1      17.843  -1.752   1.547 +0.00 -0.00    -0.276 OA 
DOCKED: ATOM     43  N4  UNL     1      17.055  -3.875   1.280 +0.00 -0.00    -0.304 N  
DOCKED: ATOM     44  H45 UNL     1      16.265  -4.469   1.519 +0.00 +0.00    +0.149 HD 
DOCKED: BRANCH  43  45
DOCKED: ATOM     45  C29 UNL     1      17.591  -4.032  -0.063 +0.00 +0.00    +0.161 C  
DOCKED: BRANCH  45  46
DOCKED: ATOM     46  C30 UNL     1      16.707  -5.032  -0.849 +0.00 +0.00    +0.234 C  
DOCKED: ATOM     47  O7  UNL     1      15.583  -5.379  -0.497 +0.00 -0.00    -0.274 OA 
DOCKED: ATOM     48  N5  UNL     1      17.299  -5.440  -2.026 +0.00 -0.00    -0.310 N  
DOCKED: ATOM     49  H47 UNL     1      18.040  -4.827  -2.376 +0.00 +0.00    +0.149 HD 
DOCKED: BRANCH  48  50
DOCKED: ATOM     50  C31 UNL     1      16.650  -6.295  -2.987 +0.00 +0.00    +0.139 C  
DOCKED: BRANCH  50  51
DOCKED: ATOM     51  C32 UNL     1      15.397  -5.694  -3.571 +0.00 -0.00    -0.027 A  
DOCKED: ATOM     52  C33 UNL     1      14.184  -6.396  -3.527 +0.00 +0.00    +0.025 A  
DOCKED: ATOM     53  C34 UNL     1      13.065  -5.831  -4.128 +0.00 +0.00    +0.111 A  
DOCKED: ATOM     54  N6  UNL     1      13.074  -4.652  -4.784 +0.00 -0.00    -0.263 NA 
DOCKED: ATOM     55  C35 UNL     1      14.252  -3.992  -4.810 +0.00 +0.00    +0.111 A  
DOCKED: ATOM     56  C36 UNL     1      15.421  -4.462  -4.229 +0.00 +0.00    +0.025 A  
DOCKED: ENDBRANCH  50  51
DOCKED: ENDBRANCH  48  50
DOCKED: ENDBRANCH  45  46
DOCKED: BRANCH  45  57
DOCKED: ATOM     57  C37 UNL     1      19.086  -4.441  -0.071 +0.00 +0.00    +0.012 C  
DOCKED: ATOM     58  C38 UNL     1      19.979  -3.213  -0.296 +0.00 +0.00    +0.009 C  
DOCKED: ATOM     59  C39 UNL     1      19.549  -5.183   1.184 +0.00 +0.00    +0.009 C  
DOCKED: ENDBRANCH  45  57
DOCKED: ENDBRANCH  43  45
DOCKED: ENDBRANCH  39  41
DOCKED: ENDBRANCH  38  39
DOCKED: ENDBRANCH  35  38
DOCKED: ENDBRANCH   1  35
DOCKED: TORSDOF 23
DOCKED: TER
DOCKED: ENDMDL
________________________________________________________________________________


    FINAL DOCKED STATE:
    ________________________


Run:   6 / 20
Time taken for this run:   2.355s

DOCKED: MODEL        6
DOCKED: USER    Run = 6
DOCKED: USER
DOCKED: USER    Estimated Free Energy of Binding    =  +6.86 kcal/mol  [=(1)+(2)+(3)-(4)]
DOCKED: USER
DOCKED: USER    (1) Final Intermolecular Energy     =  +0.00 kcal/mol
DOCKED: USER        vdW + Hbond + desolv Energy     =  +0.00 kcal/mol
DOCKED: USER        Electrostatic Energy            =  +0.00 kcal/mol
DOCKED: USER        Moving Ligand-Fixed Receptor    =  +0.00 kcal/mol
DOCKED: USER        Moving Ligand-Moving Receptor   =  +0.00 kcal/mol
DOCKED: USER    (2) Final Total Internal Energy     = -16.02 kcal/mol
DOCKED: USER    (3) Torsional Free Energy           =  +6.86 kcal/mol
DOCKED: USER    (4) Unbound System's Energy         = -16.02 kcal/mol
DOCKED: USER
DOCKED: USER
DOCKED: REMARK  Name = ligands/ligand_23.pdb
DOCKED: REMARK  32 active torsions:
DOCKED: REMARK  status: ('A' for Active; 'I' for Inactive)
DOCKED: REMARK    1  A    between atoms: C1_1  and  S1_2
DOCKED: REMARK    2  A    between atoms: S1_2  and  C2_3
DOCKED: REMARK    3  A    between atoms: C2_3  and  C3_4
DOCKED: REMARK    4  A    between atoms: C3_4  and  C4_5
DOCKED: REMARK    5  A    between atoms: C4_5  and  N1_6
DOCKED: REMARK    6  A    between atoms: C4_5  and  C15_21
DOCKED: REMARK    7  A    between atoms: C5_7  and  C6_9
DOCKED: REMARK    8  A    between atoms: C6_9  and  N2_10
DOCKED: REMARK    9  A    between atoms: C6_9  and  C12_18
DOCKED: REMARK   10  A    between atoms: C7_11  and  O3_13
DOCKED: REMARK   11  A    between atoms: O3_13  and  C8_14
DOCKED: REMARK   12  A    between atoms: C8_14  and  C9_15
DOCKED: REMARK   13  A    between atoms: C8_14  and  C10_16
DOCKED: REMARK   14  A    between atoms: C8_14  and  C11_17
DOCKED: REMARK   15  A    between atoms: C12_18  and  C13_19
DOCKED: REMARK   16  A    between atoms: C12_18  and  C14_20
DOCKED: REMARK   17  A    between atoms: N3_23  and  C16_24
DOCKED: REMARK   18  A    between atoms: C16_24  and  C17_25
DOCKED: REMARK   19  A    between atoms: C16_24  and  C24_32
DOCKED: REMARK   20  A    between atoms: C17_25  and  C18_26
DOCKED: REMARK   21  A    between atoms: C24_32  and  O5_33
DOCKED: REMARK   22  A    between atoms: C24_32  and  C25_34
DOCKED: REMARK   23  A    between atoms: C25_34  and  C26_35
DOCKED: REMARK   24  A    between atoms: C26_35  and  C27_36
DOCKED: REMARK   25  A    between atoms: C26_35  and  C28_37
DOCKED: REMARK   26  A    between atoms: N4_39  and  C29_40
DOCKED: REMARK   27  A    between atoms: C29_40  and  C30_41
DOCKED: REMARK   28  A    between atoms: C29_40  and  C37_51
DOCKED: REMARK   29  A    between atoms: N5_43  and  C31_44
DOCKED: REMARK   30  A    between atoms: C31_44  and  C32_45
DOCKED: REMARK   31  A    between atoms: C37_51  and  C38_52
DOCKED: REMARK   32  A    between atoms: C37_51  and  C39_53
DOCKED: REMARK                            x       y       z     vdW  Elec       q    Type
DOCKED: REMARK                         _______ _______ _______ _____ _____    ______ ____
DOCKED: USER                              x       y       z     vdW  Elec       q    Type
DOCKED: USER                           _______ _______ _______ _____ _____    ______ ____
DOCKED: ROOT
DOCKED: ATOM      1  C16 UNL     1      13.310  -4.344  -1.391 +0.00 +0.00    +0.106 C  
DOCKED: ENDROOT
DOCKED: BRANCH   1   4
DOCKED: ATOM      2  C15 UNL     1      11.516  -5.692  -2.483 +0.00 +0.00    +0.234 C  
DOCKED: ATOM      3  O4  UNL     1      11.929  -6.759  -2.046 +0.00 -0.00    -0.274 OA 
DOCKED: ATOM      4  N3  UNL     1      12.190  -4.506  -2.326 +0.00 -0.00    -0.308 N  
DOCKED: ATOM      5  H28 UNL     1      11.691  -3.664  -2.579 +0.00 +0.00    +0.149 HD 
DOCKED: BRANCH   2   6
DOCKED: ATOM      6  C4  UNL     1      10.258  -5.603  -3.376 +0.00 +0.00    +0.160 C  
DOCKED: BRANCH   6   7
DOCKED: ATOM      7  N1  UNL     1      10.093  -4.279  -4.015 +0.00 -0.00    -0.302 N  
DOCKED: ATOM      8  C5  UNL     1       9.567  -3.222  -3.301 +0.00 +0.00    +0.234 C  
DOCKED: ATOM      9  O1  UNL     1       9.622  -3.208  -2.067 +0.00 -0.00    -0.274 OA 
DOCKED: ATOM     10  H9  UNL     1       9.930  -4.303  -5.008 +0.00 +0.00    +0.150 HD 
DOCKED: BRANCH   8  11
DOCKED: ATOM     11  C6  UNL     1       9.125  -1.970  -4.101 +0.00 +0.00    +0.165 C  
DOCKED: BRANCH  11  12
DOCKED: ATOM     12  N2  UNL     1       9.853  -0.830  -3.558 +0.00 -0.00    -0.270 N  
DOCKED: ATOM     13  C7  UNL     1      11.212  -0.811  -3.489 +0.00 +0.00    +0.401 C  
DOCKED: ATOM     14  O2  UNL     1      11.935  -1.779  -3.651 +0.00 -0.00    -0.226 OA 
DOCKED: ATOM     15  H11 UNL     1       9.421   0.082  -3.511 +0.00 +0.00    +0.153 HD 
DOCKED: BRANCH  13  16
DOCKED: ATOM     16  O3  UNL     1      11.604   0.446  -3.199 +0.00 -0.00    -0.445 OA 
DOCKED: BRANCH  16  17
DOCKED: ATOM     17  C8  UNL     1      11.630   1.466  -4.228 +0.00 +0.00    +0.107 C  
DOCKED: ATOM     18  C9  UNL     1      11.829   0.853  -5.618 +0.00 +0.00    +0.055 C  
DOCKED: ATOM     19  C10 UNL     1      12.855   2.332  -3.888 +0.00 +0.00    +0.055 C  
DOCKED: ATOM     20  C11 UNL     1      10.369   2.346  -4.184 +0.00 +0.00    +0.055 C  
DOCKED: ENDBRANCH  16  17
DOCKED: ENDBRANCH  13  16
DOCKED: ENDBRANCH  11  12
DOCKED: BRANCH  11  21
DOCKED: ATOM     21  C12 UNL     1       9.157  -1.999  -5.648 +0.00 +0.00    +0.012 C  
DOCKED: ATOM     22  C13 UNL     1      10.530  -2.278  -6.273 +0.00 +0.00    +0.009 C  
DOCKED: ATOM     23  C14 UNL     1       8.080  -2.907  -6.251 +0.00 +0.00    +0.009 C  
DOCKED: ENDBRANCH  11  21
DOCKED: ENDBRANCH   8  11
DOCKED: ENDBRANCH   6   7
DOCKED: BRANCH   6  24
DOCKED: ATOM     24  C3  UNL     1      10.314  -6.673  -4.475 +0.00 +0.00    +0.042 C  
DOCKED: BRANCH  24  25
DOCKED: ATOM     25  C2  UNL     1      11.651  -6.674  -5.217 +0.00 +0.00    +0.071 C  
DOCKED: BRANCH  25  27
DOCKED: ATOM     26  C1  UNL     1       9.848  -5.755  -7.121 +0.00 +0.00    +0.084 C  
DOCKED: ATOM     27  S1  UNL     1      11.591  -5.568  -6.665 +0.00 -0.00    -0.164 S  
DOCKED: ENDBRANCH  25  27
DOCKED: ENDBRANCH  24  25
DOCKED: ENDBRANCH   6  24
DOCKED: ENDBRANCH   2   6
DOCKED: ENDBRANCH   1   4
DOCKED: BRANCH   1  28
DOCKED: ATOM     28  C17 UNL     1      14.629  -4.204  -2.185 +0.00 +0.00    +0.060 C  
DOCKED: BRANCH  28  29
DOCKED: ATOM     29  C18 UNL     1      14.514  -3.337  -3.420 +0.00 -0.00    -0.046 A  
DOCKED: ATOM     30  C19 UNL     1      14.039  -3.865  -4.630 +0.00 +0.00    +0.004 A  
DOCKED: ATOM     31  C20 UNL     1      13.926  -3.053  -5.761 +0.00 +0.00    +0.000 A  
DOCKED: ATOM     32  C21 UNL     1      14.295  -1.709  -5.702 +0.00 +0.00    +0.000 A  
DOCKED: ATOM     33  C22 UNL     1      14.789  -1.174  -4.514 +0.00 +0.00    +0.000 A  
DOCKED: ATOM     34  C23 UNL     1      14.899  -1.985  -3.380 +0.00 +0.00    +0.004 A  
DOCKED: ENDBRANCH  28  29
DOCKED: ENDBRANCH   1  28
DOCKED: BRANCH   1  35
DOCKED: ATOM     35  C24 UNL     1      13.102  -3.083  -0.498 +0.00 +0.00    +0.136 C  
DOCKED: BRANCH  35  36
DOCKED: ATOM     36  O5  UNL     1      12.435  -2.081  -1.279 +0.00 -0.00    -0.390 OA 
DOCKED: ATOM     37  H38 UNL     1      11.643  -2.513  -1.668 +0.00 +0.00    +0.210 HD 
DOCKED: ENDBRANCH  35  36
DOCKED: BRANCH  35  38
DOCKED: ATOM     38  C25 UNL     1      12.312  -3.378   0.789 +0.00 +0.00    +0.045 C  
DOCKED: BRANCH  38  39
DOCKED: ATOM     39  C26 UNL     1      10.845  -3.808   0.554 +0.00 +0.00    +0.074 C  
DOCKED: ATOM     40  C27 UNL     1      10.345  -4.897   1.511 +0.00 +0.00    +0.017 C  
DOCKED: BRANCH  39  41
DOCKED: ATOM     41  C28 UNL     1       9.879  -2.623   0.645 +0.00 +0.00    +0.217 C  
DOCKED: ATOM     42  O6  UNL     1       8.931  -2.602   1.428 +0.00 -0.00    -0.276 OA 
DOCKED: ATOM     43  N4  UNL     1      10.194  -1.548  -0.152 +0.00 -0.00    -0.304 N  
DOCKED: ATOM     44  H45 UNL     1      10.724  -1.729  -1.001 +0.00 +0.00    +0.149 HD 
DOCKED: BRANCH  43  45
DOCKED: ATOM     45  C29 UNL     1       9.407  -0.325  -0.136 +0.00 +0.00    +0.161 C  
DOCKED: BRANCH  45  46
DOCKED: ATOM     46  C30 UNL     1       8.235  -0.464  -1.140 +0.00 +0.00    +0.234 C  
DOCKED: ATOM     47  O7  UNL     1       7.934   0.393  -1.967 +0.00 -0.00    -0.274 OA 
DOCKED: ATOM     48  N5  UNL     1       7.607  -1.688  -1.045 +0.00 -0.00    -0.310 N  
DOCKED: ATOM     49  H47 UNL     1       8.156  -2.424  -0.595 +0.00 +0.00    +0.149 HD 
DOCKED: BRANCH  48  50
DOCKED: ATOM     50  C31 UNL     1       6.548  -2.108  -1.926 +0.00 +0.00    +0.139 C  
DOCKED: BRANCH  50  51
DOCKED: ATOM     51  C32 UNL     1       6.602  -3.574  -2.270 +0.00 -0.00    -0.027 A  
DOCKED: ATOM     52  C33 UNL     1       7.027  -4.514  -1.320 +0.00 +0.00    +0.025 A  
DOCKED: ATOM     53  C34 UNL     1       7.117  -5.849  -1.695 +0.00 +0.00    +0.111 A  
DOCKED: ATOM     54  N6  UNL     1       6.848  -6.303  -2.937 +0.00 -0.00    -0.263 NA 
DOCKED: ATOM     55  C35 UNL     1       6.437  -5.382  -3.834 +0.00 +0.00    +0.111 A  
DOCKED: ATOM     56  C36 UNL     1       6.300  -4.031  -3.556 +0.00 +0.00    +0.025 A  
DOCKED: ENDBRANCH  50  51
DOCKED: ENDBRANCH  48  50
DOCKED: ENDBRANCH  45  46
DOCKED: BRANCH  45  57
DOCKED: ATOM     57  C37 UNL     1      10.256   0.943  -0.399 +0.00 +0.00    +0.012 C  
DOCKED: ATOM     58  C38 UNL     1       9.676   2.147   0.356 +0.00 +0.00    +0.009 C  
DOCKED: ATOM     59  C39 UNL     1      11.740   0.796  -0.057 +0.00 +0.00    +0.009 C  
DOCKED: ENDBRANCH  45  57
DOCKED: ENDBRANCH  43  45
DOCKED: ENDBRANCH  39  41
DOCKED: ENDBRANCH  38  39
DOCKED: ENDBRANCH  35  38
DOCKED: ENDBRANCH   1  35
DOCKED: TORSDOF 23
DOCKED: TER
DOCKED: ENDMDL
________________________________________________________________________________


    FINAL DOCKED STATE:
    ________________________


Run:   7 / 20
Time taken for this run:   2.355s

DOCKED: MODEL        7
DOCKED: USER    Run = 7
DOCKED: USER
DOCKED: USER    Estimated Free Energy of Binding    =  +6.86 kcal/mol  [=(1)+(2)+(3)-(4)]
DOCKED: USER
DOCKED: USER    (1) Final Intermolecular Energy     =  +0.00 kcal/mol
DOCKED: USER        vdW + Hbond + desolv Energy     =  +0.00 kcal/mol
DOCKED: USER        Electrostatic Energy            =  +0.00 kcal/mol
DOCKED: USER        Moving Ligand-Fixed Receptor    =  +0.00 kcal/mol
DOCKED: USER        Moving Ligand-Moving Receptor   =  +0.00 kcal/mol
DOCKED: USER    (2) Final Total Internal Energy     = -16.02 kcal/mol
DOCKED: USER    (3) Torsional Free Energy           =  +6.86 kcal/mol
DOCKED: USER    (4) Unbound System's Energy         = -16.02 kcal/mol
DOCKED: USER
DOCKED: USER
DOCKED: REMARK  Name = ligands/ligand_23.pdb
DOCKED: REMARK  32 active torsions:
DOCKED: REMARK  status: ('A' for Active; 'I' for Inactive)
DOCKED: REMARK    1  A    between atoms: C1_1  and  S1_2
DOCKED: REMARK    2  A    between atoms: S1_2  and  C2_3
DOCKED: REMARK    3  A    between atoms: C2_3  and  C3_4
DOCKED: REMARK    4  A    between atoms: C3_4  and  C4_5
DOCKED: REMARK    5  A    between atoms: C4_5  and  N1_6
DOCKED: REMARK    6  A    between atoms: C4_5  and  C15_21
DOCKED: REMARK    7  A    between atoms: C5_7  and  C6_9
DOCKED: REMARK    8  A    between atoms: C6_9  and  N2_10
DOCKED: REMARK    9  A    between atoms: C6_9  and  C12_18
DOCKED: REMARK   10  A    between atoms: C7_11  and  O3_13
DOCKED: REMARK   11  A    between atoms: O3_13  and  C8_14
DOCKED: REMARK   12  A    between atoms: C8_14  and  C9_15
DOCKED: REMARK   13  A    between atoms: C8_14  and  C10_16
DOCKED: REMARK   14  A    between atoms: C8_14  and  C11_17
DOCKED: REMARK   15  A    between atoms: C12_18  and  C13_19
DOCKED: REMARK   16  A    between atoms: C12_18  and  C14_20
DOCKED: REMARK   17  A    between atoms: N3_23  and  C16_24
DOCKED: REMARK   18  A    between atoms: C16_24  and  C17_25
DOCKED: REMARK   19  A    between atoms: C16_24  and  C24_32
DOCKED: REMARK   20  A    between atoms: C17_25  and  C18_26
DOCKED: REMARK   21  A    between atoms: C24_32  and  O5_33
DOCKED: REMARK   22  A    between atoms: C24_32  and  C25_34
DOCKED: REMARK   23  A    between atoms: C25_34  and  C26_35
DOCKED: REMARK   24  A    between atoms: C26_35  and  C27_36
DOCKED: REMARK   25  A    between atoms: C26_35  and  C28_37
DOCKED: REMARK   26  A    between atoms: N4_39  and  C29_40
DOCKED: REMARK   27  A    between atoms: C29_40  and  C30_41
DOCKED: REMARK   28  A    between atoms: C29_40  and  C37_51
DOCKED: REMARK   29  A    between atoms: N5_43  and  C31_44
DOCKED: REMARK   30  A    between atoms: C31_44  and  C32_45
DOCKED: REMARK   31  A    between atoms: C37_51  and  C38_52
DOCKED: REMARK   32  A    between atoms: C37_51  and  C39_53
DOCKED: REMARK                            x       y       z     vdW  Elec       q    Type
DOCKED: REMARK                         _______ _______ _______ _____ _____    ______ ____
DOCKED: USER                              x       y       z     vdW  Elec       q    Type
DOCKED: USER                           _______ _______ _______ _____ _____    ______ ____
DOCKED: ROOT
DOCKED: ATOM      1  C16 UNL     1      12.823   0.155  -0.614 +0.00 +0.00    +0.106 C  
DOCKED: ENDROOT
DOCKED: BRANCH   1   4
DOCKED: ATOM      2  C15 UNL     1      11.767  -0.013   1.640 +0.00 +0.00    +0.234 C  
DOCKED: ATOM      3  O4  UNL     1      12.826   0.105   2.243 +0.00 -0.00    -0.274 OA 
DOCKED: ATOM      4  N3  UNL     1      11.690  -0.131   0.275 +0.00 -0.00    -0.308 N  
DOCKED: ATOM      5  H28 UNL     1      10.768  -0.060  -0.135 +0.00 +0.00    +0.149 HD 
DOCKED: BRANCH   2   6
DOCKED: ATOM      6  C4  UNL     1      10.418  -0.179   2.377 +0.00 +0.00    +0.160 C  
DOCKED: BRANCH   6   7
DOCKED: ATOM      7  N1  UNL     1       9.315  -0.588   1.480 +0.00 -0.00    -0.302 N  
DOCKED: ATOM      8  C5  UNL     1       8.679   0.345   0.689 +0.00 +0.00    +0.234 C  
DOCKED: ATOM      9  O1  UNL     1       9.247   1.398   0.379 +0.00 -0.00    -0.274 OA 
DOCKED: ATOM     10  H9  UNL     1       8.779  -1.379   1.799 +0.00 +0.00    +0.150 HD 
DOCKED: BRANCH   8  11
DOCKED: ATOM     11  C6  UNL     1       7.343  -0.074   0.024 +0.00 +0.00    +0.165 C  
DOCKED: BRANCH  11  12
DOCKED: ATOM     12  N2  UNL     1       7.483   0.150  -1.409 +0.00 -0.00    -0.270 N  
DOCKED: ATOM     13  C7  UNL     1       8.487  -0.418  -2.131 +0.00 +0.00    +0.401 C  
DOCKED: ATOM     14  O2  UNL     1       9.467  -0.967  -1.656 +0.00 -0.00    -0.226 OA 
DOCKED: ATOM     15  H11 UNL     1       6.696   0.458  -1.963 +0.00 +0.00    +0.153 HD 
DOCKED: BRANCH  13  16
DOCKED: ATOM     16  O3  UNL     1       8.213  -0.254  -3.441 +0.00 -0.00    -0.445 OA 
DOCKED: BRANCH  16  17
DOCKED: ATOM     17  C8  UNL     1       7.309  -1.157  -4.124 +0.00 +0.00    +0.107 C  
DOCKED: ATOM     18  C9  UNL     1       7.186  -2.491  -3.382 +0.00 +0.00    +0.055 C  
DOCKED: ATOM     19  C10 UNL     1       7.968  -1.409  -5.491 +0.00 +0.00    +0.055 C  
DOCKED: ATOM     20  C11 UNL     1       5.929  -0.514  -4.345 +0.00 +0.00    +0.055 C  
DOCKED: ENDBRANCH  16  17
DOCKED: ENDBRANCH  13  16
DOCKED: ENDBRANCH  11  12
DOCKED: BRANCH  11  21
DOCKED: ATOM     21  C12 UNL     1       6.732  -1.460   0.341 +0.00 +0.00    +0.012 C  
DOCKED: ATOM     22  C13 UNL     1       7.631  -2.663   0.029 +0.00 +0.00    +0.009 C  
DOCKED: ATOM     23  C14 UNL     1       6.158  -1.551   1.759 +0.00 +0.00    +0.009 C  
DOCKED: ENDBRANCH  11  21
DOCKED: ENDBRANCH   8  11
DOCKED: ENDBRANCH   6   7
DOCKED: BRANCH   6  24
DOCKED: ATOM     24  C3  UNL     1      10.552  -1.223   3.495 +0.00 +0.00    +0.042 C  
DOCKED: BRANCH  24  25
DOCKED: ATOM     25  C2  UNL     1      11.185  -2.525   3.001 +0.00 +0.00    +0.071 C  
DOCKED: BRANCH  25  27
DOCKED: ATOM     26  C1  UNL     1       8.570  -3.276   3.565 +0.00 +0.00    +0.084 C  
DOCKED: ATOM     27  S1  UNL     1       9.908  -3.686   2.414 +0.00 -0.00    -0.164 S  
DOCKED: ENDBRANCH  25  27
DOCKED: ENDBRANCH  24  25
DOCKED: ENDBRANCH   6  24
DOCKED: ENDBRANCH   2   6
DOCKED: ENDBRANCH   1   4
DOCKED: BRANCH   1  28
DOCKED: ATOM     28  C17 UNL     1      13.353  -1.168  -1.214 +0.00 +0.00    +0.060 C  
DOCKED: BRANCH  28  29
DOCKED: ATOM     29  C18 UNL     1      12.266  -2.139  -1.621 +0.00 -0.00    -0.046 A  
DOCKED: ATOM     30  C19 UNL     1      11.676  -2.997  -0.681 +0.00 +0.00    +0.004 A  
DOCKED: ATOM     31  C20 UNL     1      10.665  -3.881  -1.065 +0.00 +0.00    +0.000 A  
DOCKED: ATOM     32  C21 UNL     1      10.239  -3.927  -2.392 +0.00 +0.00    +0.000 A  
DOCKED: ATOM     33  C22 UNL     1      10.828  -3.097  -3.343 +0.00 +0.00    +0.000 A  
DOCKED: ATOM     34  C23 UNL     1      11.838  -2.209  -2.959 +0.00 +0.00    +0.004 A  
DOCKED: ENDBRANCH  28  29
DOCKED: ENDBRANCH   1  28
DOCKED: BRANCH   1  35
DOCKED: ATOM     35  C24 UNL     1      12.389   1.113  -1.765 +0.00 +0.00    +0.136 C  
DOCKED: BRANCH  35  36
DOCKED: ATOM     36  O5  UNL     1      11.030   0.816  -2.114 +0.00 -0.00    -0.390 OA 
DOCKED: ATOM     37  H38 UNL     1      10.524   0.799  -1.271 +0.00 +0.00    +0.210 HD 
DOCKED: ENDBRANCH  35  36
DOCKED: BRANCH  35  38
DOCKED: ATOM     38  C25 UNL     1      12.540   2.601  -1.402 +0.00 +0.00    +0.045 C  
DOCKED: BRANCH  38  39
DOCKED: ATOM     39  C26 UNL     1      11.596   3.082  -0.276 +0.00 +0.00    +0.074 C  
DOCKED: ATOM     40  C27 UNL     1      12.225   4.098   0.685 +0.00 +0.00    +0.017 C  
DOCKED: BRANCH  39  41
DOCKED: ATOM     41  C28 UNL     1      10.308   3.697  -0.831 +0.00 +0.00    +0.217 C  
DOCKED: ATOM     42  O6  UNL     1       9.953   4.843  -0.562 +0.00 -0.00    -0.276 OA 
DOCKED: ATOM     43  N4  UNL     1       9.618   2.907  -1.720 +0.00 -0.00    -0.304 N  
DOCKED: ATOM     44  H45 UNL     1       9.725   1.899  -1.637 +0.00 +0.00    +0.149 HD 
DOCKED: BRANCH  43  45
DOCKED: ATOM     45  C29 UNL     1       8.407   3.371  -2.378 +0.00 +0.00    +0.161 C  
DOCKED: BRANCH  45  46
DOCKED: ATOM     46  C30 UNL     1       7.188   3.065  -1.472 +0.00 +0.00    +0.234 C  
DOCKED: ATOM     47  O7  UNL     1       6.147   2.549  -1.871 +0.00 -0.00    -0.274 OA 
DOCKED: ATOM     48  N5  UNL     1       7.428   3.377  -0.150 +0.00 -0.00    -0.310 N  
DOCKED: ATOM     49  H47 UNL     1       8.415   3.452   0.107 +0.00 +0.00    +0.149 HD 
DOCKED: BRANCH  48  50
DOCKED: ATOM     50  C31 UNL     1       6.495   3.104   0.912 +0.00 +0.00    +0.139 C  
DOCKED: BRANCH  50  51
DOCKED: ATOM     51  C32 UNL     1       7.158   2.670   2.194 +0.00 -0.00    -0.027 A  
DOCKED: ATOM     52  C33 UNL     1       8.374   3.240   2.596 +0.00 +0.00    +0.025 A  
DOCKED: ATOM     53  C34 UNL     1       8.982   2.771   3.755 +0.00 +0.00    +0.111 A  
DOCKED: ATOM     54  N6  UNL     1       8.487   1.770   4.513 +0.00 -0.00    -0.263 NA 
DOCKED: ATOM     55  C35 UNL     1       7.313   1.239   4.110 +0.00 +0.00    +0.111 A  
DOCKED: ATOM     56  C36 UNL     1       6.622   1.646   2.980 +0.00 +0.00    +0.025 A  
DOCKED: ENDBRANCH  50  51
DOCKED: ENDBRANCH  48  50
DOCKED: ENDBRANCH  45  46
DOCKED: BRANCH  45  57
DOCKED: ATOM     57  C37 UNL     1       8.235   2.793  -3.805 +0.00 +0.00    +0.012 C  
DOCKED: ATOM     58  C38 UNL     1       7.499   3.792  -4.707 +0.00 +0.00    +0.009 C  
DOCKED: ATOM     59  C39 UNL     1       9.541   2.365  -4.479 +0.00 +0.00    +0.009 C  
DOCKED: ENDBRANCH  45  57
DOCKED: ENDBRANCH  43  45
DOCKED: ENDBRANCH  39  41
DOCKED: ENDBRANCH  38  39
DOCKED: ENDBRANCH  35  38
DOCKED: ENDBRANCH   1  35
DOCKED: TORSDOF 23
DOCKED: TER
DOCKED: ENDMDL
________________________________________________________________________________


    FINAL DOCKED STATE:
    ________________________


Run:   8 / 20
Time taken for this run:   2.355s

DOCKED: MODEL        8
DOCKED: USER    Run = 8
DOCKED: USER
DOCKED: USER    Estimated Free Energy of Binding    =  +6.86 kcal/mol  [=(1)+(2)+(3)-(4)]
DOCKED: USER
DOCKED: USER    (1) Final Intermolecular Energy     =  +0.00 kcal/mol
DOCKED: USER        vdW + Hbond + desolv Energy     =  +0.00 kcal/mol
DOCKED: USER        Electrostatic Energy            =  +0.00 kcal/mol
DOCKED: USER        Moving Ligand-Fixed Receptor    =  +0.00 kcal/mol
DOCKED: USER        Moving Ligand-Moving Receptor   =  +0.00 kcal/mol
DOCKED: USER    (2) Final Total Internal Energy     = -16.01 kcal/mol
DOCKED: USER    (3) Torsional Free Energy           =  +6.86 kcal/mol
DOCKED: USER    (4) Unbound System's Energy         = -16.01 kcal/mol
DOCKED: USER
DOCKED: USER
DOCKED: REMARK  Name = ligands/ligand_23.pdb
DOCKED: REMARK  32 active torsions:
DOCKED: REMARK  status: ('A' for Active; 'I' for Inactive)
DOCKED: REMARK    1  A    between atoms: C1_1  and  S1_2
DOCKED: REMARK    2  A    between atoms: S1_2  and  C2_3
DOCKED: REMARK    3  A    between atoms: C2_3  and  C3_4
DOCKED: REMARK    4  A    between atoms: C3_4  and  C4_5
DOCKED: REMARK    5  A    between atoms: C4_5  and  N1_6
DOCKED: REMARK    6  A    between atoms: C4_5  and  C15_21
DOCKED: REMARK    7  A    between atoms: C5_7  and  C6_9
DOCKED: REMARK    8  A    between atoms: C6_9  and  N2_10
DOCKED: REMARK    9  A    between atoms: C6_9  and  C12_18
DOCKED: REMARK   10  A    between atoms: C7_11  and  O3_13
DOCKED: REMARK   11  A    between atoms: O3_13  and  C8_14
DOCKED: REMARK   12  A    between atoms: C8_14  and  C9_15
DOCKED: REMARK   13  A    between atoms: C8_14  and  C10_16
DOCKED: REMARK   14  A    between atoms: C8_14  and  C11_17
DOCKED: REMARK   15  A    between atoms: C12_18  and  C13_19
DOCKED: REMARK   16  A    between atoms: C12_18  and  C14_20
DOCKED: REMARK   17  A    between atoms: N3_23  and  C16_24
DOCKED: REMARK   18  A    between atoms: C16_24  and  C17_25
DOCKED: REMARK   19  A    between atoms: C16_24  and  C24_32
DOCKED: REMARK   20  A    between atoms: C17_25  and  C18_26
DOCKED: REMARK   21  A    between atoms: C24_32  and  O5_33
DOCKED: REMARK   22  A    between atoms: C24_32  and  C25_34
DOCKED: REMARK   23  A    between atoms: C25_34  and  C26_35
DOCKED: REMARK   24  A    between atoms: C26_35  and  C27_36
DOCKED: REMARK   25  A    between atoms: C26_35  and  C28_37
DOCKED: REMARK   26  A    between atoms: N4_39  and  C29_40
DOCKED: REMARK   27  A    between atoms: C29_40  and  C30_41
DOCKED: REMARK   28  A    between atoms: C29_40  and  C37_51
DOCKED: REMARK   29  A    between atoms: N5_43  and  C31_44
DOCKED: REMARK   30  A    between atoms: C31_44  and  C32_45
DOCKED: REMARK   31  A    between atoms: C37_51  and  C38_52
DOCKED: REMARK   32  A    between atoms: C37_51  and  C39_53
DOCKED: REMARK                            x       y       z     vdW  Elec       q    Type
DOCKED: REMARK                         _______ _______ _______ _____ _____    ______ ____
DOCKED: USER                              x       y       z     vdW  Elec       q    Type
DOCKED: USER                           _______ _______ _______ _____ _____    ______ ____
DOCKED: ROOT
DOCKED: ATOM      1  C16 UNL     1       9.512  -7.380   2.863 +0.00 +0.00    +0.106 C  
DOCKED: ENDROOT
DOCKED: BRANCH   1   4
DOCKED: ATOM      2  C15 UNL     1       7.440  -8.706   3.275 +0.00 +0.00    +0.234 C  
DOCKED: ATOM      3  O4  UNL     1       7.986  -9.785   3.086 +0.00 -0.00    -0.274 OA 
DOCKED: ATOM      4  N3  UNL     1       8.063  -7.502   3.062 +0.00 -0.00    -0.308 N  
DOCKED: ATOM      5  H28 UNL     1       7.585  -6.677   3.400 +0.00 +0.00    +0.149 HD 
DOCKED: BRANCH   2   6
DOCKED: ATOM      6  C4  UNL     1       5.943  -8.598   3.645 +0.00 +0.00    +0.160 C  
DOCKED: BRANCH   6   7
DOCKED: ATOM      7  N1  UNL     1       5.416  -7.221   3.533 +0.00 -0.00    -0.302 N  
DOCKED: ATOM      8  C5  UNL     1       5.644  -6.304   4.538 +0.00 +0.00    +0.234 C  
DOCKED: ATOM      9  O1  UNL     1       6.600  -6.442   5.308 +0.00 -0.00    -0.274 OA 
DOCKED: ATOM     10  H9  UNL     1       4.566  -7.132   2.999 +0.00 +0.00    +0.150 HD 
DOCKED: BRANCH   8  11
DOCKED: ATOM     11  C6  UNL     1       4.810  -4.998   4.517 +0.00 +0.00    +0.165 C  
DOCKED: BRANCH  11  12
DOCKED: ATOM     12  N2  UNL     1       5.749  -3.884   4.511 +0.00 -0.00    -0.270 N  
DOCKED: ATOM     13  C7  UNL     1       6.720  -3.767   3.564 +0.00 +0.00    +0.401 C  
DOCKED: ATOM     14  O2  UNL     1       7.049  -4.645   2.786 +0.00 -0.00    -0.226 OA 
DOCKED: ATOM     15  H11 UNL     1       5.531  -3.022   4.991 +0.00 +0.00    +0.153 HD 
DOCKED: BRANCH  13  16
DOCKED: ATOM     16  O3  UNL     1       7.251  -2.531   3.653 +0.00 -0.00    -0.445 OA 
DOCKED: BRANCH  16  17
DOCKED: ATOM     17  C8  UNL     1       6.577  -1.394   3.058 +0.00 +0.00    +0.107 C  
DOCKED: ATOM     18  C9  UNL     1       5.655  -1.827   1.914 +0.00 +0.00    +0.055 C  
DOCKED: ATOM     19  C10 UNL     1       7.708  -0.526   2.482 +0.00 +0.00    +0.055 C  
DOCKED: ATOM     20  C11 UNL     1       5.809  -0.578   4.112 +0.00 +0.00    +0.055 C  
DOCKED: ENDBRANCH  16  17
DOCKED: ENDBRANCH  13  16
DOCKED: ENDBRANCH  11  12
DOCKED: BRANCH  11  21
DOCKED: ATOM     21  C12 UNL     1       3.690  -4.822   3.464 +0.00 +0.00    +0.012 C  
DOCKED: ATOM     22  C13 UNL     1       4.139  -4.926   2.001 +0.00 +0.00    +0.009 C  
DOCKED: ATOM     23  C14 UNL     1       2.471  -5.712   3.732 +0.00 +0.00    +0.009 C  
DOCKED: ENDBRANCH  11  21
DOCKED: ENDBRANCH   8  11
DOCKED: ENDBRANCH   6   7
DOCKED: BRANCH   6  24
DOCKED: ATOM     24  C3  UNL     1       5.108  -9.516   2.739 +0.00 +0.00    +0.042 C  
DOCKED: BRANCH  24  25
DOCKED: ATOM     25  C2  UNL     1       5.415  -9.303   1.257 +0.00 +0.00    +0.071 C  
DOCKED: BRANCH  25  27
DOCKED: ATOM     26  C1  UNL     1       2.822  -8.352   1.555 +0.00 +0.00    +0.084 C  
DOCKED: ATOM     27  S1  UNL     1       4.289  -8.068   0.530 +0.00 -0.00    -0.164 S  
DOCKED: ENDBRANCH  25  27
DOCKED: ENDBRANCH  24  25
DOCKED: ENDBRANCH   6  24
DOCKED: ENDBRANCH   2   6
DOCKED: ENDBRANCH   1   4
DOCKED: BRANCH   1  28
DOCKED: ATOM     28  C17 UNL     1       9.802  -7.034   1.384 +0.00 +0.00    +0.060 C  
DOCKED: BRANCH  28  29
DOCKED: ATOM     29  C18 UNL     1       8.828  -6.045   0.781 +0.00 -0.00    -0.046 A  
DOCKED: ATOM     30  C19 UNL     1       7.590  -6.469   0.277 +0.00 +0.00    +0.004 A  
DOCKED: ATOM     31  C20 UNL     1       6.693  -5.546  -0.267 +0.00 +0.00    +0.000 A  
DOCKED: ATOM     32  C21 UNL     1       7.025  -4.192  -0.324 +0.00 +0.00    +0.000 A  
DOCKED: ATOM     33  C22 UNL     1       8.259  -3.757   0.153 +0.00 +0.00    +0.000 A  
DOCKED: ATOM     34  C23 UNL     1       9.156  -4.680   0.701 +0.00 +0.00    +0.004 A  
DOCKED: ENDBRANCH  28  29
DOCKED: ENDBRANCH   1  28
DOCKED: BRANCH   1  35
DOCKED: ATOM     35  C24 UNL     1      10.102  -6.268   3.784 +0.00 +0.00    +0.136 C  
DOCKED: BRANCH  35  36
DOCKED: ATOM     36  O5  UNL     1       9.132  -5.217   3.901 +0.00 -0.00    -0.390 OA 
DOCKED: ATOM     37  H38 UNL     1       8.283  -5.648   4.143 +0.00 +0.00    +0.210 HD 
DOCKED: ENDBRANCH  35  36
DOCKED: BRANCH  35  38
DOCKED: ATOM     38  C25 UNL     1      10.505  -6.787   5.175 +0.00 +0.00    +0.045 C  
DOCKED: BRANCH  38  39
DOCKED: ATOM     39  C26 UNL     1       9.321  -7.273   6.043 +0.00 +0.00    +0.074 C  
DOCKED: ATOM     40  C27 UNL     1       9.628  -8.515   6.890 +0.00 +0.00    +0.017 C  
DOCKED: BRANCH  39  41
DOCKED: ATOM     41  C28 UNL     1       8.812  -6.178   6.983 +0.00 +0.00    +0.217 C  
DOCKED: ATOM     42  O6  UNL     1       8.780  -6.316   8.205 +0.00 -0.00    -0.276 OA 
DOCKED: ATOM     43  N4  UNL     1       8.470  -4.994   6.372 +0.00 -0.00    -0.304 N  
DOCKED: ATOM     44  H45 UNL     1       8.170  -5.034   5.402 +0.00 +0.00    +0.149 HD 
DOCKED: BRANCH  43  45
DOCKED: ATOM     45  C29 UNL     1       8.023  -3.839   7.135 +0.00 +0.00    +0.161 C  
DOCKED: BRANCH  45  46
DOCKED: ATOM     46  C30 UNL     1       6.491  -3.931   7.344 +0.00 +0.00    +0.234 C  
DOCKED: ATOM     47  O7  UNL     1       5.713  -3.000   7.150 +0.00 -0.00    -0.274 OA 
DOCKED: ATOM     48  N5  UNL     1       6.089  -5.199   7.711 +0.00 -0.00    -0.310 N  
DOCKED: ATOM     49  H47 UNL     1       6.752  -5.946   7.492 +0.00 +0.00    +0.149 HD 
DOCKED: BRANCH  48  50
DOCKED: ATOM     50  C31 UNL     1       4.709  -5.577   7.877 +0.00 +0.00    +0.139 C  
DOCKED: BRANCH  50  51
DOCKED: ATOM     51  C32 UNL     1       4.407  -6.968   7.382 +0.00 -0.00    -0.027 A  
DOCKED: ATOM     52  C33 UNL     1       5.344  -8.000   7.539 +0.00 +0.00    +0.025 A  
DOCKED: ATOM     53  C34 UNL     1       5.050  -9.254   7.018 +0.00 +0.00    +0.111 A  
DOCKED: ATOM     54  N6  UNL     1       3.920  -9.542   6.337 +0.00 -0.00    -0.263 NA 
DOCKED: ATOM     55  C35 UNL     1       3.031  -8.536   6.202 +0.00 +0.00    +0.111 A  
DOCKED: ATOM     56  C36 UNL     1       3.223  -7.255   6.697 +0.00 +0.00    +0.025 A  
DOCKED: ENDBRANCH  50  51
DOCKED: ENDBRANCH  48  50
DOCKED: ENDBRANCH  45  46
DOCKED: BRANCH  45  57
DOCKED: ATOM     57  C37 UNL     1       8.447  -2.493   6.496 +0.00 +0.00    +0.012 C  
DOCKED: ATOM     58  C38 UNL     1       8.658  -1.426   7.577 +0.00 +0.00    +0.009 C  
DOCKED: ATOM     59  C39 UNL     1       9.692  -2.574   5.611 +0.00 +0.00    +0.009 C  
DOCKED: ENDBRANCH  45  57
DOCKED: ENDBRANCH  43  45
DOCKED: ENDBRANCH  39  41
DOCKED: ENDBRANCH  38  39
DOCKED: ENDBRANCH  35  38
DOCKED: ENDBRANCH   1  35
DOCKED: TORSDOF 23
DOCKED: TER
DOCKED: ENDMDL
________________________________________________________________________________


    FINAL DOCKED STATE:
    ________________________


Run:   9 / 20
Time taken for this run:   2.355s

DOCKED: MODEL        9
DOCKED: USER    Run = 9
DOCKED: USER
DOCKED: USER    Estimated Free Energy of Binding    =  +6.86 kcal/mol  [=(1)+(2)+(3)-(4)]
DOCKED: USER
DOCKED: USER    (1) Final Intermolecular Energy     =  +0.00 kcal/mol
DOCKED: USER        vdW + Hbond + desolv Energy     =  +0.00 kcal/mol
DOCKED: USER        Electrostatic Energy            =  +0.00 kcal/mol
DOCKED: USER        Moving Ligand-Fixed Receptor    =  +0.00 kcal/mol
DOCKED: USER        Moving Ligand-Moving Receptor   =  +0.00 kcal/mol
DOCKED: USER    (2) Final Total Internal Energy     = -16.02 kcal/mol
DOCKED: USER    (3) Torsional Free Energy           =  +6.86 kcal/mol
DOCKED: USER    (4) Unbound System's Energy         = -16.02 kcal/mol
DOCKED: USER
DOCKED: USER
DOCKED: REMARK  Name = ligands/ligand_23.pdb
DOCKED: REMARK  32 active torsions:
DOCKED: REMARK  status: ('A' for Active; 'I' for Inactive)
DOCKED: REMARK    1  A    between atoms: C1_1  and  S1_2
DOCKED: REMARK    2  A    between atoms: S1_2  and  C2_3
DOCKED: REMARK    3  A    between atoms: C2_3  and  C3_4
DOCKED: REMARK    4  A    between atoms: C3_4  and  C4_5
DOCKED: REMARK    5  A    between atoms: C4_5  and  N1_6
DOCKED: REMARK    6  A    between atoms: C4_5  and  C15_21
DOCKED: REMARK    7  A    between atoms: C5_7  and  C6_9
DOCKED: REMARK    8  A    between atoms: C6_9  and  N2_10
DOCKED: REMARK    9  A    between atoms: C6_9  and  C12_18
DOCKED: REMARK   10  A    between atoms: C7_11  and  O3_13
DOCKED: REMARK   11  A    between atoms: O3_13  and  C8_14
DOCKED: REMARK   12  A    between atoms: C8_14  and  C9_15
DOCKED: REMARK   13  A    between atoms: C8_14  and  C10_16
DOCKED: REMARK   14  A    between atoms: C8_14  and  C11_17
DOCKED: REMARK   15  A    between atoms: C12_18  and  C13_19
DOCKED: REMARK   16  A    between atoms: C12_18  and  C14_20
DOCKED: REMARK   17  A    between atoms: N3_23  and  C16_24
DOCKED: REMARK   18  A    between atoms: C16_24  and  C17_25
DOCKED: REMARK   19  A    between atoms: C16_24  and  C24_32
DOCKED: REMARK   20  A    between atoms: C17_25  and  C18_26
DOCKED: REMARK   21  A    between atoms: C24_32  and  O5_33
DOCKED: REMARK   22  A    between atoms: C24_32  and  C25_34
DOCKED: REMARK   23  A    between atoms: C25_34  and  C26_35
DOCKED: REMARK   24  A    between atoms: C26_35  and  C27_36
DOCKED: REMARK   25  A    between atoms: C26_35  and  C28_37
DOCKED: REMARK   26  A    between atoms: N4_39  and  C29_40
DOCKED: REMARK   27  A    between atoms: C29_40  and  C30_41
DOCKED: REMARK   28  A    between atoms: C29_40  and  C37_51
DOCKED: REMARK   29  A    between atoms: N5_43  and  C31_44
DOCKED: REMARK   30  A    between atoms: C31_44  and  C32_45
DOCKED: REMARK   31  A    between atoms: C37_51  and  C38_52
DOCKED: REMARK   32  A    between atoms: C37_51  and  C39_53
DOCKED: REMARK                            x       y       z     vdW  Elec       q    Type
DOCKED: REMARK                         _______ _______ _______ _____ _____    ______ ____
DOCKED: USER                              x       y       z     vdW  Elec       q    Type
DOCKED: USER                           _______ _______ _______ _____ _____    ______ ____
DOCKED: ROOT
DOCKED: ATOM      1  C16 UNL     1       7.279  -3.157  -1.938 +0.00 +0.00    +0.106 C  
DOCKED: ENDROOT
DOCKED: BRANCH   1   4
DOCKED: ATOM      2  C15 UNL     1       9.147  -2.041  -3.159 +0.00 +0.00    +0.234 C  
DOCKED: ATOM      3  O4  UNL     1       9.964  -2.911  -2.885 +0.00 -0.00    -0.274 OA 
DOCKED: ATOM      4  N3  UNL     1       7.877  -2.014  -2.639 +0.00 -0.00    -0.308 N  
DOCKED: ATOM      5  H28 UNL     1       7.233  -1.351  -3.050 +0.00 +0.00    +0.149 HD 
DOCKED: BRANCH   2   6
DOCKED: ATOM      6  C4  UNL     1       9.518  -0.809  -4.016 +0.00 +0.00    +0.160 C  
DOCKED: BRANCH   6   7
DOCKED: ATOM      7  N1  UNL     1       8.484   0.248  -3.987 +0.00 -0.00    -0.302 N  
DOCKED: ATOM      8  C5  UNL     1       7.355   0.139  -4.773 +0.00 +0.00    +0.234 C  
DOCKED: ATOM      9  O1  UNL     1       6.968  -0.966  -5.165 +0.00 -0.00    -0.274 OA 
DOCKED: ATOM     10  H9  UNL     1       8.826   1.173  -3.782 +0.00 +0.00    +0.150 HD 
DOCKED: BRANCH   8  11
DOCKED: ATOM     11  C6  UNL     1       6.479   1.406  -4.943 +0.00 +0.00    +0.165 C  
DOCKED: BRANCH  11  12
DOCKED: ATOM     12  N2  UNL     1       5.129   1.059  -4.517 +0.00 -0.00    -0.270 N  
DOCKED: ATOM     13  C7  UNL     1       4.873   0.552  -3.280 +0.00 +0.00    +0.401 C  
DOCKED: ATOM     14  O2  UNL     1       5.718   0.136  -2.505 +0.00 -0.00    -0.226 OA 
DOCKED: ATOM     15  H11 UNL     1       4.323   1.462  -4.975 +0.00 +0.00    +0.153 HD 
DOCKED: BRANCH  13  16
DOCKED: ATOM     16  O3  UNL     1       3.540   0.580  -3.077 +0.00 -0.00    -0.445 OA 
DOCKED: BRANCH  16  17
DOCKED: ATOM     17  C8  UNL     1       2.884   1.799  -2.650 +0.00 +0.00    +0.107 C  
DOCKED: ATOM     18  C9  UNL     1       3.855   2.726  -1.910 +0.00 +0.00    +0.055 C  
DOCKED: ATOM     19  C10 UNL     1       1.797   1.334  -1.667 +0.00 +0.00    +0.055 C  
DOCKED: ATOM     20  C11 UNL     1       2.215   2.524  -3.830 +0.00 +0.00    +0.055 C  
DOCKED: ENDBRANCH  16  17
DOCKED: ENDBRANCH  13  16
DOCKED: ENDBRANCH  11  12
DOCKED: BRANCH  11  21
DOCKED: ATOM     21  C12 UNL     1       6.952   2.751  -4.343 +0.00 +0.00    +0.012 C  
DOCKED: ATOM     22  C13 UNL     1       7.187   2.750  -2.827 +0.00 +0.00    +0.009 C  
DOCKED: ATOM     23  C14 UNL     1       8.151   3.349  -5.087 +0.00 +0.00    +0.009 C  
DOCKED: ENDBRANCH  11  21
DOCKED: ENDBRANCH   8  11
DOCKED: ENDBRANCH   6   7
DOCKED: BRANCH   6  24
DOCKED: ATOM     24  C3  UNL     1      10.845  -0.209  -3.530 +0.00 +0.00    +0.042 C  
DOCKED: BRANCH  24  25
DOCKED: ATOM     25  C2  UNL     1      10.850   0.043  -2.022 +0.00 +0.00    +0.071 C  
DOCKED: BRANCH  25  27
DOCKED: ATOM     26  C1  UNL     1      10.893   2.598  -3.113 +0.00 +0.00    +0.084 C  
DOCKED: ATOM     27  S1  UNL     1      10.282   1.733  -1.643 +0.00 -0.00    -0.164 S  
DOCKED: ENDBRANCH  25  27
DOCKED: ENDBRANCH  24  25
DOCKED: ENDBRANCH   6  24
DOCKED: ENDBRANCH   2   6
DOCKED: ENDBRANCH   1   4
DOCKED: BRANCH   1  28
DOCKED: ATOM     28  C17 UNL     1       7.181  -2.841  -0.428 +0.00 +0.00    +0.060 C  
DOCKED: BRANCH  28  29
DOCKED: ATOM     29  C18 UNL     1       6.787  -1.412  -0.121 +0.00 -0.00    -0.046 A  
DOCKED: ATOM     30  C19 UNL     1       7.742  -0.385  -0.124 +0.00 +0.00    +0.004 A  
DOCKED: ATOM     31  C20 UNL     1       7.365   0.933   0.149 +0.00 +0.00    +0.000 A  
DOCKED: ATOM     32  C21 UNL     1       6.035   1.238   0.437 +0.00 +0.00    +0.000 A  
DOCKED: ATOM     33  C22 UNL     1       5.078   0.226   0.464 +0.00 +0.00    +0.000 A  
DOCKED: ATOM     34  C23 UNL     1       5.453  -1.092   0.188 +0.00 +0.00    +0.004 A  
DOCKED: ENDBRANCH  28  29
DOCKED: ENDBRANCH   1  28
DOCKED: BRANCH   1  35
DOCKED: ATOM     35  C24 UNL     1       5.856  -3.462  -2.500 +0.00 +0.00    +0.136 C  
DOCKED: BRANCH  35  36
DOCKED: ATOM     36  O5  UNL     1       5.240  -2.220  -2.871 +0.00 -0.00    -0.390 OA 
DOCKED: ATOM     37  H38 UNL     1       5.885  -1.750  -3.444 +0.00 +0.00    +0.210 HD 
DOCKED: ENDBRANCH  35  36
DOCKED: BRANCH  35  38
DOCKED: ATOM     38  C25 UNL     1       5.875  -4.433  -3.694 +0.00 +0.00    +0.045 C  
DOCKED: BRANCH  38  39
DOCKED: ATOM     39  C26 UNL     1       6.564  -3.874  -4.961 +0.00 +0.00    +0.074 C  
DOCKED: ATOM     40  C27 UNL     1       7.390  -4.907  -5.737 +0.00 +0.00    +0.017 C  
DOCKED: BRANCH  39  41
DOCKED: ATOM     41  C28 UNL     1       5.559  -3.250  -5.933 +0.00 +0.00    +0.217 C  
DOCKED: ATOM     42  O6  UNL     1       5.445  -3.627  -7.098 +0.00 -0.00    -0.276 OA 
DOCKED: ATOM     43  N4  UNL     1       4.734  -2.295  -5.388 +0.00 -0.00    -0.304 N  
DOCKED: ATOM     44  H45 UNL     1       5.079  -1.776  -4.585 +0.00 +0.00    +0.149 HD 
DOCKED: BRANCH  43  45
DOCKED: ATOM     45  C29 UNL     1       3.689  -1.650  -6.168 +0.00 +0.00    +0.161 C  
DOCKED: BRANCH  45  46
DOCKED: ATOM     46  C30 UNL     1       4.288  -0.426  -6.905 +0.00 +0.00    +0.234 C  
DOCKED: ATOM     47  O7  UNL     1       3.763   0.684  -6.932 +0.00 -0.00    -0.274 OA 
DOCKED: ATOM     48  N5  UNL     1       5.512  -0.707  -7.474 +0.00 -0.00    -0.310 N  
DOCKED: ATOM     49  H47 UNL     1       5.995  -1.522  -7.088 +0.00 +0.00    +0.149 HD 
DOCKED: BRANCH  48  50
DOCKED: ATOM     50  C31 UNL     1       6.325   0.281  -8.137 +0.00 +0.00    +0.139 C  
DOCKED: BRANCH  50  51
DOCKED: ATOM     51  C32 UNL     1       7.802   0.087  -7.913 +0.00 -0.00    -0.027 A  
DOCKED: ATOM     52  C33 UNL     1       8.347  -1.202  -7.825 +0.00 +0.00    +0.025 A  
DOCKED: ATOM     53  C34 UNL     1       9.705  -1.336  -7.561 +0.00 +0.00    +0.111 A  
DOCKED: ATOM     54  N6  UNL     1      10.540  -0.296  -7.352 +0.00 -0.00    -0.263 NA 
DOCKED: ATOM     55  C35 UNL     1       9.995   0.935  -7.446 +0.00 +0.00    +0.111 A  
DOCKED: ATOM     56  C36 UNL     1       8.657   1.176  -7.719 +0.00 +0.00    +0.025 A  
DOCKED: ENDBRANCH  50  51
DOCKED: ENDBRANCH  48  50
DOCKED: ENDBRANCH  45  46
DOCKED: BRANCH  45  57
DOCKED: ATOM     57  C37 UNL     1       2.448  -1.274  -5.320 +0.00 +0.00    +0.012 C  
DOCKED: ATOM     58  C38 UNL     1       1.167  -1.389  -6.158 +0.00 +0.00    +0.009 C  
DOCKED: ATOM     59  C39 UNL     1       2.289  -2.085  -4.032 +0.00 +0.00    +0.009 C  
DOCKED: ENDBRANCH  45  57
DOCKED: ENDBRANCH  43  45
DOCKED: ENDBRANCH  39  41
DOCKED: ENDBRANCH  38  39
DOCKED: ENDBRANCH  35  38
DOCKED: ENDBRANCH   1  35
DOCKED: TORSDOF 23
DOCKED: TER
DOCKED: ENDMDL
________________________________________________________________________________


    FINAL DOCKED STATE:
    ________________________


Run:   10 / 20
Time taken for this run:   2.355s

DOCKED: MODEL        10
DOCKED: USER    Run = 10
DOCKED: USER
DOCKED: USER    Estimated Free Energy of Binding    =  +6.86 kcal/mol  [=(1)+(2)+(3)-(4)]
DOCKED: USER
DOCKED: USER    (1) Final Intermolecular Energy     =  +0.00 kcal/mol
DOCKED: USER        vdW + Hbond + desolv Energy     =  +0.00 kcal/mol
DOCKED: USER        Electrostatic Energy            =  +0.00 kcal/mol
DOCKED: USER        Moving Ligand-Fixed Receptor    =  +0.00 kcal/mol
DOCKED: USER        Moving Ligand-Moving Receptor   =  +0.00 kcal/mol
DOCKED: USER    (2) Final Total Internal Energy     = -15.47 kcal/mol
DOCKED: USER    (3) Torsional Free Energy           =  +6.86 kcal/mol
DOCKED: USER    (4) Unbound System's Energy         = -15.47 kcal/mol
DOCKED: USER
DOCKED: USER
DOCKED: REMARK  Name = ligands/ligand_23.pdb
DOCKED: REMARK  32 active torsions:
DOCKED: REMARK  status: ('A' for Active; 'I' for Inactive)
DOCKED: REMARK    1  A    between atoms: C1_1  and  S1_2
DOCKED: REMARK    2  A    between atoms: S1_2  and  C2_3
DOCKED: REMARK    3  A    between atoms: C2_3  and  C3_4
DOCKED: REMARK    4  A    between atoms: C3_4  and  C4_5
DOCKED: REMARK    5  A    between atoms: C4_5  and  N1_6
DOCKED: REMARK    6  A    between atoms: C4_5  and  C15_21
DOCKED: REMARK    7  A    between atoms: C5_7  and  C6_9
DOCKED: REMARK    8  A    between atoms: C6_9  and  N2_10
DOCKED: REMARK    9  A    between atoms: C6_9  and  C12_18
DOCKED: REMARK   10  A    between atoms: C7_11  and  O3_13
DOCKED: REMARK   11  A    between atoms: O3_13  and  C8_14
DOCKED: REMARK   12  A    between atoms: C8_14  and  C9_15
DOCKED: REMARK   13  A    between atoms: C8_14  and  C10_16
DOCKED: REMARK   14  A    between atoms: C8_14  and  C11_17
DOCKED: REMARK   15  A    between atoms: C12_18  and  C13_19
DOCKED: REMARK   16  A    between atoms: C12_18  and  C14_20
DOCKED: REMARK   17  A    between atoms: N3_23  and  C16_24
DOCKED: REMARK   18  A    between atoms: C16_24  and  C17_25
DOCKED: REMARK   19  A    between atoms: C16_24  and  C24_32
DOCKED: REMARK   20  A    between atoms: C17_25  and  C18_26
DOCKED: REMARK   21  A    between atoms: C24_32  and  O5_33
DOCKED: REMARK   22  A    between atoms: C24_32  and  C25_34
DOCKED: REMARK   23  A    between atoms: C25_34  and  C26_35
DOCKED: REMARK   24  A    between atoms: C26_35  and  C27_36
DOCKED: REMARK   25  A    between atoms: C26_35  and  C28_37
DOCKED: REMARK   26  A    between atoms: N4_39  and  C29_40
DOCKED: REMARK   27  A    between atoms: C29_40  and  C30_41
DOCKED: REMARK   28  A    between atoms: C29_40  and  C37_51
DOCKED: REMARK   29  A    between atoms: N5_43  and  C31_44
DOCKED: REMARK   30  A    between atoms: C31_44  and  C32_45
DOCKED: REMARK   31  A    between atoms: C37_51  and  C38_52
DOCKED: REMARK   32  A    between atoms: C37_51  and  C39_53
DOCKED: REMARK                            x       y       z     vdW  Elec       q    Type
DOCKED: REMARK                         _______ _______ _______ _____ _____    ______ ____
DOCKED: USER                              x       y       z     vdW  Elec       q    Type
DOCKED: USER                           _______ _______ _______ _____ _____    ______ ____
DOCKED: ROOT
DOCKED: ATOM      1  C16 UNL     1       6.619   0.242   2.503 +0.00 +0.00    +0.106 C  
DOCKED: ENDROOT
DOCKED: BRANCH   1   4
DOCKED: ATOM      2  C15 UNL     1       8.425  -0.742   1.091 +0.00 +0.00    +0.234 C  
DOCKED: ATOM      3  O4  UNL     1       9.088   0.286   1.065 +0.00 -0.00    -0.274 OA 
DOCKED: ATOM      4  N3  UNL     1       7.171  -0.813   1.645 +0.00 -0.00    -0.308 N  
DOCKED: ATOM      5  H28 UNL     1       6.778  -1.738   1.759 +0.00 +0.00    +0.149 HD 
DOCKED: BRANCH   2   6
DOCKED: ATOM      6  C4  UNL     1       8.886  -2.033   0.375 +0.00 +0.00    +0.160 C  
DOCKED: BRANCH   6   7
DOCKED: ATOM      7  N1  UNL     1       7.759  -2.865  -0.099 +0.00 -0.00    -0.302 N  
DOCKED: ATOM      8  C5  UNL     1       6.909  -2.394  -1.079 +0.00 +0.00    +0.234 C  
DOCKED: ATOM      9  O1  UNL     1       7.280  -1.514  -1.862 +0.00 -0.00    -0.274 OA 
DOCKED: ATOM     10  H9  UNL     1       7.382  -3.501   0.585 +0.00 +0.00    +0.150 HD 
DOCKED: BRANCH   8  11
DOCKED: ATOM     11  C6  UNL     1       5.581  -3.162  -1.301 +0.00 +0.00    +0.165 C  
DOCKED: BRANCH  11  12
DOCKED: ATOM     12  N2  UNL     1       4.645  -2.711  -0.279 +0.00 -0.00    -0.270 N  
DOCKED: ATOM     13  C7  UNL     1       4.876  -2.913   1.047 +0.00 +0.00    +0.401 C  
DOCKED: ATOM     14  O2  UNL     1       5.730  -3.652   1.505 +0.00 -0.00    -0.226 OA 
DOCKED: ATOM     15  H11 UNL     1       3.976  -1.980  -0.478 +0.00 +0.00    +0.153 HD 
DOCKED: BRANCH  13  16
DOCKED: ATOM     16  O3  UNL     1       3.995  -2.171   1.749 +0.00 -0.00    -0.445 OA 
DOCKED: BRANCH  16  17
DOCKED: ATOM     17  C8  UNL     1       3.008  -2.807   2.598 +0.00 +0.00    +0.107 C  
DOCKED: ATOM     18  C9  UNL     1       2.123  -3.771   1.801 +0.00 +0.00    +0.055 C  
DOCKED: ATOM     19  C10 UNL     1       2.138  -1.650   3.119 +0.00 +0.00    +0.055 C  
DOCKED: ATOM     20  C11 UNL     1       3.665  -3.516   3.795 +0.00 +0.00    +0.055 C  
DOCKED: ENDBRANCH  16  17
DOCKED: ENDBRANCH  13  16
DOCKED: ENDBRANCH  11  12
DOCKED: BRANCH  11  21
DOCKED: ATOM     21  C12 UNL     1       4.939  -3.190  -2.708 +0.00 +0.00    +0.012 C  
DOCKED: ATOM     22  C13 UNL     1       5.888  -3.551  -3.858 +0.00 +0.00    +0.009 C  
DOCKED: ATOM     23  C14 UNL     1       3.658  -4.029  -2.765 +0.00 +0.00    +0.009 C  
DOCKED: ENDBRANCH  11  21
DOCKED: ENDBRANCH   8  11
DOCKED: ENDBRANCH   6   7
DOCKED: BRANCH   6  24
DOCKED: ATOM     24  C3  UNL     1       9.775  -1.681  -0.827 +0.00 +0.00    +0.042 C  
DOCKED: BRANCH  24  25
DOCKED: ATOM     25  C2  UNL     1      11.165  -2.308  -0.723 +0.00 +0.00    +0.071 C  
DOCKED: BRANCH  25  27
DOCKED: ATOM     26  C1  UNL     1      12.046  -0.942   1.531 +0.00 +0.00    +0.084 C  
DOCKED: ATOM     27  S1  UNL     1      11.607  -2.624   1.018 +0.00 -0.00    -0.164 S  
DOCKED: ENDBRANCH  25  27
DOCKED: ENDBRANCH  24  25
DOCKED: ENDBRANCH   6  24
DOCKED: ENDBRANCH   2   6
DOCKED: ENDBRANCH   1   4
DOCKED: BRANCH   1  28
DOCKED: ATOM     28  C17 UNL     1       5.452   0.943   1.771 +0.00 +0.00    +0.060 C  
DOCKED: BRANCH  28  29
DOCKED: ATOM     29  C18 UNL     1       5.596   0.970   0.265 +0.00 -0.00    -0.046 A  
DOCKED: ATOM     30  C19 UNL     1       6.679   1.622  -0.344 +0.00 +0.00    +0.004 A  
DOCKED: ATOM     31  C20 UNL     1       6.810   1.630  -1.735 +0.00 +0.00    +0.000 A  
DOCKED: ATOM     32  C21 UNL     1       5.858   0.998  -2.534 +0.00 +0.00    +0.000 A  
DOCKED: ATOM     33  C22 UNL     1       4.766   0.363  -1.947 +0.00 +0.00    +0.000 A  
DOCKED: ATOM     34  C23 UNL     1       4.636   0.351  -0.555 +0.00 +0.00    +0.004 A  
DOCKED: ENDBRANCH  28  29
DOCKED: ENDBRANCH   1  28
DOCKED: BRANCH   1  35
DOCKED: ATOM     35  C24 UNL     1       6.107  -0.357   3.849 +0.00 +0.00    +0.136 C  
DOCKED: BRANCH  35  36
DOCKED: ATOM     36  O5  UNL     1       6.227  -1.785   3.784 +0.00 -0.00    -0.390 OA 
DOCKED: ATOM     37  H38 UNL     1       5.912  -2.050   2.891 +0.00 +0.00    +0.210 HD 
DOCKED: ENDBRANCH  35  36
DOCKED: BRANCH  35  38
DOCKED: ATOM     38  C25 UNL     1       6.854   0.193   5.077 +0.00 +0.00    +0.045 C  
DOCKED: BRANCH  38  39
DOCKED: ATOM     39  C26 UNL     1       8.209   0.863   4.752 +0.00 +0.00    +0.074 C  
DOCKED: ATOM     40  C27 UNL     1       8.852   1.593   5.938 +0.00 +0.00    +0.017 C  
DOCKED: BRANCH  39  41
DOCKED: ATOM     41  C28 UNL     1       9.231  -0.140   4.210 +0.00 +0.00    +0.217 C  
DOCKED: ATOM     42  O6  UNL     1      10.353   0.195   3.836 +0.00 -0.00    -0.276 OA 
DOCKED: ATOM     43  N4  UNL     1       8.835  -1.456   4.249 +0.00 -0.00    -0.304 N  
DOCKED: ATOM     44  H45 UNL     1       7.838  -1.651   4.211 +0.00 +0.00    +0.149 HD 
DOCKED: BRANCH  43  45
DOCKED: ATOM     45  C29 UNL     1       9.715  -2.534   3.822 +0.00 +0.00    +0.161 C  
DOCKED: BRANCH  45  46
DOCKED: ATOM     46  C30 UNL     1       8.867  -3.651   3.165 +0.00 +0.00    +0.234 C  
DOCKED: ATOM     47  O7  UNL     1       7.734  -3.484   2.723 +0.00 -0.00    -0.274 OA 
DOCKED: ATOM     48  N5  UNL     1       9.555  -4.843   3.074 +0.00 -0.00    -0.310 N  
DOCKED: ATOM     49  H47 UNL     1      10.572  -4.765   3.137 +0.00 +0.00    +0.149 HD 
DOCKED: BRANCH  48  50
DOCKED: ATOM     50  C31 UNL     1       9.029  -6.015   2.422 +0.00 +0.00    +0.139 C  
DOCKED: BRANCH  50  51
DOCKED: ATOM     51  C32 UNL     1       8.732  -5.803   0.960 +0.00 -0.00    -0.027 A  
DOCKED: ATOM     52  C33 UNL     1       7.459  -6.085   0.443 +0.00 +0.00    +0.025 A  
DOCKED: ATOM     53  C34 UNL     1       7.243  -5.930  -0.922 +0.00 +0.00    +0.111 A  
DOCKED: ATOM     54  N6  UNL     1       8.196  -5.548  -1.798 +0.00 -0.00    -0.263 NA 
DOCKED: ATOM     55  C35 UNL     1       9.412  -5.278  -1.277 +0.00 +0.00    +0.111 A  
DOCKED: ATOM     56  C36 UNL     1       9.726  -5.387   0.069 +0.00 +0.00    +0.025 A  
DOCKED: ENDBRANCH  50  51
DOCKED: ENDBRANCH  48  50
DOCKED: ENDBRANCH  45  46
DOCKED: BRANCH  45  57
DOCKED: ATOM     57  C37 UNL     1      10.608  -3.073   4.968 +0.00 +0.00    +0.012 C  
DOCKED: ATOM     58  C38 UNL     1      11.998  -2.426   4.919 +0.00 +0.00    +0.009 C  
DOCKED: ATOM     59  C39 UNL     1      10.016  -2.902   6.369 +0.00 +0.00    +0.009 C  
DOCKED: ENDBRANCH  45  57
DOCKED: ENDBRANCH  43  45
DOCKED: ENDBRANCH  39  41
DOCKED: ENDBRANCH  38  39
DOCKED: ENDBRANCH  35  38
DOCKED: ENDBRANCH   1  35
DOCKED: TORSDOF 23
DOCKED: TER
DOCKED: ENDMDL
________________________________________________________________________________


    FINAL DOCKED STATE:
    ________________________


Run:   11 / 20
Time taken for this run:   2.355s

DOCKED: MODEL        11
DOCKED: USER    Run = 11
DOCKED: USER
DOCKED: USER    Estimated Free Energy of Binding    =  +6.86 kcal/mol  [=(1)+(2)+(3)-(4)]
DOCKED: USER
DOCKED: USER    (1) Final Intermolecular Energy     =  +0.00 kcal/mol
DOCKED: USER        vdW + Hbond + desolv Energy     =  +0.00 kcal/mol
DOCKED: USER        Electrostatic Energy            =  +0.00 kcal/mol
DOCKED: USER        Moving Ligand-Fixed Receptor    =  +0.00 kcal/mol
DOCKED: USER        Moving Ligand-Moving Receptor   =  +0.00 kcal/mol
DOCKED: USER    (2) Final Total Internal Energy     = -16.03 kcal/mol
DOCKED: USER    (3) Torsional Free Energy           =  +6.86 kcal/mol
DOCKED: USER    (4) Unbound System's Energy         = -16.03 kcal/mol
DOCKED: USER
DOCKED: USER
DOCKED: REMARK  Name = ligands/ligand_23.pdb
DOCKED: REMARK  32 active torsions:
DOCKED: REMARK  status: ('A' for Active; 'I' for Inactive)
DOCKED: REMARK    1  A    between atoms: C1_1  and  S1_2
DOCKED: REMARK    2  A    between atoms: S1_2  and  C2_3
DOCKED: REMARK    3  A    between atoms: C2_3  and  C3_4
DOCKED: REMARK    4  A    between atoms: C3_4  and  C4_5
DOCKED: REMARK    5  A    between atoms: C4_5  and  N1_6
DOCKED: REMARK    6  A    between atoms: C4_5  and  C15_21
DOCKED: REMARK    7  A    between atoms: C5_7  and  C6_9
DOCKED: REMARK    8  A    between atoms: C6_9  and  N2_10
DOCKED: REMARK    9  A    between atoms: C6_9  and  C12_18
DOCKED: REMARK   10  A    between atoms: C7_11  and  O3_13
DOCKED: REMARK   11  A    between atoms: O3_13  and  C8_14
DOCKED: REMARK   12  A    between atoms: C8_14  and  C9_15
DOCKED: REMARK   13  A    between atoms: C8_14  and  C10_16
DOCKED: REMARK   14  A    between atoms: C8_14  and  C11_17
DOCKED: REMARK   15  A    between atoms: C12_18  and  C13_19
DOCKED: REMARK   16  A    between atoms: C12_18  and  C14_20
DOCKED: REMARK   17  A    between atoms: N3_23  and  C16_24
DOCKED: REMARK   18  A    between atoms: C16_24  and  C17_25
DOCKED: REMARK   19  A    between atoms: C16_24  and  C24_32
DOCKED: REMARK   20  A    between atoms: C17_25  and  C18_26
DOCKED: REMARK   21  A    between atoms: C24_32  and  O5_33
DOCKED: REMARK   22  A    between atoms: C24_32  and  C25_34
DOCKED: REMARK   23  A    between atoms: C25_34  and  C26_35
DOCKED: REMARK   24  A    between atoms: C26_35  and  C27_36
DOCKED: REMARK   25  A    between atoms: C26_35  and  C28_37
DOCKED: REMARK   26  A    between atoms: N4_39  and  C29_40
DOCKED: REMARK   27  A    between atoms: C29_40  and  C30_41
DOCKED: REMARK   28  A    between atoms: C29_40  and  C37_51
DOCKED: REMARK   29  A    between atoms: N5_43  and  C31_44
DOCKED: REMARK   30  A    between atoms: C31_44  and  C32_45
DOCKED: REMARK   31  A    between atoms: C37_51  and  C38_52
DOCKED: REMARK   32  A    between atoms: C37_51  and  C39_53
DOCKED: REMARK                            x       y       z     vdW  Elec       q    Type
DOCKED: REMARK                         _______ _______ _______ _____ _____    ______ ____
DOCKED: USER                              x       y       z     vdW  Elec       q    Type
DOCKED: USER                           _______ _______ _______ _____ _____    ______ ____
DOCKED: ROOT
DOCKED: ATOM      1  C16 UNL     1       8.108  -8.951  -7.106 +0.00 +0.00    +0.106 C  
DOCKED: ENDROOT
DOCKED: BRANCH   1   4
DOCKED: ATOM      2  C15 UNL     1       9.246  -6.777  -7.558 +0.00 +0.00    +0.234 C  
DOCKED: ATOM      3  O4  UNL     1       8.450  -6.439  -8.424 +0.00 -0.00    -0.274 OA 
DOCKED: ATOM      4  N3  UNL     1       9.232  -8.017  -6.969 +0.00 -0.00    -0.308 N  
DOCKED: ATOM      5  H28 UNL     1       9.822  -8.140  -6.157 +0.00 +0.00    +0.149 HD 
DOCKED: BRANCH   2   6
DOCKED: ATOM      6  C4  UNL     1      10.434  -5.880  -7.141 +0.00 +0.00    +0.160 C  
DOCKED: BRANCH   6   7
DOCKED: ATOM      7  N1  UNL     1      11.418  -6.582  -6.288 +0.00 -0.00    -0.302 N  
DOCKED: ATOM      8  C5  UNL     1      11.172  -6.761  -4.943 +0.00 +0.00    +0.234 C  
DOCKED: ATOM      9  O1  UNL     1      10.015  -6.745  -4.509 +0.00 -0.00    -0.274 OA 
DOCKED: ATOM     10  H9  UNL     1      12.377  -6.493  -6.583 +0.00 +0.00    +0.150 HD 
DOCKED: BRANCH   8  11
DOCKED: ATOM     11  C6  UNL     1      12.360  -7.207  -4.053 +0.00 +0.00    +0.165 C  
DOCKED: BRANCH  11  12
DOCKED: ATOM     12  N2  UNL     1      11.956  -8.432  -3.375 +0.00 -0.00    -0.270 N  
DOCKED: ATOM     13  C7  UNL     1      11.531  -9.528  -4.061 +0.00 +0.00    +0.401 C  
DOCKED: ATOM     14  O2  UNL     1      11.236  -9.543  -5.244 +0.00 -0.00    -0.226 OA 
DOCKED: ATOM     15  H11 UNL     1      12.265  -8.626  -2.432 +0.00 +0.00    +0.153 HD 
DOCKED: BRANCH  13  16
DOCKED: ATOM     16  O3  UNL     1      11.483 -10.571  -3.208 +0.00 -0.00    -0.445 OA 
DOCKED: BRANCH  16  17
DOCKED: ATOM     17  C8  UNL     1      12.689 -11.296  -2.861 +0.00 +0.00    +0.107 C  
DOCKED: ATOM     18  C9  UNL     1      13.761 -11.150  -3.946 +0.00 +0.00    +0.055 C  
DOCKED: ATOM     19  C10 UNL     1      12.252 -12.770  -2.791 +0.00 +0.00    +0.055 C  
DOCKED: ATOM     20  C11 UNL     1      13.229 -10.870  -1.485 +0.00 +0.00    +0.055 C  
DOCKED: ENDBRANCH  16  17
DOCKED: ENDBRANCH  13  16
DOCKED: ENDBRANCH  11  12
DOCKED: BRANCH  11  21
DOCKED: ATOM     21  C12 UNL     1      13.776  -7.320  -4.666 +0.00 +0.00    +0.012 C  
DOCKED: ATOM     22  C13 UNL     1      13.910  -8.297  -5.841 +0.00 +0.00    +0.009 C  
DOCKED: ATOM     23  C14 UNL     1      14.390  -5.958  -5.006 +0.00 +0.00    +0.009 C  
DOCKED: ENDBRANCH  11  21
DOCKED: ENDBRANCH   8  11
DOCKED: ENDBRANCH   6   7
DOCKED: BRANCH   6  24
DOCKED: ATOM     24  C3  UNL     1      11.157  -5.349  -8.387 +0.00 +0.00    +0.042 C  
DOCKED: BRANCH  24  25
DOCKED: ATOM     25  C2  UNL     1      11.463  -6.455  -9.396 +0.00 +0.00    +0.071 C  
DOCKED: BRANCH  25  27
DOCKED: ATOM     26  C1  UNL     1      13.988  -5.759  -8.471 +0.00 +0.00    +0.084 C  
DOCKED: ATOM     27  S1  UNL     1      13.084  -7.216  -9.055 +0.00 -0.00    -0.164 S  
DOCKED: ENDBRANCH  25  27
DOCKED: ENDBRANCH  24  25
DOCKED: ENDBRANCH   6  24
DOCKED: ENDBRANCH   2   6
DOCKED: ENDBRANCH   1   4
DOCKED: BRANCH   1  28
DOCKED: ATOM     28  C17 UNL     1       8.528 -10.134  -8.009 +0.00 +0.00    +0.060 C  
DOCKED: BRANCH  28  29
DOCKED: ATOM     29  C18 UNL     1       9.925 -10.649  -7.740 +0.00 -0.00    -0.046 A  
DOCKED: ATOM     30  C19 UNL     1      11.044 -10.031  -8.317 +0.00 +0.00    +0.004 A  
DOCKED: ATOM     31  C20 UNL     1      12.331 -10.507  -8.052 +0.00 +0.00    +0.000 A  
DOCKED: ATOM     32  C21 UNL     1      12.515 -11.609  -7.218 +0.00 +0.00    +0.000 A  
DOCKED: ATOM     33  C22 UNL     1      11.413 -12.247  -6.653 +0.00 +0.00    +0.000 A  
DOCKED: ATOM     34  C23 UNL     1      10.125 -11.769  -6.914 +0.00 +0.00    +0.004 A  
DOCKED: ENDBRANCH  28  29
DOCKED: ENDBRANCH   1  28
DOCKED: BRANCH   1  35
DOCKED: ATOM     35  C24 UNL     1       7.669  -9.491  -5.710 +0.00 +0.00    +0.136 C  
DOCKED: BRANCH  35  36
DOCKED: ATOM     36  O5  UNL     1       8.836  -9.611  -4.884 +0.00 -0.00    -0.390 OA 
DOCKED: ATOM     37  H38 UNL     1       9.318  -8.757  -4.958 +0.00 +0.00    +0.210 HD 
DOCKED: ENDBRANCH  35  36
DOCKED: BRANCH  35  38
DOCKED: ATOM     38  C25 UNL     1       6.612  -8.606  -5.026 +0.00 +0.00    +0.045 C  
DOCKED: BRANCH  38  39
DOCKED: ATOM     39  C26 UNL     1       7.119  -7.201  -4.624 +0.00 +0.00    +0.074 C  
DOCKED: ATOM     40  C27 UNL     1       6.088  -6.081  -4.812 +0.00 +0.00    +0.017 C  
DOCKED: BRANCH  39  41
DOCKED: ATOM     41  C28 UNL     1       7.599  -7.157  -3.171 +0.00 +0.00    +0.217 C  
DOCKED: ATOM     42  O6  UNL     1       7.130  -6.379  -2.342 +0.00 -0.00    -0.276 OA 
DOCKED: ATOM     43  N4  UNL     1       8.534  -8.108  -2.836 +0.00 -0.00    -0.304 N  
DOCKED: ATOM     44  H45 UNL     1       9.134  -8.462  -3.576 +0.00 +0.00    +0.149 HD 
DOCKED: BRANCH  43  45
DOCKED: ATOM     45  C29 UNL     1       9.047  -8.233  -1.480 +0.00 +0.00    +0.161 C  
DOCKED: BRANCH  45  46
DOCKED: ATOM     46  C30 UNL     1      10.250  -7.274  -1.302 +0.00 +0.00    +0.234 C  
DOCKED: ATOM     47  O7  UNL     1      11.313  -7.594  -0.777 +0.00 -0.00    -0.274 OA 
DOCKED: ATOM     48  N5  UNL     1      10.016  -6.034  -1.859 +0.00 -0.00    -0.310 N  
DOCKED: ATOM     49  H47 UNL     1       9.272  -6.005  -2.560 +0.00 +0.00    +0.149 HD 
DOCKED: BRANCH  48  50
DOCKED: ATOM     50  C31 UNL     1      11.005  -4.988  -1.913 +0.00 +0.00    +0.139 C  
DOCKED: BRANCH  50  51
DOCKED: ATOM     51  C32 UNL     1      10.917  -4.145  -3.159 +0.00 -0.00    -0.027 A  
DOCKED: ATOM     52  C33 UNL     1       9.673  -3.858  -3.739 +0.00 +0.00    +0.025 A  
DOCKED: ATOM     53  C34 UNL     1       9.639  -3.126  -4.920 +0.00 +0.00    +0.111 A  
DOCKED: ATOM     54  N6  UNL     1      10.739  -2.691  -5.570 +0.00 -0.00    -0.263 NA 
DOCKED: ATOM     55  C35 UNL     1      11.926  -2.975  -4.991 +0.00 +0.00    +0.111 A  
DOCKED: ATOM     56  C36 UNL     1      12.066  -3.686  -3.809 +0.00 +0.00    +0.025 A  
DOCKED: ENDBRANCH  50  51
DOCKED: ENDBRANCH  48  50
DOCKED: ENDBRANCH  45  46
DOCKED: BRANCH  45  57
DOCKED: ATOM     57  C37 UNL     1       9.402  -9.693  -1.102 +0.00 +0.00    +0.012 C  
DOCKED: ATOM     58  C38 UNL     1       9.152  -9.938   0.392 +0.00 +0.00    +0.009 C  
DOCKED: ATOM     59  C39 UNL     1       8.670 -10.758  -1.921 +0.00 +0.00    +0.009 C  
DOCKED: ENDBRANCH  45  57
DOCKED: ENDBRANCH  43  45
DOCKED: ENDBRANCH  39  41
DOCKED: ENDBRANCH  38  39
DOCKED: ENDBRANCH  35  38
DOCKED: ENDBRANCH   1  35
DOCKED: TORSDOF 23
DOCKED: TER
DOCKED: ENDMDL
________________________________________________________________________________


    FINAL DOCKED STATE:
    ________________________


Run:   12 / 20
Time taken for this run:   2.355s

DOCKED: MODEL        12
DOCKED: USER    Run = 12
DOCKED: USER
DOCKED: USER    Estimated Free Energy of Binding    =  +6.86 kcal/mol  [=(1)+(2)+(3)-(4)]
DOCKED: USER
DOCKED: USER    (1) Final Intermolecular Energy     =  +0.00 kcal/mol
DOCKED: USER        vdW + Hbond + desolv Energy     =  +0.00 kcal/mol
DOCKED: USER        Electrostatic Energy            =  +0.00 kcal/mol
DOCKED: USER        Moving Ligand-Fixed Receptor    =  +0.00 kcal/mol
DOCKED: USER        Moving Ligand-Moving Receptor   =  +0.00 kcal/mol
DOCKED: USER    (2) Final Total Internal Energy     = -16.02 kcal/mol
DOCKED: USER    (3) Torsional Free Energy           =  +6.86 kcal/mol
DOCKED: USER    (4) Unbound System's Energy         = -16.02 kcal/mol
DOCKED: USER
DOCKED: USER
DOCKED: REMARK  Name = ligands/ligand_23.pdb
DOCKED: REMARK  32 active torsions:
DOCKED: REMARK  status: ('A' for Active; 'I' for Inactive)
DOCKED: REMARK    1  A    between atoms: C1_1  and  S1_2
DOCKED: REMARK    2  A    between atoms: S1_2  and  C2_3
DOCKED: REMARK    3  A    between atoms: C2_3  and  C3_4
DOCKED: REMARK    4  A    between atoms: C3_4  and  C4_5
DOCKED: REMARK    5  A    between atoms: C4_5  and  N1_6
DOCKED: REMARK    6  A    between atoms: C4_5  and  C15_21
DOCKED: REMARK    7  A    between atoms: C5_7  and  C6_9
DOCKED: REMARK    8  A    between atoms: C6_9  and  N2_10
DOCKED: REMARK    9  A    between atoms: C6_9  and  C12_18
DOCKED: REMARK   10  A    between atoms: C7_11  and  O3_13
DOCKED: REMARK   11  A    between atoms: O3_13  and  C8_14
DOCKED: REMARK   12  A    between atoms: C8_14  and  C9_15
DOCKED: REMARK   13  A    between atoms: C8_14  and  C10_16
DOCKED: REMARK   14  A    between atoms: C8_14  and  C11_17
DOCKED: REMARK   15  A    between atoms: C12_18  and  C13_19
DOCKED: REMARK   16  A    between atoms: C12_18  and  C14_20
DOCKED: REMARK   17  A    between atoms: N3_23  and  C16_24
DOCKED: REMARK   18  A    between atoms: C16_24  and  C17_25
DOCKED: REMARK   19  A    between atoms: C16_24  and  C24_32
DOCKED: REMARK   20  A    between atoms: C17_25  and  C18_26
DOCKED: REMARK   21  A    between atoms: C24_32  and  O5_33
DOCKED: REMARK   22  A    between atoms: C24_32  and  C25_34
DOCKED: REMARK   23  A    between atoms: C25_34  and  C26_35
DOCKED: REMARK   24  A    between atoms: C26_35  and  C27_36
DOCKED: REMARK   25  A    between atoms: C26_35  and  C28_37
DOCKED: REMARK   26  A    between atoms: N4_39  and  C29_40
DOCKED: REMARK   27  A    between atoms: C29_40  and  C30_41
DOCKED: REMARK   28  A    between atoms: C29_40  and  C37_51
DOCKED: REMARK   29  A    between atoms: N5_43  and  C31_44
DOCKED: REMARK   30  A    between atoms: C31_44  and  C32_45
DOCKED: REMARK   31  A    between atoms: C37_51  and  C38_52
DOCKED: REMARK   32  A    between atoms: C37_51  and  C39_53
DOCKED: REMARK                            x       y       z     vdW  Elec       q    Type
DOCKED: REMARK                         _______ _______ _______ _____ _____    ______ ____
DOCKED: USER                              x       y       z     vdW  Elec       q    Type
DOCKED: USER                           _______ _______ _______ _____ _____    ______ ____
DOCKED: ROOT
DOCKED: ATOM      1  C16 UNL     1      14.610 -10.098  -0.418 +0.00 +0.00    +0.106 C  
DOCKED: ENDROOT
DOCKED: BRANCH   1   4
DOCKED: ATOM      2  C15 UNL     1      15.878  -9.055  -2.297 +0.00 +0.00    +0.234 C  
DOCKED: ATOM      3  O4  UNL     1      16.925  -9.627  -2.025 +0.00 -0.00    -0.274 OA 
DOCKED: ATOM      4  N3  UNL     1      14.759  -9.122  -1.506 +0.00 -0.00    -0.308 N  
DOCKED: ATOM      5  H28 UNL     1      13.903  -8.751  -1.897 +0.00 +0.00    +0.149 HD 
DOCKED: BRANCH   2   6
DOCKED: ATOM      6  C4  UNL     1      15.759  -8.087  -3.497 +0.00 +0.00    +0.160 C  
DOCKED: BRANCH   6   7
DOCKED: ATOM      7  N1  UNL     1      14.509  -7.297  -3.482 +0.00 -0.00    -0.302 N  
DOCKED: ATOM      8  C5  UNL     1      13.325  -7.860  -3.910 +0.00 +0.00    +0.234 C  
DOCKED: ATOM      9  O1  UNL     1      13.173  -9.086  -3.903 +0.00 -0.00    -0.274 OA 
DOCKED: ATOM     10  H9  UNL     1      14.631  -6.305  -3.608 +0.00 +0.00    +0.150 HD 
DOCKED: BRANCH   8  11
DOCKED: ATOM     11  C6  UNL     1      12.134  -6.903  -4.173 +0.00 +0.00    +0.165 C  
DOCKED: BRANCH  11  12
DOCKED: ATOM     12  N2  UNL     1      11.020  -7.364  -3.354 +0.00 -0.00    -0.270 N  
DOCKED: ATOM     13  C7  UNL     1      11.131  -7.512  -2.006 +0.00 +0.00    +0.401 C  
DOCKED: ATOM     14  O2  UNL     1      12.180  -7.497  -1.384 +0.00 -0.00    -0.226 OA 
DOCKED: ATOM     15  H11 UNL     1      10.069  -7.287  -3.687 +0.00 +0.00    +0.153 HD 
DOCKED: BRANCH  13  16
DOCKED: ATOM     16  O3  UNL     1       9.896  -7.688  -1.495 +0.00 -0.00    -0.445 OA 
DOCKED: BRANCH  16  17
DOCKED: ATOM     17  C8  UNL     1       9.023  -6.554  -1.267 +0.00 +0.00    +0.107 C  
DOCKED: ATOM     18  C9  UNL     1       9.824  -5.263  -1.073 +0.00 +0.00    +0.055 C  
DOCKED: ATOM     19  C10 UNL     1       8.288  -6.883   0.043 +0.00 +0.00    +0.055 C  
DOCKED: ATOM     20  C11 UNL     1       7.989  -6.401  -2.396 +0.00 +0.00    +0.055 C  
DOCKED: ENDBRANCH  16  17
DOCKED: ENDBRANCH  13  16
DOCKED: ENDBRANCH  11  12
DOCKED: BRANCH  11  21
DOCKED: ATOM     21  C12 UNL     1      12.342  -5.374  -4.067 +0.00 +0.00    +0.012 C  
DOCKED: ATOM     22  C13 UNL     1      12.829  -4.868  -2.703 +0.00 +0.00    +0.009 C  
DOCKED: ATOM     23  C14 UNL     1      13.199  -4.807  -5.204 +0.00 +0.00    +0.009 C  
DOCKED: ENDBRANCH  11  21
DOCKED: ENDBRANCH   8  11
DOCKED: ENDBRANCH   6   7
DOCKED: BRANCH   6  24
DOCKED: ATOM     24  C3  UNL     1      16.951  -7.118  -3.513 +0.00 +0.00    +0.042 C  
DOCKED: BRANCH  24  25
DOCKED: ATOM     25  C2  UNL     1      17.185  -6.465  -2.150 +0.00 +0.00    +0.071 C  
DOCKED: BRANCH  25  27
DOCKED: ATOM     26  C1  UNL     1      16.306  -4.330  -3.695 +0.00 +0.00    +0.084 C  
DOCKED: ATOM     27  S1  UNL     1      16.213  -4.931  -1.989 +0.00 -0.00    -0.164 S  
DOCKED: ENDBRANCH  25  27
DOCKED: ENDBRANCH  24  25
DOCKED: ENDBRANCH   6  24
DOCKED: ENDBRANCH   2   6
DOCKED: ENDBRANCH   1   4
DOCKED: BRANCH   1  28
DOCKED: ATOM     28  C17 UNL     1      14.711  -9.371   0.943 +0.00 +0.00    +0.060 C  
DOCKED: BRANCH  28  29
DOCKED: ATOM     29  C18 UNL     1      13.976  -8.049   0.992 +0.00 -0.00    -0.046 A  
DOCKED: ATOM     30  C19 UNL     1      14.575  -6.873   0.517 +0.00 +0.00    +0.004 A  
DOCKED: ATOM     31  C20 UNL     1      13.883  -5.660   0.555 +0.00 +0.00    +0.000 A  
DOCKED: ATOM     32  C21 UNL     1      12.591  -5.605   1.078 +0.00 +0.00    +0.000 A  
DOCKED: ATOM     33  C22 UNL     1      11.989  -6.760   1.573 +0.00 +0.00    +0.000 A  
DOCKED: ATOM     34  C23 UNL     1      12.679  -7.975   1.531 +0.00 +0.00    +0.004 A  
DOCKED: ENDBRANCH  28  29
DOCKED: ENDBRANCH   1  28
DOCKED: BRANCH   1  35
DOCKED: ATOM     35  C24 UNL     1      13.235 -10.827  -0.519 +0.00 +0.00    +0.136 C  
DOCKED: BRANCH  35  36
DOCKED: ATOM     36  O5  UNL     1      12.266  -9.898  -1.026 +0.00 -0.00    -0.390 OA 
DOCKED: ATOM     37  H38 UNL     1      12.668  -9.485  -1.822 +0.00 +0.00    +0.210 HD 
DOCKED: ENDBRANCH  35  36
DOCKED: BRANCH  35  38
DOCKED: ATOM     38  C25 UNL     1      13.285 -12.089  -1.399 +0.00 +0.00    +0.045 C  
DOCKED: BRANCH  38  39
DOCKED: ATOM     39  C26 UNL     1      13.558 -11.813  -2.896 +0.00 +0.00    +0.074 C  
DOCKED: ATOM     40  C27 UNL     1      14.464 -12.849  -3.573 +0.00 +0.00    +0.017 C  
DOCKED: BRANCH  39  41
DOCKED: ATOM     41  C28 UNL     1      12.263 -11.720  -3.708 +0.00 +0.00    +0.217 C  
DOCKED: ATOM     42  O6  UNL     1      12.036 -12.444  -4.676 +0.00 -0.00    -0.276 OA 
DOCKED: ATOM     43  N4  UNL     1      11.334 -10.828  -3.227 +0.00 -0.00    -0.304 N  
DOCKED: ATOM     44  H45 UNL     1      11.676 -10.034  -2.691 +0.00 +0.00    +0.149 HD 
DOCKED: BRANCH  43  45
DOCKED: ATOM     45  C29 UNL     1      10.032 -10.666  -3.854 +0.00 +0.00    +0.161 C  
DOCKED: BRANCH  45  46
DOCKED: ATOM     46  C30 UNL     1      10.145  -9.626  -4.996 +0.00 +0.00    +0.234 C  
DOCKED: ATOM     47  O7  UNL     1       9.347  -8.708  -5.172 +0.00 -0.00    -0.274 OA 
DOCKED: ATOM     48  N5  UNL     1      11.281  -9.807  -5.757 +0.00 -0.00    -0.310 N  
DOCKED: ATOM     49  H47 UNL     1      12.023 -10.350  -5.310 +0.00 +0.00    +0.149 HD 
DOCKED: BRANCH  48  50
DOCKED: ATOM     50  C31 UNL     1      11.672  -8.921  -6.824 +0.00 +0.00    +0.139 C  
DOCKED: BRANCH  50  51
DOCKED: ATOM     51  C32 UNL     1      13.165  -8.769  -6.957 +0.00 -0.00    -0.027 A  
DOCKED: ATOM     52  C33 UNL     1      14.018  -9.851  -6.695 +0.00 +0.00    +0.025 A  
DOCKED: ATOM     53  C34 UNL     1      15.392  -9.653  -6.774 +0.00 +0.00    +0.111 A  
DOCKED: ATOM     54  N6  UNL     1      15.967  -8.467  -7.062 +0.00 -0.00    -0.263 NA 
DOCKED: ATOM     55  C35 UNL     1      15.127  -7.440  -7.315 +0.00 +0.00    +0.111 A  
DOCKED: ATOM     56  C36 UNL     1      13.745  -7.538  -7.277 +0.00 +0.00    +0.025 A  
DOCKED: ENDBRANCH  50  51
DOCKED: ENDBRANCH  48  50
DOCKED: ENDBRANCH  45  46
DOCKED: BRANCH  45  57
DOCKED: ATOM     57  C37 UNL     1       8.916 -10.305  -2.842 +0.00 +0.00    +0.012 C  
DOCKED: ATOM     58  C38 UNL     1       7.570 -10.889  -3.292 +0.00 +0.00    +0.009 C  
DOCKED: ATOM     59  C39 UNL     1       9.201 -10.734  -1.401 +0.00 +0.00    +0.009 C  
DOCKED: ENDBRANCH  45  57
DOCKED: ENDBRANCH  43  45
DOCKED: ENDBRANCH  39  41
DOCKED: ENDBRANCH  38  39
DOCKED: ENDBRANCH  35  38
DOCKED: ENDBRANCH   1  35
DOCKED: TORSDOF 23
DOCKED: TER
DOCKED: ENDMDL
________________________________________________________________________________


    FINAL DOCKED STATE:
    ________________________


Run:   13 / 20
Time taken for this run:   2.355s

DOCKED: MODEL        13
DOCKED: USER    Run = 13
DOCKED: USER
DOCKED: USER    Estimated Free Energy of Binding    =  +6.86 kcal/mol  [=(1)+(2)+(3)-(4)]
DOCKED: USER
DOCKED: USER    (1) Final Intermolecular Energy     =  +0.00 kcal/mol
DOCKED: USER        vdW + Hbond + desolv Energy     =  +0.00 kcal/mol
DOCKED: USER        Electrostatic Energy            =  +0.00 kcal/mol
DOCKED: USER        Moving Ligand-Fixed Receptor    =  +0.00 kcal/mol
DOCKED: USER        Moving Ligand-Moving Receptor   =  +0.00 kcal/mol
DOCKED: USER    (2) Final Total Internal Energy     = -16.00 kcal/mol
DOCKED: USER    (3) Torsional Free Energy           =  +6.86 kcal/mol
DOCKED: USER    (4) Unbound System's Energy         = -16.00 kcal/mol
DOCKED: USER
DOCKED: USER
DOCKED: REMARK  Name = ligands/ligand_23.pdb
DOCKED: REMARK  32 active torsions:
DOCKED: REMARK  status: ('A' for Active; 'I' for Inactive)
DOCKED: REMARK    1  A    between atoms: C1_1  and  S1_2
DOCKED: REMARK    2  A    between atoms: S1_2  and  C2_3
DOCKED: REMARK    3  A    between atoms: C2_3  and  C3_4
DOCKED: REMARK    4  A    between atoms: C3_4  and  C4_5
DOCKED: REMARK    5  A    between atoms: C4_5  and  N1_6
DOCKED: REMARK    6  A    between atoms: C4_5  and  C15_21
DOCKED: REMARK    7  A    between atoms: C5_7  and  C6_9
DOCKED: REMARK    8  A    between atoms: C6_9  and  N2_10
DOCKED: REMARK    9  A    between atoms: C6_9  and  C12_18
DOCKED: REMARK   10  A    between atoms: C7_11  and  O3_13
DOCKED: REMARK   11  A    between atoms: O3_13  and  C8_14
DOCKED: REMARK   12  A    between atoms: C8_14  and  C9_15
DOCKED: REMARK   13  A    between atoms: C8_14  and  C10_16
DOCKED: REMARK   14  A    between atoms: C8_14  and  C11_17
DOCKED: REMARK   15  A    between atoms: C12_18  and  C13_19
DOCKED: REMARK   16  A    between atoms: C12_18  and  C14_20
DOCKED: REMARK   17  A    between atoms: N3_23  and  C16_24
DOCKED: REMARK   18  A    between atoms: C16_24  and  C17_25
DOCKED: REMARK   19  A    between atoms: C16_24  and  C24_32
DOCKED: REMARK   20  A    between atoms: C17_25  and  C18_26
DOCKED: REMARK   21  A    between atoms: C24_32  and  O5_33
DOCKED: REMARK   22  A    between atoms: C24_32  and  C25_34
DOCKED: REMARK   23  A    between atoms: C25_34  and  C26_35
DOCKED: REMARK   24  A    between atoms: C26_35  and  C27_36
DOCKED: REMARK   25  A    between atoms: C26_35  and  C28_37
DOCKED: REMARK   26  A    between atoms: N4_39  and  C29_40
DOCKED: REMARK   27  A    between atoms: C29_40  and  C30_41
DOCKED: REMARK   28  A    between atoms: C29_40  and  C37_51
DOCKED: REMARK   29  A    between atoms: N5_43  and  C31_44
DOCKED: REMARK   30  A    between atoms: C31_44  and  C32_45
DOCKED: REMARK   31  A    between atoms: C37_51  and  C38_52
DOCKED: REMARK   32  A    between atoms: C37_51  and  C39_53
DOCKED: REMARK                            x       y       z     vdW  Elec       q    Type
DOCKED: REMARK                         _______ _______ _______ _____ _____    ______ ____
DOCKED: USER                              x       y       z     vdW  Elec       q    Type
DOCKED: USER                           _______ _______ _______ _____ _____    ______ ____
DOCKED: ROOT
DOCKED: ATOM      1  C16 UNL     1       6.883  -2.356  -1.709 +0.00 +0.00    +0.106 C  
DOCKED: ENDROOT
DOCKED: BRANCH   1   4
DOCKED: ATOM      2  C15 UNL     1       8.960  -3.364  -2.656 +0.00 +0.00    +0.234 C  
DOCKED: ATOM      3  O4  UNL     1       8.972  -2.635  -3.639 +0.00 -0.00    -0.274 OA 
DOCKED: ATOM      4  N3  UNL     1       7.928  -3.387  -1.751 +0.00 -0.00    -0.308 N  
DOCKED: ATOM      5  H28 UNL     1       8.086  -3.901  -0.895 +0.00 +0.00    +0.149 HD 
DOCKED: BRANCH   2   6
DOCKED: ATOM      6  C4  UNL     1      10.050  -4.433  -2.414 +0.00 +0.00    +0.160 C  
DOCKED: BRANCH   6   7
DOCKED: ATOM      7  N1  UNL     1       9.701  -5.382  -1.334 +0.00 -0.00    -0.302 N  
DOCKED: ATOM      8  C5  UNL     1       9.866  -5.023  -0.012 +0.00 +0.00    +0.234 C  
DOCKED: ATOM      9  O1  UNL     1       9.884  -3.833   0.318 +0.00 -0.00    -0.274 OA 
DOCKED: ATOM     10  H9  UNL     1       9.802  -6.355  -1.573 +0.00 +0.00    +0.150 HD 
DOCKED: BRANCH   8  11
DOCKED: ATOM     11  C6  UNL     1       9.792  -6.151   1.048 +0.00 +0.00    +0.165 C  
DOCKED: BRANCH  11  12
DOCKED: ATOM     12  N2  UNL     1       8.753  -5.782   2.001 +0.00 -0.00    -0.270 N  
DOCKED: ATOM     13  C7  UNL     1       7.479  -5.512   1.607 +0.00 +0.00    +0.401 C  
DOCKED: ATOM     14  O2  UNL     1       7.126  -5.332   0.454 +0.00 -0.00    -0.226 OA 
DOCKED: ATOM     15  H11 UNL     1       8.845  -6.016   2.980 +0.00 +0.00    +0.153 HD 
DOCKED: BRANCH  13  16
DOCKED: ATOM     16  O3  UNL     1       6.696  -5.465   2.704 +0.00 -0.00    -0.445 OA 
DOCKED: BRANCH  16  17
DOCKED: ATOM     17  C8  UNL     1       6.210  -6.686   3.315 +0.00 +0.00    +0.107 C  
DOCKED: ATOM     18  C9  UNL     1       6.164  -7.837   2.305 +0.00 +0.00    +0.055 C  
DOCKED: ATOM     19  C10 UNL     1       4.774  -6.356   3.757 +0.00 +0.00    +0.055 C  
DOCKED: ATOM     20  C11 UNL     1       7.039  -7.067   4.554 +0.00 +0.00    +0.055 C  
DOCKED: ENDBRANCH  16  17
DOCKED: ENDBRANCH  13  16
DOCKED: ENDBRANCH  11  12
DOCKED: BRANCH  11  21
DOCKED: ATOM     21  C12 UNL     1       9.669  -7.624   0.592 +0.00 +0.00    +0.012 C  
DOCKED: ATOM     22  C13 UNL     1       8.448  -7.944  -0.281 +0.00 +0.00    +0.009 C  
DOCKED: ATOM     23  C14 UNL     1      10.957  -8.165  -0.039 +0.00 +0.00    +0.009 C  
DOCKED: ENDBRANCH  11  21
DOCKED: ENDBRANCH   8  11
DOCKED: ENDBRANCH   6   7
DOCKED: BRANCH   6  24
DOCKED: ATOM     24  C3  UNL     1      10.303  -5.230  -3.702 +0.00 +0.00    +0.042 C  
DOCKED: BRANCH  24  25
DOCKED: ATOM     25  C2  UNL     1      11.187  -6.454  -3.462 +0.00 +0.00    +0.071 C  
DOCKED: BRANCH  25  27
DOCKED: ATOM     26  C1  UNL     1       8.553  -7.281  -3.775 +0.00 +0.00    +0.084 C  
DOCKED: ATOM     27  S1  UNL     1      10.192  -7.982  -3.451 +0.00 -0.00    -0.164 S  
DOCKED: ENDBRANCH  25  27
DOCKED: ENDBRANCH  24  25
DOCKED: ENDBRANCH   6  24
DOCKED: ENDBRANCH   2   6
DOCKED: ENDBRANCH   1   4
DOCKED: BRANCH   1  28
DOCKED: ATOM     28  C17 UNL     1       5.551  -2.953  -2.220 +0.00 +0.00    +0.060 C  
DOCKED: BRANCH  28  29
DOCKED: ATOM     29  C18 UNL     1       5.281  -4.361  -1.737 +0.00 -0.00    -0.046 A  
DOCKED: ATOM     30  C19 UNL     1       5.844  -5.467  -2.391 +0.00 +0.00    +0.004 A  
DOCKED: ATOM     31  C20 UNL     1       5.598  -6.763  -1.931 +0.00 +0.00    +0.000 A  
DOCKED: ATOM     32  C21 UNL     1       4.781  -6.971  -0.819 +0.00 +0.00    +0.000 A  
DOCKED: ATOM     33  C22 UNL     1       4.198  -5.885  -0.171 +0.00 +0.00    +0.000 A  
DOCKED: ATOM     34  C23 UNL     1       4.445  -4.587  -0.629 +0.00 +0.00    +0.004 A  
DOCKED: ENDBRANCH  28  29
DOCKED: ENDBRANCH   1  28
DOCKED: BRANCH   1  35
DOCKED: ATOM     35  C24 UNL     1       6.693  -1.825  -0.256 +0.00 +0.00    +0.136 C  
DOCKED: BRANCH  35  36
DOCKED: ATOM     36  O5  UNL     1       6.921  -2.909   0.656 +0.00 -0.00    -0.390 OA 
DOCKED: ATOM     37  H38 UNL     1       7.776  -3.317   0.395 +0.00 +0.00    +0.210 HD 
DOCKED: ENDBRANCH  35  36
DOCKED: BRANCH  35  38
DOCKED: ATOM     38  C25 UNL     1       7.614  -0.638   0.078 +0.00 +0.00    +0.045 C  
DOCKED: BRANCH  38  39
DOCKED: ATOM     39  C26 UNL     1       9.121  -0.985   0.101 +0.00 +0.00    +0.074 C  
DOCKED: ATOM     40  C27 UNL     1      10.031   0.113  -0.463 +0.00 +0.00    +0.017 C  
DOCKED: BRANCH  39  41
DOCKED: ATOM     41  C28 UNL     1       9.610  -1.321   1.512 +0.00 +0.00    +0.217 C  
DOCKED: ATOM     42  O6  UNL     1      10.540  -0.721   2.050 +0.00 -0.00    -0.276 OA 
DOCKED: ATOM     43  N4  UNL     1       8.883  -2.284   2.171 +0.00 -0.00    -0.304 N  
DOCKED: ATOM     44  H45 UNL     1       8.395  -2.975   1.606 +0.00 +0.00    +0.149 HD 
DOCKED: BRANCH  43  45
DOCKED: ATOM     45  C29 UNL     1       9.187  -2.673   3.539 +0.00 +0.00    +0.161 C  
DOCKED: BRANCH  45  46
DOCKED: ATOM     46  C30 UNL     1      10.268  -3.782   3.523 +0.00 +0.00    +0.234 C  
DOCKED: ATOM     47  O7  UNL     1      10.198  -4.820   4.176 +0.00 -0.00    -0.274 OA 
DOCKED: ATOM     48  N5  UNL     1      11.290  -3.502   2.640 +0.00 -0.00    -0.310 N  
DOCKED: ATOM     49  H47 UNL     1      11.064  -2.817   1.915 +0.00 +0.00    +0.149 HD 
DOCKED: BRANCH  48  50
DOCKED: ATOM     50  C31 UNL     1      12.373  -4.411   2.365 +0.00 +0.00    +0.139 C  
DOCKED: BRANCH  50  51
DOCKED: ATOM     51  C32 UNL     1      12.825  -4.385   0.928 +0.00 -0.00    -0.027 A  
DOCKED: ATOM     52  C33 UNL     1      12.798  -3.191   0.194 +0.00 +0.00    +0.025 A  
DOCKED: ATOM     53  C34 UNL     1      13.169  -3.221  -1.145 +0.00 +0.00    +0.111 A  
DOCKED: ATOM     54  N6  UNL     1      13.531  -4.344  -1.802 +0.00 -0.00    -0.263 NA 
DOCKED: ATOM     55  C35 UNL     1      13.554  -5.481  -1.075 +0.00 +0.00    +0.111 A  
DOCKED: ATOM     56  C36 UNL     1      13.217  -5.553   0.268 +0.00 +0.00    +0.025 A  
DOCKED: ENDBRANCH  50  51
DOCKED: ENDBRANCH  48  50
DOCKED: ENDBRANCH  45  46
DOCKED: BRANCH  45  57
DOCKED: ATOM     57  C37 UNL     1       7.929  -3.092   4.341 +0.00 +0.00    +0.012 C  
DOCKED: ATOM     58  C38 UNL     1       8.087  -2.724   5.822 +0.00 +0.00    +0.009 C  
DOCKED: ATOM     59  C39 UNL     1       6.615  -2.516   3.810 +0.00 +0.00    +0.009 C  
DOCKED: ENDBRANCH  45  57
DOCKED: ENDBRANCH  43  45
DOCKED: ENDBRANCH  39  41
DOCKED: ENDBRANCH  38  39
DOCKED: ENDBRANCH  35  38
DOCKED: ENDBRANCH   1  35
DOCKED: TORSDOF 23
DOCKED: TER
DOCKED: ENDMDL
________________________________________________________________________________


    FINAL DOCKED STATE:
    ________________________


Run:   14 / 20
Time taken for this run:   2.355s

DOCKED: MODEL        14
DOCKED: USER    Run = 14
DOCKED: USER
DOCKED: USER    Estimated Free Energy of Binding    =  +6.86 kcal/mol  [=(1)+(2)+(3)-(4)]
DOCKED: USER
DOCKED: USER    (1) Final Intermolecular Energy     =  +0.00 kcal/mol
DOCKED: USER        vdW + Hbond + desolv Energy     =  +0.00 kcal/mol
DOCKED: USER        Electrostatic Energy            =  +0.00 kcal/mol
DOCKED: USER        Moving Ligand-Fixed Receptor    =  +0.00 kcal/mol
DOCKED: USER        Moving Ligand-Moving Receptor   =  +0.00 kcal/mol
DOCKED: USER    (2) Final Total Internal Energy     = -16.02 kcal/mol
DOCKED: USER    (3) Torsional Free Energy           =  +6.86 kcal/mol
DOCKED: USER    (4) Unbound System's Energy         = -16.02 kcal/mol
DOCKED: USER
DOCKED: USER
DOCKED: REMARK  Name = ligands/ligand_23.pdb
DOCKED: REMARK  32 active torsions:
DOCKED: REMARK  status: ('A' for Active; 'I' for Inactive)
DOCKED: REMARK    1  A    between atoms: C1_1  and  S1_2
DOCKED: REMARK    2  A    between atoms: S1_2  and  C2_3
DOCKED: REMARK    3  A    between atoms: C2_3  and  C3_4
DOCKED: REMARK    4  A    between atoms: C3_4  and  C4_5
DOCKED: REMARK    5  A    between atoms: C4_5  and  N1_6
DOCKED: REMARK    6  A    between atoms: C4_5  and  C15_21
DOCKED: REMARK    7  A    between atoms: C5_7  and  C6_9
DOCKED: REMARK    8  A    between atoms: C6_9  and  N2_10
DOCKED: REMARK    9  A    between atoms: C6_9  and  C12_18
DOCKED: REMARK   10  A    between atoms: C7_11  and  O3_13
DOCKED: REMARK   11  A    between atoms: O3_13  and  C8_14
DOCKED: REMARK   12  A    between atoms: C8_14  and  C9_15
DOCKED: REMARK   13  A    between atoms: C8_14  and  C10_16
DOCKED: REMARK   14  A    between atoms: C8_14  and  C11_17
DOCKED: REMARK   15  A    between atoms: C12_18  and  C13_19
DOCKED: REMARK   16  A    between atoms: C12_18  and  C14_20
DOCKED: REMARK   17  A    between atoms: N3_23  and  C16_24
DOCKED: REMARK   18  A    between atoms: C16_24  and  C17_25
DOCKED: REMARK   19  A    between atoms: C16_24  and  C24_32
DOCKED: REMARK   20  A    between atoms: C17_25  and  C18_26
DOCKED: REMARK   21  A    between atoms: C24_32  and  O5_33
DOCKED: REMARK   22  A    between atoms: C24_32  and  C25_34
DOCKED: REMARK   23  A    between atoms: C25_34  and  C26_35
DOCKED: REMARK   24  A    between atoms: C26_35  and  C27_36
DOCKED: REMARK   25  A    between atoms: C26_35  and  C28_37
DOCKED: REMARK   26  A    between atoms: N4_39  and  C29_40
DOCKED: REMARK   27  A    between atoms: C29_40  and  C30_41
DOCKED: REMARK   28  A    between atoms: C29_40  and  C37_51
DOCKED: REMARK   29  A    between atoms: N5_43  and  C31_44
DOCKED: REMARK   30  A    between atoms: C31_44  and  C32_45
DOCKED: REMARK   31  A    between atoms: C37_51  and  C38_52
DOCKED: REMARK   32  A    between atoms: C37_51  and  C39_53
DOCKED: REMARK                            x       y       z     vdW  Elec       q    Type
DOCKED: REMARK                         _______ _______ _______ _____ _____    ______ ____
DOCKED: USER                              x       y       z     vdW  Elec       q    Type
DOCKED: USER                           _______ _______ _______ _____ _____    ______ ____
DOCKED: ROOT
DOCKED: ATOM      1  C16 UNL     1      10.461  -5.968   5.610 +0.00 +0.00    +0.106 C  
DOCKED: ENDROOT
DOCKED: BRANCH   1   4
DOCKED: ATOM      2  C15 UNL     1      11.984  -7.406   6.967 +0.00 +0.00    +0.234 C  
DOCKED: ATOM      3  O4  UNL     1      11.081  -7.874   7.648 +0.00 -0.00    -0.274 OA 
DOCKED: ATOM      4  N3  UNL     1      11.792  -6.394   6.059 +0.00 -0.00    -0.308 N  
DOCKED: ATOM      5  H28 UNL     1      12.563  -6.191   5.436 +0.00 +0.00    +0.149 HD 
DOCKED: BRANCH   2   6
DOCKED: ATOM      6  C4  UNL     1      13.460  -7.820   7.164 +0.00 +0.00    +0.160 C  
DOCKED: BRANCH   6   7
DOCKED: ATOM      7  N1  UNL     1      14.410  -6.932   6.461 +0.00 -0.00    -0.302 N  
DOCKED: ATOM      8  C5  UNL     1      14.637  -7.086   5.109 +0.00 +0.00    +0.234 C  
DOCKED: ATOM      9  O1  UNL     1      13.794  -7.631   4.389 +0.00 -0.00    -0.274 OA 
DOCKED: ATOM     10  H9  UNL     1      15.167  -6.583   7.028 +0.00 +0.00    +0.150 HD 
DOCKED: BRANCH   8  11
DOCKED: ATOM     11  C6  UNL     1      15.861  -6.353   4.502 +0.00 +0.00    +0.165 C  
DOCKED: BRANCH  11  12
DOCKED: ATOM     12  N2  UNL     1      15.370  -5.520   3.411 +0.00 -0.00    -0.270 N  
DOCKED: ATOM     13  C7  UNL     1      14.392  -4.592   3.599 +0.00 +0.00    +0.401 C  
DOCKED: ATOM     14  O2  UNL     1      13.688  -4.507   4.591 +0.00 -0.00    -0.226 OA 
DOCKED: ATOM     15  H11 UNL     1      15.929  -5.374   2.582 +0.00 +0.00    +0.153 HD 
DOCKED: BRANCH  13  16
DOCKED: ATOM     16  O3  UNL     1      14.334  -3.809   2.503 +0.00 -0.00    -0.445 OA 
DOCKED: BRANCH  16  17
DOCKED: ATOM     17  C8  UNL     1      15.285  -2.732   2.315 +0.00 +0.00    +0.107 C  
DOCKED: ATOM     18  C9  UNL     1      15.775  -2.179   3.658 +0.00 +0.00    +0.055 C  
DOCKED: ATOM     19  C10 UNL     1      14.492  -1.634   1.587 +0.00 +0.00    +0.055 C  
DOCKED: ATOM     20  C11 UNL     1      16.465  -3.167   1.430 +0.00 +0.00    +0.055 C  
DOCKED: ENDBRANCH  16  17
DOCKED: ENDBRANCH  13  16
DOCKED: ENDBRANCH  11  12
DOCKED: BRANCH  11  21
DOCKED: ATOM     21  C12 UNL     1      16.831  -5.585   5.431 +0.00 +0.00    +0.012 C  
DOCKED: ATOM     22  C13 UNL     1      16.190  -4.492   6.295 +0.00 +0.00    +0.009 C  
DOCKED: ATOM     23  C14 UNL     1      17.711  -6.513   6.275 +0.00 +0.00    +0.009 C  
DOCKED: ENDBRANCH  11  21
DOCKED: ENDBRANCH   8  11
DOCKED: ENDBRANCH   6   7
DOCKED: BRANCH   6  24
DOCKED: ATOM     24  C3  UNL     1      13.811  -7.826   8.659 +0.00 +0.00    +0.042 C  
DOCKED: BRANCH  24  25
DOCKED: ATOM     25  C2  UNL     1      13.428  -6.517   9.350 +0.00 +0.00    +0.071 C  
DOCKED: BRANCH  25  27
DOCKED: ATOM     26  C1  UNL     1      16.206  -6.559   9.374 +0.00 +0.00    +0.084 C  
DOCKED: ATOM     27  S1  UNL     1      14.842  -5.367   9.392 +0.00 -0.00    -0.164 S  
DOCKED: ENDBRANCH  25  27
DOCKED: ENDBRANCH  24  25
DOCKED: ENDBRANCH   6  24
DOCKED: ENDBRANCH   2   6
DOCKED: ENDBRANCH   1   4
DOCKED: BRANCH   1  28
DOCKED: ATOM     28  C17 UNL     1      10.129  -4.587   6.220 +0.00 +0.00    +0.060 C  
DOCKED: BRANCH  28  29
DOCKED: ATOM     29  C18 UNL     1      11.307  -3.640   6.278 +0.00 -0.00    -0.046 A  
DOCKED: ATOM     30  C19 UNL     1      12.249  -3.724   7.315 +0.00 +0.00    +0.004 A  
DOCKED: ATOM     31  C20 UNL     1      13.340  -2.853   7.354 +0.00 +0.00    +0.000 A  
DOCKED: ATOM     32  C21 UNL     1      13.499  -1.881   6.365 +0.00 +0.00    +0.000 A  
DOCKED: ATOM     33  C22 UNL     1      12.563  -1.771   5.340 +0.00 +0.00    +0.000 A  
DOCKED: ATOM     34  C23 UNL     1      11.472  -2.645   5.298 +0.00 +0.00    +0.004 A  
DOCKED: ENDBRANCH  28  29
DOCKED: ENDBRANCH   1  28
DOCKED: BRANCH   1  35
DOCKED: ATOM     35  C24 UNL     1      10.409  -5.879   4.054 +0.00 +0.00    +0.136 C  
DOCKED: BRANCH  35  36
DOCKED: ATOM     36  O5  UNL     1      11.690  -5.438   3.583 +0.00 -0.00    -0.390 OA 
DOCKED: ATOM     37  H38 UNL     1      12.358  -6.017   4.013 +0.00 +0.00    +0.210 HD 
DOCKED: ENDBRANCH  35  36
DOCKED: BRANCH  35  38
DOCKED: ATOM     38  C25 UNL     1      10.016  -7.208   3.386 +0.00 +0.00    +0.045 C  
DOCKED: BRANCH  38  39
DOCKED: ATOM     39  C26 UNL     1      11.045  -8.347   3.576 +0.00 +0.00    +0.074 C  
DOCKED: ATOM     40  C27 UNL     1      10.421  -9.732   3.790 +0.00 +0.00    +0.017 C  
DOCKED: BRANCH  39  41
DOCKED: ATOM     41  C28 UNL     1      12.015  -8.446   2.396 +0.00 +0.00    +0.217 C  
DOCKED: ATOM     42  O6  UNL     1      12.146  -9.474   1.732 +0.00 -0.00    -0.276 OA 
DOCKED: ATOM     43  N4  UNL     1      12.669  -7.280   2.076 +0.00 -0.00    -0.304 N  
DOCKED: ATOM     44  H45 UNL     1      12.814  -6.601   2.819 +0.00 +0.00    +0.149 HD 
DOCKED: BRANCH  43  45
DOCKED: ATOM     45  C29 UNL     1      13.580  -7.198   0.945 +0.00 +0.00    +0.161 C  
DOCKED: BRANCH  45  46
DOCKED: ATOM     46  C30 UNL     1      14.997  -7.621   1.403 +0.00 +0.00    +0.234 C  
DOCKED: ATOM     47  O7  UNL     1      16.020  -6.993   1.144 +0.00 -0.00    -0.274 OA 
DOCKED: ATOM     48  N5  UNL     1      14.975  -8.752   2.193 +0.00 -0.00    -0.310 N  
DOCKED: ATOM     49  H47 UNL     1      14.072  -8.964   2.624 +0.00 +0.00    +0.149 HD 
DOCKED: BRANCH  48  50
DOCKED: ATOM     50  C31 UNL     1      16.146  -9.303   2.826 +0.00 +0.00    +0.139 C  
DOCKED: BRANCH  50  51
DOCKED: ATOM     51  C32 UNL     1      15.880  -9.848   4.205 +0.00 -0.00    -0.027 A  
DOCKED: ATOM     52  C33 UNL     1      14.684 -10.523   4.486 +0.00 +0.00    +0.025 A  
DOCKED: ATOM     53  C34 UNL     1      14.453 -10.960   5.785 +0.00 +0.00    +0.111 A  
DOCKED: ATOM     54  N6  UNL     1      15.301 -10.749   6.814 +0.00 -0.00    -0.263 NA 
DOCKED: ATOM     55  C35 UNL     1      16.448 -10.101   6.519 +0.00 +0.00    +0.111 A  
DOCKED: ATOM     56  C36 UNL     1      16.779  -9.639   5.255 +0.00 +0.00    +0.025 A  
DOCKED: ENDBRANCH  50  51
DOCKED: ENDBRANCH  48  50
DOCKED: ENDBRANCH  45  46
DOCKED: BRANCH  45  57
DOCKED: ATOM     57  C37 UNL     1      13.576  -5.805   0.267 +0.00 +0.00    +0.012 C  
DOCKED: ATOM     58  C38 UNL     1      13.836  -5.937  -1.240 +0.00 +0.00    +0.009 C  
DOCKED: ATOM     59  C39 UNL     1      12.300  -4.992   0.493 +0.00 +0.00    +0.009 C  
DOCKED: ENDBRANCH  45  57
DOCKED: ENDBRANCH  43  45
DOCKED: ENDBRANCH  39  41
DOCKED: ENDBRANCH  38  39
DOCKED: ENDBRANCH  35  38
DOCKED: ENDBRANCH   1  35
DOCKED: TORSDOF 23
DOCKED: TER
DOCKED: ENDMDL
________________________________________________________________________________


    FINAL DOCKED STATE:
    ________________________


Run:   15 / 20
Time taken for this run:   2.355s

DOCKED: MODEL        15
DOCKED: USER    Run = 15
DOCKED: USER
DOCKED: USER    Estimated Free Energy of Binding    =  +6.86 kcal/mol  [=(1)+(2)+(3)-(4)]
DOCKED: USER
DOCKED: USER    (1) Final Intermolecular Energy     =  +0.00 kcal/mol
DOCKED: USER        vdW + Hbond + desolv Energy     =  +0.00 kcal/mol
DOCKED: USER        Electrostatic Energy            =  +0.00 kcal/mol
DOCKED: USER        Moving Ligand-Fixed Receptor    =  +0.00 kcal/mol
DOCKED: USER        Moving Ligand-Moving Receptor   =  +0.00 kcal/mol
DOCKED: USER    (2) Final Total Internal Energy     = -15.47 kcal/mol
DOCKED: USER    (3) Torsional Free Energy           =  +6.86 kcal/mol
DOCKED: USER    (4) Unbound System's Energy         = -15.47 kcal/mol
DOCKED: USER
DOCKED: USER
DOCKED: REMARK  Name = ligands/ligand_23.pdb
DOCKED: REMARK  32 active torsions:
DOCKED: REMARK  status: ('A' for Active; 'I' for Inactive)
DOCKED: REMARK    1  A    between atoms: C1_1  and  S1_2
DOCKED: REMARK    2  A    between atoms: S1_2  and  C2_3
DOCKED: REMARK    3  A    between atoms: C2_3  and  C3_4
DOCKED: REMARK    4  A    between atoms: C3_4  and  C4_5
DOCKED: REMARK    5  A    between atoms: C4_5  and  N1_6
DOCKED: REMARK    6  A    between atoms: C4_5  and  C15_21
DOCKED: REMARK    7  A    between atoms: C5_7  and  C6_9
DOCKED: REMARK    8  A    between atoms: C6_9  and  N2_10
DOCKED: REMARK    9  A    between atoms: C6_9  and  C12_18
DOCKED: REMARK   10  A    between atoms: C7_11  and  O3_13
DOCKED: REMARK   11  A    between atoms: O3_13  and  C8_14
DOCKED: REMARK   12  A    between atoms: C8_14  and  C9_15
DOCKED: REMARK   13  A    between atoms: C8_14  and  C10_16
DOCKED: REMARK   14  A    between atoms: C8_14  and  C11_17
DOCKED: REMARK   15  A    between atoms: C12_18  and  C13_19
DOCKED: REMARK   16  A    between atoms: C12_18  and  C14_20
DOCKED: REMARK   17  A    between atoms: N3_23  and  C16_24
DOCKED: REMARK   18  A    between atoms: C16_24  and  C17_25
DOCKED: REMARK   19  A    between atoms: C16_24  and  C24_32
DOCKED: REMARK   20  A    between atoms: C17_25  and  C18_26
DOCKED: REMARK   21  A    between atoms: C24_32  and  O5_33
DOCKED: REMARK   22  A    between atoms: C24_32  and  C25_34
DOCKED: REMARK   23  A    between atoms: C25_34  and  C26_35
DOCKED: REMARK   24  A    between atoms: C26_35  and  C27_36
DOCKED: REMARK   25  A    between atoms: C26_35  and  C28_37
DOCKED: REMARK   26  A    between atoms: N4_39  and  C29_40
DOCKED: REMARK   27  A    between atoms: C29_40  and  C30_41
DOCKED: REMARK   28  A    between atoms: C29_40  and  C37_51
DOCKED: REMARK   29  A    between atoms: N5_43  and  C31_44
DOCKED: REMARK   30  A    between atoms: C31_44  and  C32_45
DOCKED: REMARK   31  A    between atoms: C37_51  and  C38_52
DOCKED: REMARK   32  A    between atoms: C37_51  and  C39_53
DOCKED: REMARK                            x       y       z     vdW  Elec       q    Type
DOCKED: REMARK                         _______ _______ _______ _____ _____    ______ ____
DOCKED: USER                              x       y       z     vdW  Elec       q    Type
DOCKED: USER                           _______ _______ _______ _____ _____    ______ ____
DOCKED: ROOT
DOCKED: ATOM      1  C16 UNL     1      14.871  -1.475   4.075 +0.00 +0.00    +0.106 C  
DOCKED: ENDROOT
DOCKED: BRANCH   1   4
DOCKED: ATOM      2  C15 UNL     1      14.424  -3.874   4.593 +0.00 +0.00    +0.234 C  
DOCKED: ATOM      3  O4  UNL     1      15.455  -4.019   5.236 +0.00 -0.00    -0.274 OA 
DOCKED: ATOM      4  N3  UNL     1      14.130  -2.729   3.895 +0.00 -0.00    -0.308 N  
DOCKED: ATOM      5  H28 UNL     1      13.189  -2.648   3.533 +0.00 +0.00    +0.149 HD 
DOCKED: BRANCH   2   6
DOCKED: ATOM      6  C4  UNL     1      13.413  -5.026   4.394 +0.00 +0.00    +0.160 C  
DOCKED: BRANCH   6   7
DOCKED: ATOM      7  N1  UNL     1      12.674  -4.933   3.116 +0.00 -0.00    -0.302 N  
DOCKED: ATOM      8  C5  UNL     1      13.344  -5.035   1.915 +0.00 +0.00    +0.234 C  
DOCKED: ATOM      9  O1  UNL     1      14.435  -5.611   1.852 +0.00 -0.00    -0.274 OA 
DOCKED: ATOM     10  H9  UNL     1      11.844  -4.362   3.145 +0.00 +0.00    +0.150 HD 
DOCKED: BRANCH   8  11
DOCKED: ATOM     11  C6  UNL     1      12.581  -4.614   0.633 +0.00 +0.00    +0.165 C  
DOCKED: BRANCH  11  12
DOCKED: ATOM     12  N2  UNL     1      12.671  -3.163   0.533 +0.00 -0.00    -0.270 N  
DOCKED: ATOM     13  C7  UNL     1      12.129  -2.342   1.473 +0.00 +0.00    +0.401 C  
DOCKED: ATOM     14  O2  UNL     1      11.349  -2.692   2.343 +0.00 -0.00    -0.226 OA 
DOCKED: ATOM     15  H11 UNL     1      13.384  -2.729  -0.037 +0.00 +0.00    +0.153 HD 
DOCKED: BRANCH  13  16
DOCKED: ATOM     16  O3  UNL     1      12.590  -1.093   1.263 +0.00 -0.00    -0.445 OA 
DOCKED: BRANCH  16  17
DOCKED: ATOM     17  C8  UNL     1      11.676  -0.012   0.952 +0.00 +0.00    +0.107 C  
DOCKED: ATOM     18  C9  UNL     1      10.958  -0.252  -0.379 +0.00 +0.00    +0.055 C  
DOCKED: ATOM     19  C10 UNL     1      12.573   1.230   0.814 +0.00 +0.00    +0.055 C  
DOCKED: ATOM     20  C11 UNL     1      10.670   0.222   2.092 +0.00 +0.00    +0.055 C  
DOCKED: ENDBRANCH  16  17
DOCKED: ENDBRANCH  13  16
DOCKED: ENDBRANCH  11  12
DOCKED: BRANCH  11  21
DOCKED: ATOM     21  C12 UNL     1      12.897  -5.313  -0.711 +0.00 +0.00    +0.012 C  
DOCKED: ATOM     22  C13 UNL     1      12.832  -6.845  -0.688 +0.00 +0.00    +0.009 C  
DOCKED: ATOM     23  C14 UNL     1      12.093  -4.743  -1.884 +0.00 +0.00    +0.009 C  
DOCKED: ENDBRANCH  11  21
DOCKED: ENDBRANCH   8  11
DOCKED: ENDBRANCH   6   7
DOCKED: BRANCH   6  24
DOCKED: ATOM     24  C3  UNL     1      14.137  -6.379   4.443 +0.00 +0.00    +0.042 C  
DOCKED: BRANCH  24  25
DOCKED: ATOM     25  C2  UNL     1      13.651  -7.256   5.598 +0.00 +0.00    +0.071 C  
DOCKED: BRANCH  25  27
DOCKED: ATOM     26  C1  UNL     1      14.290  -5.690   7.802 +0.00 +0.00    +0.084 C  
DOCKED: ATOM     27  S1  UNL     1      12.834  -6.249   6.879 +0.00 -0.00    -0.164 S  
DOCKED: ENDBRANCH  25  27
DOCKED: ENDBRANCH  24  25
DOCKED: ENDBRANCH   6  24
DOCKED: ENDBRANCH   2   6
DOCKED: ENDBRANCH   1   4
DOCKED: BRANCH   1  28
DOCKED: ATOM     28  C17 UNL     1      15.666  -1.157   2.787 +0.00 +0.00    +0.060 C  
DOCKED: BRANCH  28  29
DOCKED: ATOM     29  C18 UNL     1      16.122  -2.384   2.026 +0.00 -0.00    -0.046 A  
DOCKED: ATOM     30  C19 UNL     1      16.980  -3.322   2.618 +0.00 +0.00    +0.004 A  
DOCKED: ATOM     31  C20 UNL     1      17.385  -4.457   1.912 +0.00 +0.00    +0.000 A  
DOCKED: ATOM     32  C21 UNL     1      16.947  -4.664   0.603 +0.00 +0.00    +0.000 A  
DOCKED: ATOM     33  C22 UNL     1      16.110  -3.732  -0.007 +0.00 +0.00    +0.000 A  
DOCKED: ATOM     34  C23 UNL     1      15.702  -2.597   0.701 +0.00 +0.00    +0.004 A  
DOCKED: ENDBRANCH  28  29
DOCKED: ENDBRANCH   1  28
DOCKED: BRANCH   1  35
DOCKED: ATOM     35  C24 UNL     1      13.895  -0.300   4.388 +0.00 +0.00    +0.136 C  
DOCKED: BRANCH  35  36
DOCKED: ATOM     36  O5  UNL     1      12.550  -0.790   4.285 +0.00 -0.00    -0.390 OA 
DOCKED: ATOM     37  H38 UNL     1      12.519  -1.347   3.476 +0.00 +0.00    +0.210 HD 
DOCKED: ENDBRANCH  35  36
DOCKED: BRANCH  35  38
DOCKED: ATOM     38  C25 UNL     1      14.135   0.331   5.771 +0.00 +0.00    +0.045 C  
DOCKED: BRANCH  38  39
DOCKED: ATOM     39  C26 UNL     1      14.946  -0.554   6.745 +0.00 +0.00    +0.074 C  
DOCKED: ATOM     40  C27 UNL     1      15.397   0.164   8.024 +0.00 +0.00    +0.017 C  
DOCKED: BRANCH  39  41
DOCKED: ATOM     41  C28 UNL     1      14.174  -1.809   7.159 +0.00 +0.00    +0.217 C  
DOCKED: ATOM     42  O6  UNL     1      14.642  -2.652   7.924 +0.00 -0.00    -0.276 OA 
DOCKED: ATOM     43  N4  UNL     1      12.886  -1.887   6.684 +0.00 -0.00    -0.304 N  
DOCKED: ATOM     44  H45 UNL     1      12.674  -1.403   5.815 +0.00 +0.00    +0.149 HD 
DOCKED: BRANCH  43  45
DOCKED: ATOM     45  C29 UNL     1      12.005  -2.990   7.035 +0.00 +0.00    +0.161 C  
DOCKED: BRANCH  45  46
DOCKED: ATOM     46  C30 UNL     1      11.075  -3.298   5.836 +0.00 +0.00    +0.234 C  
DOCKED: ATOM     47  O7  UNL     1      11.306  -2.953   4.680 +0.00 -0.00    -0.274 OA 
DOCKED: ATOM     48  N5  UNL     1       9.987  -4.063   6.202 +0.00 -0.00    -0.310 N  
DOCKED: ATOM     49  H47 UNL     1      10.090  -4.576   7.080 +0.00 +0.00    +0.149 HD 
DOCKED: BRANCH  48  50
DOCKED: ATOM     50  C31 UNL     1       9.017  -4.565   5.262 +0.00 +0.00    +0.139 C  
DOCKED: BRANCH  50  51
DOCKED: ATOM     51  C32 UNL     1       9.619  -5.444   4.195 +0.00 -0.00    -0.027 A  
DOCKED: ATOM     52  C33 UNL     1       9.417  -5.156   2.838 +0.00 +0.00    +0.025 A  
DOCKED: ATOM     53  C34 UNL     1       9.941  -6.024   1.886 +0.00 +0.00    +0.111 A  
DOCKED: ATOM     54  N6  UNL     1      10.615  -7.154   2.186 +0.00 -0.00    -0.263 NA 
DOCKED: ATOM     55  C35 UNL     1      10.801  -7.408   3.499 +0.00 +0.00    +0.111 A  
DOCKED: ATOM     56  C36 UNL     1      10.333  -6.600   4.523 +0.00 +0.00    +0.025 A  
DOCKED: ENDBRANCH  50  51
DOCKED: ENDBRANCH  48  50
DOCKED: ENDBRANCH  45  46
DOCKED: BRANCH  45  57
DOCKED: ATOM     57  C37 UNL     1      11.211  -2.735   8.341 +0.00 +0.00    +0.012 C  
DOCKED: ATOM     58  C38 UNL     1      11.891  -3.429   9.529 +0.00 +0.00    +0.009 C  
DOCKED: ATOM     59  C39 UNL     1      10.992  -1.258   8.673 +0.00 +0.00    +0.009 C  
DOCKED: ENDBRANCH  45  57
DOCKED: ENDBRANCH  43  45
DOCKED: ENDBRANCH  39  41
DOCKED: ENDBRANCH  38  39
DOCKED: ENDBRANCH  35  38
DOCKED: ENDBRANCH   1  35
DOCKED: TORSDOF 23
DOCKED: TER
DOCKED: ENDMDL
________________________________________________________________________________


    FINAL DOCKED STATE:
    ________________________


Run:   16 / 20
Time taken for this run:   2.355s

DOCKED: MODEL        16
DOCKED: USER    Run = 16
DOCKED: USER
DOCKED: USER    Estimated Free Energy of Binding    =  +6.86 kcal/mol  [=(1)+(2)+(3)-(4)]
DOCKED: USER
DOCKED: USER    (1) Final Intermolecular Energy     =  +0.00 kcal/mol
DOCKED: USER        vdW + Hbond + desolv Energy     =  +0.00 kcal/mol
DOCKED: USER        Electrostatic Energy            =  +0.00 kcal/mol
DOCKED: USER        Moving Ligand-Fixed Receptor    =  +0.00 kcal/mol
DOCKED: USER        Moving Ligand-Moving Receptor   =  +0.00 kcal/mol
DOCKED: USER    (2) Final Total Internal Energy     = -15.71 kcal/mol
DOCKED: USER    (3) Torsional Free Energy           =  +6.86 kcal/mol
DOCKED: USER    (4) Unbound System's Energy         = -15.71 kcal/mol
DOCKED: USER
DOCKED: USER
DOCKED: REMARK  Name = ligands/ligand_23.pdb
DOCKED: REMARK  32 active torsions:
DOCKED: REMARK  status: ('A' for Active; 'I' for Inactive)
DOCKED: REMARK    1  A    between atoms: C1_1  and  S1_2
DOCKED: REMARK    2  A    between atoms: S1_2  and  C2_3
DOCKED: REMARK    3  A    between atoms: C2_3  and  C3_4
DOCKED: REMARK    4  A    between atoms: C3_4  and  C4_5
DOCKED: REMARK    5  A    between atoms: C4_5  and  N1_6
DOCKED: REMARK    6  A    between atoms: C4_5  and  C15_21
DOCKED: REMARK    7  A    between atoms: C5_7  and  C6_9
DOCKED: REMARK    8  A    between atoms: C6_9  and  N2_10
DOCKED: REMARK    9  A    between atoms: C6_9  and  C12_18
DOCKED: REMARK   10  A    between atoms: C7_11  and  O3_13
DOCKED: REMARK   11  A    between atoms: O3_13  and  C8_14
DOCKED: REMARK   12  A    between atoms: C8_14  and  C9_15
DOCKED: REMARK   13  A    between atoms: C8_14  and  C10_16
DOCKED: REMARK   14  A    between atoms: C8_14  and  C11_17
DOCKED: REMARK   15  A    between atoms: C12_18  and  C13_19
DOCKED: REMARK   16  A    between atoms: C12_18  and  C14_20
DOCKED: REMARK   17  A    between atoms: N3_23  and  C16_24
DOCKED: REMARK   18  A    between atoms: C16_24  and  C17_25
DOCKED: REMARK   19  A    between atoms: C16_24  and  C24_32
DOCKED: REMARK   20  A    between atoms: C17_25  and  C18_26
DOCKED: REMARK   21  A    between atoms: C24_32  and  O5_33
DOCKED: REMARK   22  A    between atoms: C24_32  and  C25_34
DOCKED: REMARK   23  A    between atoms: C25_34  and  C26_35
DOCKED: REMARK   24  A    between atoms: C26_35  and  C27_36
DOCKED: REMARK   25  A    between atoms: C26_35  and  C28_37
DOCKED: REMARK   26  A    between atoms: N4_39  and  C29_40
DOCKED: REMARK   27  A    between atoms: C29_40  and  C30_41
DOCKED: REMARK   28  A    between atoms: C29_40  and  C37_51
DOCKED: REMARK   29  A    between atoms: N5_43  and  C31_44
DOCKED: REMARK   30  A    between atoms: C31_44  and  C32_45
DOCKED: REMARK   31  A    between atoms: C37_51  and  C38_52
DOCKED: REMARK   32  A    between atoms: C37_51  and  C39_53
DOCKED: REMARK                            x       y       z     vdW  Elec       q    Type
DOCKED: REMARK                         _______ _______ _______ _____ _____    ______ ____
DOCKED: USER                              x       y       z     vdW  Elec       q    Type
DOCKED: USER                           _______ _______ _______ _____ _____    ______ ____
DOCKED: ROOT
DOCKED: ATOM      1  C16 UNL     1       2.370  -6.477   2.164 +0.00 +0.00    +0.106 C  
DOCKED: ENDROOT
DOCKED: BRANCH   1   4
DOCKED: ATOM      2  C15 UNL     1       2.295  -4.095   2.904 +0.00 +0.00    +0.234 C  
DOCKED: ATOM      3  O4  UNL     1       1.106  -4.130   3.193 +0.00 -0.00    -0.274 OA 
DOCKED: ATOM      4  N3  UNL     1       2.947  -5.132   2.285 +0.00 -0.00    -0.308 N  
DOCKED: ATOM      5  H28 UNL     1       3.955  -5.070   2.237 +0.00 +0.00    +0.149 HD 
DOCKED: BRANCH   2   6
DOCKED: ATOM      6  C4  UNL     1       3.146  -2.818   3.087 +0.00 +0.00    +0.160 C  
DOCKED: BRANCH   6   7
DOCKED: ATOM      7  N1  UNL     1       4.247  -2.710   2.105 +0.00 -0.00    -0.302 N  
DOCKED: ATOM      8  C5  UNL     1       3.970  -2.551   0.763 +0.00 +0.00    +0.234 C  
DOCKED: ATOM      9  O1  UNL     1       2.889  -2.079   0.397 +0.00 -0.00    -0.274 OA 
DOCKED: ATOM     10  H9  UNL     1       5.091  -3.199   2.356 +0.00 +0.00    +0.150 HD 
DOCKED: BRANCH   8  11
DOCKED: ATOM     11  C6  UNL     1       5.134  -2.766  -0.237 +0.00 +0.00    +0.165 C  
DOCKED: BRANCH  11  12
DOCKED: ATOM     12  N2  UNL     1       5.290  -4.203  -0.417 +0.00 -0.00    -0.270 N  
DOCKED: ATOM     13  C7  UNL     1       5.620  -5.026   0.616 +0.00 +0.00    +0.401 C  
DOCKED: ATOM     14  O2  UNL     1       6.025  -4.656   1.704 +0.00 -0.00    -0.226 OA 
DOCKED: ATOM     15  H11 UNL     1       4.865  -4.674  -1.204 +0.00 +0.00    +0.153 HD 
DOCKED: BRANCH  13  16
DOCKED: ATOM     16  O3  UNL     1       5.434  -6.301   0.218 +0.00 -0.00    -0.445 OA 
DOCKED: BRANCH  16  17
DOCKED: ATOM     17  C8  UNL     1       6.526  -7.061  -0.357 +0.00 +0.00    +0.107 C  
DOCKED: ATOM     18  C9  UNL     1       7.873  -6.370  -0.120 +0.00 +0.00    +0.055 C  
DOCKED: ATOM     19  C10 UNL     1       6.236  -7.078  -1.868 +0.00 +0.00    +0.055 C  
DOCKED: ATOM     20  C11 UNL     1       6.544  -8.508   0.164 +0.00 +0.00    +0.055 C  
DOCKED: ENDBRANCH  16  17
DOCKED: ENDBRANCH  13  16
DOCKED: ENDBRANCH  11  12
DOCKED: BRANCH  11  21
DOCKED: ATOM     21  C12 UNL     1       5.137  -2.005  -1.584 +0.00 +0.00    +0.012 C  
DOCKED: ATOM     22  C13 UNL     1       4.576  -0.578  -1.537 +0.00 +0.00    +0.009 C  
DOCKED: ATOM     23  C14 UNL     1       6.497  -2.041  -2.289 +0.00 +0.00    +0.009 C  
DOCKED: ENDBRANCH  11  21
DOCKED: ENDBRANCH   8  11
DOCKED: ENDBRANCH   6   7
DOCKED: BRANCH   6  24
DOCKED: ATOM     24  C3  UNL     1       2.259  -1.571   2.967 +0.00 +0.00    +0.042 C  
DOCKED: BRANCH  24  25
DOCKED: ATOM     25  C2  UNL     1       2.291  -0.713   4.232 +0.00 +0.00    +0.071 C  
DOCKED: BRANCH  25  27
DOCKED: ATOM     26  C1  UNL     1       3.072  -2.348   6.339 +0.00 +0.00    +0.084 C  
DOCKED: ATOM     27  S1  UNL     1       3.765  -1.088   5.236 +0.00 -0.00    -0.164 S  
DOCKED: ENDBRANCH  25  27
DOCKED: ENDBRANCH  24  25
DOCKED: ENDBRANCH   6  24
DOCKED: ENDBRANCH   2   6
DOCKED: ENDBRANCH   1   4
DOCKED: BRANCH   1  28
DOCKED: ATOM     28  C17 UNL     1       2.178  -6.823   0.669 +0.00 +0.00    +0.060 C  
DOCKED: BRANCH  28  29
DOCKED: ATOM     29  C18 UNL     1       1.854  -5.629  -0.202 +0.00 -0.00    -0.046 A  
DOCKED: ATOM     30  C19 UNL     1       0.767  -4.793   0.096 +0.00 +0.00    +0.004 A  
DOCKED: ATOM     31  C20 UNL     1       0.483  -3.686  -0.708 +0.00 +0.00    +0.000 A  
DOCKED: ATOM     32  C21 UNL     1       1.273  -3.407  -1.824 +0.00 +0.00    +0.000 A  
DOCKED: ATOM     33  C22 UNL     1       2.343  -4.239  -2.146 +0.00 +0.00    +0.000 A  
DOCKED: ATOM     34  C23 UNL     1       2.630  -5.344  -1.340 +0.00 +0.00    +0.004 A  
DOCKED: ENDBRANCH  28  29
DOCKED: ENDBRANCH   1  28
DOCKED: BRANCH   1  35
DOCKED: ATOM     35  C24 UNL     1       3.302  -7.536   2.829 +0.00 +0.00    +0.136 C  
DOCKED: BRANCH  35  36
DOCKED: ATOM     36  O5  UNL     1       4.658  -7.232   2.473 +0.00 -0.00    -0.390 OA 
DOCKED: ATOM     37  H38 UNL     1       4.679  -6.277   2.246 +0.00 +0.00    +0.210 HD 
DOCKED: ENDBRANCH  35  36
DOCKED: BRANCH  35  38
DOCKED: ATOM     38  C25 UNL     1       3.147  -7.601   4.359 +0.00 +0.00    +0.045 C  
DOCKED: BRANCH  38  39
DOCKED: ATOM     39  C26 UNL     1       3.482  -6.280   5.090 +0.00 +0.00    +0.074 C  
DOCKED: ATOM     40  C27 UNL     1       3.464  -6.384   6.621 +0.00 +0.00    +0.017 C  
DOCKED: BRANCH  39  41
DOCKED: ATOM     41  C28 UNL     1       4.846  -5.723   4.674 +0.00 +0.00    +0.217 C  
DOCKED: ATOM     42  O6  UNL     1       4.969  -4.835   3.832 +0.00 -0.00    -0.276 OA 
DOCKED: ATOM     43  N4  UNL     1       5.921  -6.226   5.369 +0.00 -0.00    -0.304 N  
DOCKED: ATOM     44  H45 UNL     1       5.833  -7.160   5.763 +0.00 +0.00    +0.149 HD 
DOCKED: BRANCH  43  45
DOCKED: ATOM     45  C29 UNL     1       7.276  -5.756   5.130 +0.00 +0.00    +0.161 C  
DOCKED: BRANCH  45  46
DOCKED: ATOM     46  C30 UNL     1       7.361  -4.250   5.485 +0.00 +0.00    +0.234 C  
DOCKED: ATOM     47  O7  UNL     1       7.829  -3.817   6.535 +0.00 -0.00    -0.274 OA 
DOCKED: ATOM     48  N5  UNL     1       6.909  -3.446   4.460 +0.00 -0.00    -0.310 N  
DOCKED: ATOM     49  H47 UNL     1       6.889  -3.887   3.537 +0.00 +0.00    +0.149 HD 
DOCKED: BRANCH  48  50
DOCKED: ATOM     50  C31 UNL     1       6.965  -2.007   4.496 +0.00 +0.00    +0.139 C  
DOCKED: BRANCH  50  51
DOCKED: ATOM     51  C32 UNL     1       7.059  -1.378   3.129 +0.00 -0.00    -0.027 A  
DOCKED: ATOM     52  C33 UNL     1       6.224  -0.307   2.780 +0.00 +0.00    +0.025 A  
DOCKED: ATOM     53  C34 UNL     1       6.302   0.207   1.490 +0.00 +0.00    +0.111 A  
DOCKED: ATOM     54  N6  UNL     1       7.118  -0.281   0.532 +0.00 -0.00    -0.263 NA 
DOCKED: ATOM     55  C35 UNL     1       7.915  -1.310   0.892 +0.00 +0.00    +0.111 A  
DOCKED: ATOM     56  C36 UNL     1       7.923  -1.883   2.154 +0.00 +0.00    +0.025 A  
DOCKED: ENDBRANCH  50  51
DOCKED: ENDBRANCH  48  50
DOCKED: ENDBRANCH  45  46
DOCKED: BRANCH  45  57
DOCKED: ATOM     57  C37 UNL     1       7.771  -6.047   3.691 +0.00 +0.00    +0.012 C  
DOCKED: ATOM     58  C38 UNL     1       9.182  -5.480   3.482 +0.00 +0.00    +0.009 C  
DOCKED: ATOM     59  C39 UNL     1       7.754  -7.526   3.300 +0.00 +0.00    +0.009 C  
DOCKED: ENDBRANCH  45  57
DOCKED: ENDBRANCH  43  45
DOCKED: ENDBRANCH  39  41
DOCKED: ENDBRANCH  38  39
DOCKED: ENDBRANCH  35  38
DOCKED: ENDBRANCH   1  35
DOCKED: TORSDOF 23
DOCKED: TER
DOCKED: ENDMDL
________________________________________________________________________________


    FINAL DOCKED STATE:
    ________________________


Run:   17 / 20
Time taken for this run:   2.355s

DOCKED: MODEL        17
DOCKED: USER    Run = 17
DOCKED: USER
DOCKED: USER    Estimated Free Energy of Binding    =  +6.86 kcal/mol  [=(1)+(2)+(3)-(4)]
DOCKED: USER
DOCKED: USER    (1) Final Intermolecular Energy     =  +0.00 kcal/mol
DOCKED: USER        vdW + Hbond + desolv Energy     =  +0.00 kcal/mol
DOCKED: USER        Electrostatic Energy            =  +0.00 kcal/mol
DOCKED: USER        Moving Ligand-Fixed Receptor    =  +0.00 kcal/mol
DOCKED: USER        Moving Ligand-Moving Receptor   =  +0.00 kcal/mol
DOCKED: USER    (2) Final Total Internal Energy     = -15.38 kcal/mol
DOCKED: USER    (3) Torsional Free Energy           =  +6.86 kcal/mol
DOCKED: USER    (4) Unbound System's Energy         = -15.38 kcal/mol
DOCKED: USER
DOCKED: USER
DOCKED: REMARK  Name = ligands/ligand_23.pdb
DOCKED: REMARK  32 active torsions:
DOCKED: REMARK  status: ('A' for Active; 'I' for Inactive)
DOCKED: REMARK    1  A    between atoms: C1_1  and  S1_2
DOCKED: REMARK    2  A    between atoms: S1_2  and  C2_3
DOCKED: REMARK    3  A    between atoms: C2_3  and  C3_4
DOCKED: REMARK    4  A    between atoms: C3_4  and  C4_5
DOCKED: REMARK    5  A    between atoms: C4_5  and  N1_6
DOCKED: REMARK    6  A    between atoms: C4_5  and  C15_21
DOCKED: REMARK    7  A    between atoms: C5_7  and  C6_9
DOCKED: REMARK    8  A    between atoms: C6_9  and  N2_10
DOCKED: REMARK    9  A    between atoms: C6_9  and  C12_18
DOCKED: REMARK   10  A    between atoms: C7_11  and  O3_13
DOCKED: REMARK   11  A    between atoms: O3_13  and  C8_14
DOCKED: REMARK   12  A    between atoms: C8_14  and  C9_15
DOCKED: REMARK   13  A    between atoms: C8_14  and  C10_16
DOCKED: REMARK   14  A    between atoms: C8_14  and  C11_17
DOCKED: REMARK   15  A    between atoms: C12_18  and  C13_19
DOCKED: REMARK   16  A    between atoms: C12_18  and  C14_20
DOCKED: REMARK   17  A    between atoms: N3_23  and  C16_24
DOCKED: REMARK   18  A    between atoms: C16_24  and  C17_25
DOCKED: REMARK   19  A    between atoms: C16_24  and  C24_32
DOCKED: REMARK   20  A    between atoms: C17_25  and  C18_26
DOCKED: REMARK   21  A    between atoms: C24_32  and  O5_33
DOCKED: REMARK   22  A    between atoms: C24_32  and  C25_34
DOCKED: REMARK   23  A    between atoms: C25_34  and  C26_35
DOCKED: REMARK   24  A    between atoms: C26_35  and  C27_36
DOCKED: REMARK   25  A    between atoms: C26_35  and  C28_37
DOCKED: REMARK   26  A    between atoms: N4_39  and  C29_40
DOCKED: REMARK   27  A    between atoms: C29_40  and  C30_41
DOCKED: REMARK   28  A    between atoms: C29_40  and  C37_51
DOCKED: REMARK   29  A    between atoms: N5_43  and  C31_44
DOCKED: REMARK   30  A    between atoms: C31_44  and  C32_45
DOCKED: REMARK   31  A    between atoms: C37_51  and  C38_52
DOCKED: REMARK   32  A    between atoms: C37_51  and  C39_53
DOCKED: REMARK                            x       y       z     vdW  Elec       q    Type
DOCKED: REMARK                         _______ _______ _______ _____ _____    ______ ____
DOCKED: USER                              x       y       z     vdW  Elec       q    Type
DOCKED: USER                           _______ _______ _______ _____ _____    ______ ____
DOCKED: ROOT
DOCKED: ATOM      1  C16 UNL     1       5.781  -5.372   1.483 +0.00 +0.00    +0.106 C  
DOCKED: ENDROOT
DOCKED: BRANCH   1   4
DOCKED: ATOM      2  C15 UNL     1       6.478  -3.458   0.041 +0.00 +0.00    +0.234 C  
DOCKED: ATOM      3  O4  UNL     1       5.492  -3.527  -0.680 +0.00 -0.00    -0.274 OA 
DOCKED: ATOM      4  N3  UNL     1       6.760  -4.381   1.017 +0.00 -0.00    -0.308 N  
DOCKED: ATOM      5  H28 UNL     1       7.504  -4.148   1.661 +0.00 +0.00    +0.149 HD 
DOCKED: BRANCH   2   6
DOCKED: ATOM      6  C4  UNL     1       7.577  -2.392  -0.172 +0.00 +0.00    +0.160 C  
DOCKED: BRANCH   6   7
DOCKED: ATOM      7  N1  UNL     1       8.935  -2.892   0.133 +0.00 -0.00    -0.302 N  
DOCKED: ATOM      8  C5  UNL     1       9.405  -4.041  -0.469 +0.00 +0.00    +0.234 C  
DOCKED: ATOM      9  O1  UNL     1       8.930  -4.428  -1.541 +0.00 -0.00    -0.274 OA 
DOCKED: ATOM     10  H9  UNL     1       9.272  -2.673   1.056 +0.00 +0.00    +0.150 HD 
DOCKED: BRANCH   8  11
DOCKED: ATOM     11  C6  UNL     1      10.686  -4.683   0.122 +0.00 +0.00    +0.165 C  
DOCKED: BRANCH  11  12
DOCKED: ATOM     12  N2  UNL     1      10.260  -5.701   1.074 +0.00 -0.00    -0.270 N  
DOCKED: ATOM     13  C7  UNL     1       9.415  -5.415   2.102 +0.00 +0.00    +0.401 C  
DOCKED: ATOM     14  O2  UNL     1       9.110  -4.292   2.467 +0.00 -0.00    -0.226 OA 
DOCKED: ATOM     15  H11 UNL     1      10.310  -6.682   0.838 +0.00 +0.00    +0.153 HD 
DOCKED: BRANCH  13  16
DOCKED: ATOM     16  O3  UNL     1       8.996  -6.577   2.643 +0.00 -0.00    -0.445 OA 
DOCKED: BRANCH  16  17
DOCKED: ATOM     17  C8  UNL     1       9.590  -7.078   3.866 +0.00 +0.00    +0.107 C  
DOCKED: ATOM     18  C9  UNL     1      10.561  -6.060   4.473 +0.00 +0.00    +0.055 C  
DOCKED: ATOM     19  C10 UNL     1      10.382  -8.323   3.434 +0.00 +0.00    +0.055 C  
DOCKED: ATOM     20  C11 UNL     1       8.516  -7.497   4.885 +0.00 +0.00    +0.055 C  
DOCKED: ENDBRANCH  16  17
DOCKED: ENDBRANCH  13  16
DOCKED: ENDBRANCH  11  12
DOCKED: BRANCH  11  21
DOCKED: ATOM     21  C12 UNL     1      11.792  -5.200  -0.828 +0.00 +0.00    +0.012 C  
DOCKED: ATOM     22  C13 UNL     1      11.868  -6.725  -0.984 +0.00 +0.00    +0.009 C  
DOCKED: ATOM     23  C14 UNL     1      11.780  -4.506  -2.194 +0.00 +0.00    +0.009 C  
DOCKED: ENDBRANCH  11  21
DOCKED: ENDBRANCH   8  11
DOCKED: ENDBRANCH   6   7
DOCKED: BRANCH   6  24
DOCKED: ATOM     24  C3  UNL     1       7.553  -1.892  -1.623 +0.00 +0.00    +0.042 C  
DOCKED: BRANCH  24  25
DOCKED: ATOM     25  C2  UNL     1       8.890  -1.286  -2.050 +0.00 +0.00    +0.071 C  
DOCKED: BRANCH  25  27
DOCKED: ATOM     26  C1  UNL     1       7.987  -2.973  -4.064 +0.00 +0.00    +0.084 C  
DOCKED: ATOM     27  S1  UNL     1       9.449  -1.993  -3.634 +0.00 -0.00    -0.164 S  
DOCKED: ENDBRANCH  25  27
DOCKED: ENDBRANCH  24  25
DOCKED: ENDBRANCH   6  24
DOCKED: ENDBRANCH   2   6
DOCKED: ENDBRANCH   1   4
DOCKED: BRANCH   1  28
DOCKED: ATOM     28  C17 UNL     1       6.255  -6.789   1.088 +0.00 +0.00    +0.060 C  
DOCKED: BRANCH  28  29
DOCKED: ATOM     29  C18 UNL     1       6.869  -6.871  -0.293 +0.00 -0.00    -0.046 A  
DOCKED: ATOM     30  C19 UNL     1       6.184  -6.385  -1.416 +0.00 +0.00    +0.004 A  
DOCKED: ATOM     31  C20 UNL     1       6.765  -6.454  -2.685 +0.00 +0.00    +0.000 A  
DOCKED: ATOM     32  C21 UNL     1       8.030  -7.018  -2.849 +0.00 +0.00    +0.000 A  
DOCKED: ATOM     33  C22 UNL     1       8.716  -7.524  -1.746 +0.00 +0.00    +0.000 A  
DOCKED: ATOM     34  C23 UNL     1       8.137  -7.452  -0.476 +0.00 +0.00    +0.004 A  
DOCKED: ENDBRANCH  28  29
DOCKED: ENDBRANCH   1  28
DOCKED: BRANCH   1  35
DOCKED: ATOM     35  C24 UNL     1       5.611  -5.290   3.031 +0.00 +0.00    +0.136 C  
DOCKED: BRANCH  35  36
DOCKED: ATOM     36  O5  UNL     1       6.904  -5.083   3.617 +0.00 -0.00    -0.390 OA 
DOCKED: ATOM     37  H38 UNL     1       7.532  -5.646   3.112 +0.00 +0.00    +0.210 HD 
DOCKED: ENDBRANCH  35  36
DOCKED: BRANCH  35  38
DOCKED: ATOM     38  C25 UNL     1       4.634  -4.187   3.474 +0.00 +0.00    +0.045 C  
DOCKED: BRANCH  38  39
DOCKED: ATOM     39  C26 UNL     1       4.690  -2.903   2.613 +0.00 +0.00    +0.074 C  
DOCKED: ATOM     40  C27 UNL     1       3.360  -2.142   2.529 +0.00 +0.00    +0.017 C  
DOCKED: BRANCH  39  41
DOCKED: ATOM     41  C28 UNL     1       5.759  -1.925   3.109 +0.00 +0.00    +0.217 C  
DOCKED: ATOM     42  O6  UNL     1       5.533  -0.728   3.278 +0.00 -0.00    -0.276 OA 
DOCKED: ATOM     43  N4  UNL     1       6.967  -2.495   3.433 +0.00 -0.00    -0.304 N  
DOCKED: ATOM     44  H45 UNL     1       7.224  -3.358   2.961 +0.00 +0.00    +0.149 HD 
DOCKED: BRANCH  43  45
DOCKED: ATOM     45  C29 UNL     1       8.065  -1.708   3.973 +0.00 +0.00    +0.161 C  
DOCKED: BRANCH  45  46
DOCKED: ATOM     46  C30 UNL     1       8.757  -0.944   2.816 +0.00 +0.00    +0.234 C  
DOCKED: ATOM     47  O7  UNL     1       9.758  -1.346   2.228 +0.00 -0.00    -0.274 OA 
DOCKED: ATOM     48  N5  UNL     1       8.084   0.211   2.477 +0.00 -0.00    -0.310 N  
DOCKED: ATOM     49  H47 UNL     1       7.107   0.249   2.776 +0.00 +0.00    +0.149 HD 
DOCKED: BRANCH  48  50
DOCKED: ATOM     50  C31 UNL     1       8.465   1.057   1.375 +0.00 +0.00    +0.139 C  
DOCKED: BRANCH  50  51
DOCKED: ATOM     51  C32 UNL     1       7.430   1.114   0.281 +0.00 -0.00    -0.027 A  
DOCKED: ATOM     52  C33 UNL     1       6.160   0.550   0.471 +0.00 +0.00    +0.025 A  
DOCKED: ATOM     53  C34 UNL     1       5.254   0.573  -0.584 +0.00 +0.00    +0.111 A  
DOCKED: ATOM     54  N6  UNL     1       5.529   1.084  -1.803 +0.00 -0.00    -0.263 NA 
DOCKED: ATOM     55  C35 UNL     1       6.755   1.626  -1.961 +0.00 +0.00    +0.111 A  
DOCKED: ATOM     56  C36 UNL     1       7.723   1.665  -0.970 +0.00 +0.00    +0.025 A  
DOCKED: ENDBRANCH  50  51
DOCKED: ENDBRANCH  48  50
DOCKED: ENDBRANCH  45  46
DOCKED: BRANCH  45  57
DOCKED: ATOM     57  C37 UNL     1       9.067  -2.555   4.797 +0.00 +0.00    +0.012 C  
DOCKED: ATOM     58  C38 UNL     1      10.087  -1.650   5.500 +0.00 +0.00    +0.009 C  
DOCKED: ATOM     59  C39 UNL     1       8.418  -3.485   5.824 +0.00 +0.00    +0.009 C  
DOCKED: ENDBRANCH  45  57
DOCKED: ENDBRANCH  43  45
DOCKED: ENDBRANCH  39  41
DOCKED: ENDBRANCH  38  39
DOCKED: ENDBRANCH  35  38
DOCKED: ENDBRANCH   1  35
DOCKED: TORSDOF 23
DOCKED: TER
DOCKED: ENDMDL
________________________________________________________________________________


    FINAL DOCKED STATE:
    ________________________


Run:   18 / 20
Time taken for this run:   2.355s

DOCKED: MODEL        18
DOCKED: USER    Run = 18
DOCKED: USER
DOCKED: USER    Estimated Free Energy of Binding    =  +6.86 kcal/mol  [=(1)+(2)+(3)-(4)]
DOCKED: USER
DOCKED: USER    (1) Final Intermolecular Energy     =  +0.00 kcal/mol
DOCKED: USER        vdW + Hbond + desolv Energy     =  +0.00 kcal/mol
DOCKED: USER        Electrostatic Energy            =  +0.00 kcal/mol
DOCKED: USER        Moving Ligand-Fixed Receptor    =  +0.00 kcal/mol
DOCKED: USER        Moving Ligand-Moving Receptor   =  +0.00 kcal/mol
DOCKED: USER    (2) Final Total Internal Energy     = -16.02 kcal/mol
DOCKED: USER    (3) Torsional Free Energy           =  +6.86 kcal/mol
DOCKED: USER    (4) Unbound System's Energy         = -16.02 kcal/mol
DOCKED: USER
DOCKED: USER
DOCKED: REMARK  Name = ligands/ligand_23.pdb
DOCKED: REMARK  32 active torsions:
DOCKED: REMARK  status: ('A' for Active; 'I' for Inactive)
DOCKED: REMARK    1  A    between atoms: C1_1  and  S1_2
DOCKED: REMARK    2  A    between atoms: S1_2  and  C2_3
DOCKED: REMARK    3  A    between atoms: C2_3  and  C3_4
DOCKED: REMARK    4  A    between atoms: C3_4  and  C4_5
DOCKED: REMARK    5  A    between atoms: C4_5  and  N1_6
DOCKED: REMARK    6  A    between atoms: C4_5  and  C15_21
DOCKED: REMARK    7  A    between atoms: C5_7  and  C6_9
DOCKED: REMARK    8  A    between atoms: C6_9  and  N2_10
DOCKED: REMARK    9  A    between atoms: C6_9  and  C12_18
DOCKED: REMARK   10  A    between atoms: C7_11  and  O3_13
DOCKED: REMARK   11  A    between atoms: O3_13  and  C8_14
DOCKED: REMARK   12  A    between atoms: C8_14  and  C9_15
DOCKED: REMARK   13  A    between atoms: C8_14  and  C10_16
DOCKED: REMARK   14  A    between atoms: C8_14  and  C11_17
DOCKED: REMARK   15  A    between atoms: C12_18  and  C13_19
DOCKED: REMARK   16  A    between atoms: C12_18  and  C14_20
DOCKED: REMARK   17  A    between atoms: N3_23  and  C16_24
DOCKED: REMARK   18  A    between atoms: C16_24  and  C17_25
DOCKED: REMARK   19  A    between atoms: C16_24  and  C24_32
DOCKED: REMARK   20  A    between atoms: C17_25  and  C18_26
DOCKED: REMARK   21  A    between atoms: C24_32  and  O5_33
DOCKED: REMARK   22  A    between atoms: C24_32  and  C25_34
DOCKED: REMARK   23  A    between atoms: C25_34  and  C26_35
DOCKED: REMARK   24  A    between atoms: C26_35  and  C27_36
DOCKED: REMARK   25  A    between atoms: C26_35  and  C28_37
DOCKED: REMARK   26  A    between atoms: N4_39  and  C29_40
DOCKED: REMARK   27  A    between atoms: C29_40  and  C30_41
DOCKED: REMARK   28  A    between atoms: C29_40  and  C37_51
DOCKED: REMARK   29  A    between atoms: N5_43  and  C31_44
DOCKED: REMARK   30  A    between atoms: C31_44  and  C32_45
DOCKED: REMARK   31  A    between atoms: C37_51  and  C38_52
DOCKED: REMARK   32  A    between atoms: C37_51  and  C39_53
DOCKED: REMARK                            x       y       z     vdW  Elec       q    Type
DOCKED: REMARK                         _______ _______ _______ _____ _____    ______ ____
DOCKED: USER                              x       y       z     vdW  Elec       q    Type
DOCKED: USER                           _______ _______ _______ _____ _____    ______ ____
DOCKED: ROOT
DOCKED: ATOM      1  C16 UNL     1      11.528  -1.922  -5.110 +0.00 +0.00    +0.106 C  
DOCKED: ENDROOT
DOCKED: BRANCH   1   4
DOCKED: ATOM      2  C15 UNL     1      13.044  -1.656  -3.146 +0.00 +0.00    +0.234 C  
DOCKED: ATOM      3  O4  UNL     1      12.288  -2.228  -2.372 +0.00 -0.00    -0.274 OA 
DOCKED: ATOM      4  N3  UNL     1      12.704  -1.352  -4.441 +0.00 -0.00    -0.308 N  
DOCKED: ATOM      5  H28 UNL     1      13.450  -1.028  -5.042 +0.00 +0.00    +0.149 HD 
DOCKED: BRANCH   2   6
DOCKED: ATOM      6  C4  UNL     1      14.413  -1.098  -2.693 +0.00 +0.00    +0.160 C  
DOCKED: BRANCH   6   7
DOCKED: ATOM      7  N1  UNL     1      15.032  -0.201  -3.693 +0.00 -0.00    -0.302 N  
DOCKED: ATOM      8  C5  UNL     1      15.698  -0.726  -4.782 +0.00 +0.00    +0.234 C  
DOCKED: ATOM      9  O1  UNL     1      15.445  -1.866  -5.183 +0.00 -0.00    -0.274 OA 
DOCKED: ATOM     10  H9  UNL     1      15.345   0.686  -3.333 +0.00 +0.00    +0.150 HD 
DOCKED: BRANCH   8  11
DOCKED: ATOM     11  C6  UNL     1      16.588   0.239  -5.607 +0.00 +0.00    +0.165 C  
DOCKED: BRANCH  11  12
DOCKED: ATOM     12  N2  UNL     1      16.112   0.195  -6.984 +0.00 -0.00    -0.270 N  
DOCKED: ATOM     13  C7  UNL     1      14.816   0.460  -7.305 +0.00 +0.00    +0.401 C  
DOCKED: ATOM     14  O2  UNL     1      13.898   0.536  -6.507 +0.00 -0.00    -0.226 OA 
DOCKED: ATOM     15  H11 UNL     1      16.758   0.282  -7.756 +0.00 +0.00    +0.153 HD 
DOCKED: BRANCH  13  16
DOCKED: ATOM     16  O3  UNL     1      14.732   0.604  -8.643 +0.00 -0.00    -0.445 OA 
DOCKED: BRANCH  16  17
DOCKED: ATOM     17  C8  UNL     1      14.972   1.892  -9.262 +0.00 +0.00    +0.107 C  
DOCKED: ATOM     18  C9  UNL     1      13.957   2.175 -10.375 +0.00 +0.00    +0.055 C  
DOCKED: ATOM     19  C10 UNL     1      16.372   1.770  -9.888 +0.00 +0.00    +0.055 C  
DOCKED: ATOM     20  C11 UNL     1      14.987   3.025  -8.222 +0.00 +0.00    +0.055 C  
DOCKED: ENDBRANCH  16  17
DOCKED: ENDBRANCH  13  16
DOCKED: ENDBRANCH  11  12
DOCKED: BRANCH  11  21
DOCKED: ATOM     21  C12 UNL     1      16.811   1.687  -5.112 +0.00 +0.00    +0.012 C  
DOCKED: ATOM     22  C13 UNL     1      15.539   2.527  -4.937 +0.00 +0.00    +0.009 C  
DOCKED: ATOM     23  C14 UNL     1      17.699   1.764  -3.866 +0.00 +0.00    +0.009 C  
DOCKED: ENDBRANCH  11  21
DOCKED: ENDBRANCH   8  11
DOCKED: ENDBRANCH   6   7
DOCKED: BRANCH   6  24
DOCKED: ATOM     24  C3  UNL     1      14.259  -0.328  -1.374 +0.00 +0.00    +0.042 C  
DOCKED: BRANCH  24  25
DOCKED: ATOM     25  C2  UNL     1      13.145   0.718  -1.440 +0.00 +0.00    +0.071 C  
DOCKED: BRANCH  25  27
DOCKED: ATOM     26  C1  UNL     1      15.469   2.230  -1.264 +0.00 +0.00    +0.084 C  
DOCKED: ATOM     27  S1  UNL     1      13.801   2.335  -1.965 +0.00 -0.00    -0.164 S  
DOCKED: ENDBRANCH  25  27
DOCKED: ENDBRANCH  24  25
DOCKED: ENDBRANCH   6  24
DOCKED: ENDBRANCH   2   6
DOCKED: ENDBRANCH   1   4
DOCKED: BRANCH   1  28
DOCKED: ATOM     28  C17 UNL     1      10.441  -0.832  -5.258 +0.00 +0.00    +0.060 C  
DOCKED: BRANCH  28  29
DOCKED: ATOM     29  C18 UNL     1      10.983   0.533  -5.625 +0.00 -0.00    -0.046 A  
DOCKED: ATOM     30  C19 UNL     1      11.494   1.393  -4.642 +0.00 +0.00    +0.004 A  
DOCKED: ATOM     31  C20 UNL     1      12.003   2.646  -4.992 +0.00 +0.00    +0.000 A  
DOCKED: ATOM     32  C21 UNL     1      11.998   3.059  -6.325 +0.00 +0.00    +0.000 A  
DOCKED: ATOM     33  C22 UNL     1      11.475   2.225  -7.311 +0.00 +0.00    +0.000 A  
DOCKED: ATOM     34  C23 UNL     1      10.969   0.969  -6.961 +0.00 +0.00    +0.004 A  
DOCKED: ENDBRANCH  28  29
DOCKED: ENDBRANCH   1  28
DOCKED: BRANCH   1  35
DOCKED: ATOM     35  C24 UNL     1      11.910  -2.472  -6.518 +0.00 +0.00    +0.136 C  
DOCKED: BRANCH  35  36
DOCKED: ATOM     36  O5  UNL     1      12.947  -1.643  -7.062 +0.00 -0.00    -0.390 OA 
DOCKED: ATOM     37  H38 UNL     1      13.630  -1.555  -6.360 +0.00 +0.00    +0.210 HD 
DOCKED: ENDBRANCH  35  36
DOCKED: BRANCH  35  38
DOCKED: ATOM     38  C25 UNL     1      12.356  -3.945  -6.490 +0.00 +0.00    +0.045 C  
DOCKED: BRANCH  38  39
DOCKED: ATOM     39  C26 UNL     1      13.679  -4.197  -5.729 +0.00 +0.00    +0.074 C  
DOCKED: ATOM     40  C27 UNL     1      13.708  -5.505  -4.929 +0.00 +0.00    +0.017 C  
DOCKED: BRANCH  39  41
DOCKED: ATOM     41  C28 UNL     1      14.890  -4.193  -6.666 +0.00 +0.00    +0.217 C  
DOCKED: ATOM     42  O6  UNL     1      15.660  -5.148  -6.755 +0.00 -0.00    -0.276 OA 
DOCKED: ATOM     43  N4  UNL     1      15.008  -3.081  -7.466 +0.00 -0.00    -0.304 N  
DOCKED: ATOM     44  H45 UNL     1      14.604  -2.212  -7.127 +0.00 +0.00    +0.149 HD 
DOCKED: BRANCH  43  45
DOCKED: ATOM     45  C29 UNL     1      16.072  -2.954  -8.450 +0.00 +0.00    +0.161 C  
DOCKED: BRANCH  45  46
DOCKED: ATOM     46  C30 UNL     1      17.322  -2.344  -7.769 +0.00 +0.00    +0.234 C  
DOCKED: ATOM     47  O7  UNL     1      17.985  -1.426  -8.244 +0.00 -0.00    -0.274 OA 
DOCKED: ATOM     48  N5  UNL     1      17.570  -2.906  -6.534 +0.00 -0.00    -0.310 N  
DOCKED: ATOM     49  H47 UNL     1      16.773  -3.380  -6.103 +0.00 +0.00    +0.149 HD 
DOCKED: BRANCH  48  50
DOCKED: ATOM     50  C31 UNL     1      18.617  -2.455  -5.652 +0.00 +0.00    +0.139 C  
DOCKED: BRANCH  50  51
DOCKED: ATOM     51  C32 UNL     1      18.235  -2.506  -4.195 +0.00 -0.00    -0.027 A  
DOCKED: ATOM     52  C33 UNL     1      17.428  -3.544  -3.706 +0.00 +0.00    +0.025 A  
DOCKED: ATOM     53  C34 UNL     1      17.052  -3.523  -2.368 +0.00 +0.00    +0.111 A  
DOCKED: ATOM     54  N6  UNL     1      17.392  -2.543  -1.504 +0.00 -0.00    -0.263 NA 
DOCKED: ATOM     55  C35 UNL     1      18.173  -1.557  -1.996 +0.00 +0.00    +0.111 A  
DOCKED: ATOM     56  C36 UNL     1      18.613  -1.494  -3.309 +0.00 +0.00    +0.025 A  
DOCKED: ENDBRANCH  50  51
DOCKED: ENDBRANCH  48  50
DOCKED: ENDBRANCH  45  46
DOCKED: BRANCH  45  57
DOCKED: ATOM     57  C37 UNL     1      15.640  -2.155  -9.705 +0.00 +0.00    +0.012 C  
DOCKED: ATOM     58  C38 UNL     1      16.372  -2.672 -10.951 +0.00 +0.00    +0.009 C  
DOCKED: ATOM     59  C39 UNL     1      14.133  -2.148  -9.967 +0.00 +0.00    +0.009 C  
DOCKED: ENDBRANCH  45  57
DOCKED: ENDBRANCH  43  45
DOCKED: ENDBRANCH  39  41
DOCKED: ENDBRANCH  38  39
DOCKED: ENDBRANCH  35  38
DOCKED: ENDBRANCH   1  35
DOCKED: TORSDOF 23
DOCKED: TER
DOCKED: ENDMDL
________________________________________________________________________________


    FINAL DOCKED STATE:
    ________________________


Run:   19 / 20
Time taken for this run:   2.355s

DOCKED: MODEL        19
DOCKED: USER    Run = 19
DOCKED: USER
DOCKED: USER    Estimated Free Energy of Binding    =  +6.86 kcal/mol  [=(1)+(2)+(3)-(4)]
DOCKED: USER
DOCKED: USER    (1) Final Intermolecular Energy     =  +0.00 kcal/mol
DOCKED: USER        vdW + Hbond + desolv Energy     =  +0.00 kcal/mol
DOCKED: USER        Electrostatic Energy            =  +0.00 kcal/mol
DOCKED: USER        Moving Ligand-Fixed Receptor    =  +0.00 kcal/mol
DOCKED: USER        Moving Ligand-Moving Receptor   =  +0.00 kcal/mol
DOCKED: USER    (2) Final Total Internal Energy     = -16.00 kcal/mol
DOCKED: USER    (3) Torsional Free Energy           =  +6.86 kcal/mol
DOCKED: USER    (4) Unbound System's Energy         = -16.00 kcal/mol
DOCKED: USER
DOCKED: USER
DOCKED: REMARK  Name = ligands/ligand_23.pdb
DOCKED: REMARK  32 active torsions:
DOCKED: REMARK  status: ('A' for Active; 'I' for Inactive)
DOCKED: REMARK    1  A    between atoms: C1_1  and  S1_2
DOCKED: REMARK    2  A    between atoms: S1_2  and  C2_3
DOCKED: REMARK    3  A    between atoms: C2_3  and  C3_4
DOCKED: REMARK    4  A    between atoms: C3_4  and  C4_5
DOCKED: REMARK    5  A    between atoms: C4_5  and  N1_6
DOCKED: REMARK    6  A    between atoms: C4_5  and  C15_21
DOCKED: REMARK    7  A    between atoms: C5_7  and  C6_9
DOCKED: REMARK    8  A    between atoms: C6_9  and  N2_10
DOCKED: REMARK    9  A    between atoms: C6_9  and  C12_18
DOCKED: REMARK   10  A    between atoms: C7_11  and  O3_13
DOCKED: REMARK   11  A    between atoms: O3_13  and  C8_14
DOCKED: REMARK   12  A    between atoms: C8_14  and  C9_15
DOCKED: REMARK   13  A    between atoms: C8_14  and  C10_16
DOCKED: REMARK   14  A    between atoms: C8_14  and  C11_17
DOCKED: REMARK   15  A    between atoms: C12_18  and  C13_19
DOCKED: REMARK   16  A    between atoms: C12_18  and  C14_20
DOCKED: REMARK   17  A    between atoms: N3_23  and  C16_24
DOCKED: REMARK   18  A    between atoms: C16_24  and  C17_25
DOCKED: REMARK   19  A    between atoms: C16_24  and  C24_32
DOCKED: REMARK   20  A    between atoms: C17_25  and  C18_26
DOCKED: REMARK   21  A    between atoms: C24_32  and  O5_33
DOCKED: REMARK   22  A    between atoms: C24_32  and  C25_34
DOCKED: REMARK   23  A    between atoms: C25_34  and  C26_35
DOCKED: REMARK   24  A    between atoms: C26_35  and  C27_36
DOCKED: REMARK   25  A    between atoms: C26_35  and  C28_37
DOCKED: REMARK   26  A    between atoms: N4_39  and  C29_40
DOCKED: REMARK   27  A    between atoms: C29_40  and  C30_41
DOCKED: REMARK   28  A    between atoms: C29_40  and  C37_51
DOCKED: REMARK   29  A    between atoms: N5_43  and  C31_44
DOCKED: REMARK   30  A    between atoms: C31_44  and  C32_45
DOCKED: REMARK   31  A    between atoms: C37_51  and  C38_52
DOCKED: REMARK   32  A    between atoms: C37_51  and  C39_53
DOCKED: REMARK                            x       y       z     vdW  Elec       q    Type
DOCKED: REMARK                         _______ _______ _______ _____ _____    ______ ____
DOCKED: USER                              x       y       z     vdW  Elec       q    Type
DOCKED: USER                           _______ _______ _______ _____ _____    ______ ____
DOCKED: ROOT
DOCKED: ATOM      1  C16 UNL     1       8.443 -11.560   0.466 +0.00 +0.00    +0.106 C  
DOCKED: ENDROOT
DOCKED: BRANCH   1   4
DOCKED: ATOM      2  C15 UNL     1       9.220  -9.619  -0.896 +0.00 +0.00    +0.234 C  
DOCKED: ATOM      3  O4  UNL     1       8.176  -9.530  -1.529 +0.00 -0.00    -0.274 OA 
DOCKED: ATOM      4  N3  UNL     1       9.481 -10.640  -0.017 +0.00 -0.00    -0.308 N  
DOCKED: ATOM      5  H28 UNL     1      10.297 -10.535   0.572 +0.00 +0.00    +0.149 HD 
DOCKED: BRANCH   2   6
DOCKED: ATOM      6  C4  UNL     1      10.407  -8.656  -1.133 +0.00 +0.00    +0.160 C  
DOCKED: BRANCH   6   7
DOCKED: ATOM      7  N1  UNL     1      11.640  -9.074  -0.432 +0.00 -0.00    -0.302 N  
DOCKED: ATOM      8  C5  UNL     1      11.783  -8.848   0.921 +0.00 +0.00    +0.234 C  
DOCKED: ATOM      9  O1  UNL     1      10.791  -8.706   1.642 +0.00 -0.00    -0.274 OA 
DOCKED: ATOM     10  H9  UNL     1      12.473  -9.074  -1.000 +0.00 +0.00    +0.150 HD 
DOCKED: BRANCH   8  11
DOCKED: ATOM     11  C6  UNL     1      13.201  -9.010   1.526 +0.00 +0.00    +0.165 C  
DOCKED: BRANCH  11  12
DOCKED: ATOM     12  N2  UNL     1      13.129 -10.076   2.517 +0.00 -0.00    -0.270 N  
DOCKED: ATOM     13  C7  UNL     1      12.678 -11.322   2.203 +0.00 +0.00    +0.401 C  
DOCKED: ATOM     14  O2  UNL     1      12.099 -11.617   1.172 +0.00 -0.00    -0.226 OA 
DOCKED: ATOM     15  H11 UNL     1      13.686 -10.036   3.360 +0.00 +0.00    +0.153 HD 
DOCKED: BRANCH  13  16
DOCKED: ATOM     16  O3  UNL     1      12.970 -12.149   3.227 +0.00 -0.00    -0.445 OA 
DOCKED: BRANCH  16  17
DOCKED: ATOM     17  C8  UNL     1      14.282 -12.757   3.332 +0.00 +0.00    +0.107 C  
DOCKED: ATOM     18  C9  UNL     1      14.955 -12.874   1.961 +0.00 +0.00    +0.055 C  
DOCKED: ATOM     19  C10 UNL     1      14.014 -14.171   3.875 +0.00 +0.00    +0.055 C  
DOCKED: ATOM     20  C11 UNL     1      15.177 -12.000   4.329 +0.00 +0.00    +0.055 C  
DOCKED: ENDBRANCH  16  17
DOCKED: ENDBRANCH  13  16
DOCKED: ENDBRANCH  11  12
DOCKED: BRANCH  11  21
DOCKED: ATOM     21  C12 UNL     1      14.421  -9.168   0.588 +0.00 +0.00    +0.012 C  
DOCKED: ATOM     22  C13 UNL     1      14.671  -7.996  -0.370 +0.00 +0.00    +0.009 C  
DOCKED: ATOM     23  C14 UNL     1      15.702  -9.557   1.333 +0.00 +0.00    +0.009 C  
DOCKED: ENDBRANCH  11  21
DOCKED: ENDBRANCH   8  11
DOCKED: ENDBRANCH   6   7
DOCKED: BRANCH   6  24
DOCKED: ATOM     24  C3  UNL     1      10.709  -8.550  -2.635 +0.00 +0.00    +0.042 C  
DOCKED: BRANCH  24  25
DOCKED: ATOM     25  C2  UNL     1      11.405  -9.799  -3.176 +0.00 +0.00    +0.071 C  
DOCKED: BRANCH  25  27
DOCKED: ATOM     26  C1  UNL     1      13.816 -10.883  -2.321 +0.00 +0.00    +0.084 C  
DOCKED: ATOM     27  S1  UNL     1      13.199  -9.522  -3.345 +0.00 -0.00    -0.164 S  
DOCKED: ENDBRANCH  25  27
DOCKED: ENDBRANCH  24  25
DOCKED: ENDBRANCH   6  24
DOCKED: ENDBRANCH   2   6
DOCKED: ENDBRANCH   1   4
DOCKED: BRANCH   1  28
DOCKED: ATOM     28  C17 UNL     1       8.623 -12.939  -0.210 +0.00 +0.00    +0.060 C  
DOCKED: BRANCH  28  29
DOCKED: ATOM     29  C18 UNL     1      10.049 -13.445  -0.207 +0.00 -0.00    -0.046 A  
DOCKED: ATOM     30  C19 UNL     1      10.531 -14.235   0.848 +0.00 +0.00    +0.004 A  
DOCKED: ATOM     31  C20 UNL     1      11.845 -14.708   0.836 +0.00 +0.00    +0.000 A  
DOCKED: ATOM     32  C21 UNL     1      12.697 -14.389  -0.222 +0.00 +0.00    +0.000 A  
DOCKED: ATOM     33  C22 UNL     1      12.241 -13.589  -1.267 +0.00 +0.00    +0.000 A  
DOCKED: ATOM     34  C23 UNL     1      10.924 -13.118  -1.258 +0.00 +0.00    +0.004 A  
DOCKED: ENDBRANCH  28  29
DOCKED: ENDBRANCH   1  28
DOCKED: BRANCH   1  35
DOCKED: ATOM     35  C24 UNL     1       8.529 -11.721   2.014 +0.00 +0.00    +0.136 C  
DOCKED: BRANCH  35  36
DOCKED: ATOM     36  O5  UNL     1       9.903 -11.591   2.407 +0.00 -0.00    -0.390 OA 
DOCKED: ATOM     37  H38 UNL     1      10.251 -10.799   1.942 +0.00 +0.00    +0.210 HD 
DOCKED: ENDBRANCH  35  36
DOCKED: BRANCH  35  38
DOCKED: ATOM     38  C25 UNL     1       7.652 -10.713   2.776 +0.00 +0.00    +0.045 C  
DOCKED: BRANCH  38  39
DOCKED: ATOM     39  C26 UNL     1       8.098  -9.239   2.628 +0.00 +0.00    +0.074 C  
DOCKED: ATOM     40  C27 UNL     1       6.941  -8.237   2.526 +0.00 +0.00    +0.017 C  
DOCKED: BRANCH  39  41
DOCKED: ATOM     41  C28 UNL     1       9.003  -8.794   3.779 +0.00 +0.00    +0.217 C  
DOCKED: ATOM     42  O6  UNL     1       8.726  -7.845   4.510 +0.00 -0.00    -0.276 OA 
DOCKED: ATOM     43  N4  UNL     1      10.108  -9.584   3.993 +0.00 -0.00    -0.304 N  
DOCKED: ATOM     44  H45 UNL     1      10.483 -10.096   3.198 +0.00 +0.00    +0.149 HD 
DOCKED: BRANCH  43  45
DOCKED: ATOM     45  C29 UNL     1      11.035  -9.326   5.084 +0.00 +0.00    +0.161 C  
DOCKED: BRANCH  45  46
DOCKED: ATOM     46  C30 UNL     1      12.104  -8.310   4.613 +0.00 +0.00    +0.234 C  
DOCKED: ATOM     47  O7  UNL     1      13.310  -8.441   4.806 +0.00 -0.00    -0.274 OA 
DOCKED: ATOM     48  N5  UNL     1      11.554  -7.269   3.893 +0.00 -0.00    -0.310 N  
DOCKED: ATOM     49  H47 UNL     1      10.628  -7.453   3.501 +0.00 +0.00    +0.149 HD 
DOCKED: BRANCH  48  50
DOCKED: ATOM     50  C31 UNL     1      12.339  -6.238   3.263 +0.00 +0.00    +0.139 C  
DOCKED: BRANCH  50  51
DOCKED: ATOM     51  C32 UNL     1      11.800  -5.815   1.920 +0.00 -0.00    -0.027 A  
DOCKED: ATOM     52  C33 UNL     1      10.418  -5.738   1.699 +0.00 +0.00    +0.025 A  
DOCKED: ATOM     53  C34 UNL     1       9.962  -5.398   0.430 +0.00 +0.00    +0.111 A  
DOCKED: ATOM     54  N6  UNL     1      10.772  -5.163  -0.624 +0.00 -0.00    -0.263 NA 
DOCKED: ATOM     55  C35 UNL     1      12.099  -5.239  -0.387 +0.00 +0.00    +0.111 A  
DOCKED: ATOM     56  C36 UNL     1      12.653  -5.555   0.844 +0.00 +0.00    +0.025 A  
DOCKED: ENDBRANCH  50  51
DOCKED: ENDBRANCH  48  50
DOCKED: ENDBRANCH  45  46
DOCKED: BRANCH  45  57
DOCKED: ATOM     57  C37 UNL     1      11.668 -10.620   5.656 +0.00 +0.00    +0.012 C  
DOCKED: ATOM     58  C38 UNL     1      12.026 -10.435   7.137 +0.00 +0.00    +0.009 C  
DOCKED: ATOM     59  C39 UNL     1      10.808 -11.874   5.493 +0.00 +0.00    +0.009 C  
DOCKED: ENDBRANCH  45  57
DOCKED: ENDBRANCH  43  45
DOCKED: ENDBRANCH  39  41
DOCKED: ENDBRANCH  38  39
DOCKED: ENDBRANCH  35  38
DOCKED: ENDBRANCH   1  35
DOCKED: TORSDOF 23
DOCKED: TER
DOCKED: ENDMDL
________________________________________________________________________________


    FINAL DOCKED STATE:
    ________________________


Run:   20 / 20
Time taken for this run:   2.355s

DOCKED: MODEL        20
DOCKED: USER    Run = 20
DOCKED: USER
DOCKED: USER    Estimated Free Energy of Binding    =  +6.86 kcal/mol  [=(1)+(2)+(3)-(4)]
DOCKED: USER
DOCKED: USER    (1) Final Intermolecular Energy     =  +0.00 kcal/mol
DOCKED: USER        vdW + Hbond + desolv Energy     =  +0.00 kcal/mol
DOCKED: USER        Electrostatic Energy            =  +0.00 kcal/mol
DOCKED: USER        Moving Ligand-Fixed Receptor    =  +0.00 kcal/mol
DOCKED: USER        Moving Ligand-Moving Receptor   =  +0.00 kcal/mol
DOCKED: USER    (2) Final Total Internal Energy     = -15.70 kcal/mol
DOCKED: USER    (3) Torsional Free Energy           =  +6.86 kcal/mol
DOCKED: USER    (4) Unbound System's Energy         = -15.70 kcal/mol
DOCKED: USER
DOCKED: USER
DOCKED: REMARK  Name = ligands/ligand_23.pdb
DOCKED: REMARK  32 active torsions:
DOCKED: REMARK  status: ('A' for Active; 'I' for Inactive)
DOCKED: REMARK    1  A    between atoms: C1_1  and  S1_2
DOCKED: REMARK    2  A    between atoms: S1_2  and  C2_3
DOCKED: REMARK    3  A    between atoms: C2_3  and  C3_4
DOCKED: REMARK    4  A    between atoms: C3_4  and  C4_5
DOCKED: REMARK    5  A    between atoms: C4_5  and  N1_6
DOCKED: REMARK    6  A    between atoms: C4_5  and  C15_21
DOCKED: REMARK    7  A    between atoms: C5_7  and  C6_9
DOCKED: REMARK    8  A    between atoms: C6_9  and  N2_10
DOCKED: REMARK    9  A    between atoms: C6_9  and  C12_18
DOCKED: REMARK   10  A    between atoms: C7_11  and  O3_13
DOCKED: REMARK   11  A    between atoms: O3_13  and  C8_14
DOCKED: REMARK   12  A    between atoms: C8_14  and  C9_15
DOCKED: REMARK   13  A    between atoms: C8_14  and  C10_16
DOCKED: REMARK   14  A    between atoms: C8_14  and  C11_17
DOCKED: REMARK   15  A    between atoms: C12_18  and  C13_19
DOCKED: REMARK   16  A    between atoms: C12_18  and  C14_20
DOCKED: REMARK   17  A    between atoms: N3_23  and  C16_24
DOCKED: REMARK   18  A    between atoms: C16_24  and  C17_25
DOCKED: REMARK   19  A    between atoms: C16_24  and  C24_32
DOCKED: REMARK   20  A    between atoms: C17_25  and  C18_26
DOCKED: REMARK   21  A    between atoms: C24_32  and  O5_33
DOCKED: REMARK   22  A    between atoms: C24_32  and  C25_34
DOCKED: REMARK   23  A    between atoms: C25_34  and  C26_35
DOCKED: REMARK   24  A    between atoms: C26_35  and  C27_36
DOCKED: REMARK   25  A    between atoms: C26_35  and  C28_37
DOCKED: REMARK   26  A    between atoms: N4_39  and  C29_40
DOCKED: REMARK   27  A    between atoms: C29_40  and  C30_41
DOCKED: REMARK   28  A    between atoms: C29_40  and  C37_51
DOCKED: REMARK   29  A    between atoms: N5_43  and  C31_44
DOCKED: REMARK   30  A    between atoms: C31_44  and  C32_45
DOCKED: REMARK   31  A    between atoms: C37_51  and  C38_52
DOCKED: REMARK   32  A    between atoms: C37_51  and  C39_53
DOCKED: REMARK                            x       y       z     vdW  Elec       q    Type
DOCKED: REMARK                         _______ _______ _______ _____ _____    ______ ____
DOCKED: USER                              x       y       z     vdW  Elec       q    Type
DOCKED: USER                           _______ _______ _______ _____ _____    ______ ____
DOCKED: ROOT
DOCKED: ATOM      1  C16 UNL     1      15.365  -0.789  -6.834 +0.00 +0.00    +0.106 C  
DOCKED: ENDROOT
DOCKED: BRANCH   1   4
DOCKED: ATOM      2  C15 UNL     1      13.876  -2.783  -7.011 +0.00 +0.00    +0.234 C  
DOCKED: ATOM      3  O4  UNL     1      14.746  -3.501  -7.487 +0.00 -0.00    -0.274 OA 
DOCKED: ATOM      4  N3  UNL     1      14.050  -1.439  -6.791 +0.00 -0.00    -0.308 N  
DOCKED: ATOM      5  H28 UNL     1      13.335  -0.972  -6.248 +0.00 +0.00    +0.149 HD 
DOCKED: BRANCH   2   6
DOCKED: ATOM      6  C4  UNL     1      12.445  -3.299  -6.738 +0.00 +0.00    +0.160 C  
DOCKED: BRANCH   6   7
DOCKED: ATOM      7  N1  UNL     1      11.416  -2.242  -6.853 +0.00 -0.00    -0.302 N  
DOCKED: ATOM      8  C5  UNL     1      11.156  -1.654  -8.074 +0.00 +0.00    +0.234 C  
DOCKED: ATOM      9  O1  UNL     1      11.425  -2.244  -9.125 +0.00 -0.00    -0.274 OA 
DOCKED: ATOM     10  H9  UNL     1      11.284  -1.684  -6.025 +0.00 +0.00    +0.150 HD 
DOCKED: BRANCH   8  11
DOCKED: ATOM     11  C6  UNL     1      10.315  -0.352  -8.074 +0.00 +0.00    +0.165 C  
DOCKED: BRANCH  11  12
DOCKED: ATOM     12  N2  UNL     1      11.210   0.741  -7.717 +0.00 -0.00    -0.270 N  
DOCKED: ATOM     13  C7  UNL     1      11.838   0.791  -6.511 +0.00 +0.00    +0.401 C  
DOCKED: ATOM     14  O2  UNL     1      11.569   0.089  -5.551 +0.00 -0.00    -0.226 OA 
DOCKED: ATOM     15  H11 UNL     1      11.637   1.313  -8.432 +0.00 +0.00    +0.153 HD 
DOCKED: BRANCH  13  16
DOCKED: ATOM     16  O3  UNL     1      12.785   1.749  -6.565 +0.00 -0.00    -0.445 OA 
DOCKED: BRANCH  16  17
DOCKED: ATOM     17  C8  UNL     1      12.514   3.083  -6.067 +0.00 +0.00    +0.107 C  
DOCKED: ATOM     18  C9  UNL     1      11.242   3.113  -5.215 +0.00 +0.00    +0.055 C  
DOCKED: ATOM     19  C10 UNL     1      12.286   3.933  -7.328 +0.00 +0.00    +0.055 C  
DOCKED: ATOM     20  C11 UNL     1      13.716   3.651  -5.292 +0.00 +0.00    +0.055 C  
DOCKED: ENDBRANCH  16  17
DOCKED: ENDBRANCH  13  16
DOCKED: ENDBRANCH  11  12
DOCKED: BRANCH  11  21
DOCKED: ATOM     21  C12 UNL     1       9.435  -0.009  -9.300 +0.00 +0.00    +0.012 C  
DOCKED: ATOM     22  C13 UNL     1       8.639  -1.181  -9.889 +0.00 +0.00    +0.009 C  
DOCKED: ATOM     23  C14 UNL     1       8.535   1.209  -9.067 +0.00 +0.00    +0.009 C  
DOCKED: ENDBRANCH  11  21
DOCKED: ENDBRANCH   8  11
DOCKED: ENDBRANCH   6   7
DOCKED: BRANCH   6  24
DOCKED: ATOM     24  C3  UNL     1      12.096  -4.430  -7.716 +0.00 +0.00    +0.042 C  
DOCKED: BRANCH  24  25
DOCKED: ATOM     25  C2  UNL     1      11.748  -5.733  -6.996 +0.00 +0.00    +0.071 C  
DOCKED: BRANCH  25  27
DOCKED: ATOM     26  C1  UNL     1      12.416  -5.486  -4.311 +0.00 +0.00    +0.084 C  
DOCKED: ATOM     27  S1  UNL     1      10.961  -5.396  -5.387 +0.00 -0.00    -0.164 S  
DOCKED: ENDBRANCH  25  27
DOCKED: ENDBRANCH  24  25
DOCKED: ENDBRANCH   6  24
DOCKED: ENDBRANCH   2   6
DOCKED: ENDBRANCH   1   4
DOCKED: BRANCH   1  28
DOCKED: ATOM     28  C17 UNL     1      15.380   0.269  -7.961 +0.00 +0.00    +0.060 C  
DOCKED: BRANCH  28  29
DOCKED: ATOM     29  C18 UNL     1      14.521  -0.090  -9.155 +0.00 -0.00    -0.046 A  
DOCKED: ATOM     30  C19 UNL     1      14.674  -1.322  -9.808 +0.00 +0.00    +0.004 A  
DOCKED: ATOM     31  C20 UNL     1      13.868  -1.649 -10.901 +0.00 +0.00    +0.000 A  
DOCKED: ATOM     32  C21 UNL     1      12.908  -0.747 -11.361 +0.00 +0.00    +0.000 A  
DOCKED: ATOM     33  C22 UNL     1      12.757   0.489 -10.736 +0.00 +0.00    +0.000 A  
DOCKED: ATOM     34  C23 UNL     1      13.561   0.816  -9.640 +0.00 +0.00    +0.004 A  
DOCKED: ENDBRANCH  28  29
DOCKED: ENDBRANCH   1  28
DOCKED: BRANCH   1  35
DOCKED: ATOM     35  C24 UNL     1      15.684  -0.103  -5.470 +0.00 +0.00    +0.136 C  
DOCKED: BRANCH  35  36
DOCKED: ATOM     36  O5  UNL     1      14.500   0.566  -5.013 +0.00 -0.00    -0.390 OA 
DOCKED: ATOM     37  H38 UNL     1      13.744   0.142  -5.476 +0.00 +0.00    +0.210 HD 
DOCKED: ENDBRANCH  35  36
DOCKED: BRANCH  35  38
DOCKED: ATOM     38  C25 UNL     1      16.194  -1.087  -4.404 +0.00 +0.00    +0.045 C  
DOCKED: BRANCH  38  39
DOCKED: ATOM     39  C26 UNL     1      15.194  -2.210  -4.041 +0.00 +0.00    +0.074 C  
DOCKED: ATOM     40  C27 UNL     1      15.645  -3.107  -2.881 +0.00 +0.00    +0.017 C  
DOCKED: BRANCH  39  41
DOCKED: ATOM     41  C28 UNL     1      13.810  -1.655  -3.693 +0.00 +0.00    +0.217 C  
DOCKED: ATOM     42  O6  UNL     1      12.891  -1.609  -4.510 +0.00 -0.00    -0.276 OA 
DOCKED: ATOM     43  N4  UNL     1      13.639  -1.289  -2.379 +0.00 -0.00    -0.304 N  
DOCKED: ATOM     44  H45 UNL     1      14.465  -1.005  -1.857 +0.00 +0.00    +0.149 HD 
DOCKED: BRANCH  43  45
DOCKED: ATOM     45  C29 UNL     1      12.364  -0.798  -1.879 +0.00 +0.00    +0.161 C  
DOCKED: BRANCH  45  46
DOCKED: ATOM     46  C30 UNL     1      11.292  -1.901  -2.055 +0.00 +0.00    +0.234 C  
DOCKED: ATOM     47  O7  UNL     1      10.909  -2.638  -1.150 +0.00 -0.00    -0.274 OA 
DOCKED: ATOM     48  N5  UNL     1      10.766  -1.920  -3.330 +0.00 -0.00    -0.310 N  
DOCKED: ATOM     49  H47 UNL     1      10.892  -1.058  -3.866 +0.00 +0.00    +0.149 HD 
DOCKED: BRANCH  48  50
DOCKED: ATOM     50  C31 UNL     1       9.688  -2.787  -3.732 +0.00 +0.00    +0.139 C  
DOCKED: BRANCH  50  51
DOCKED: ATOM     51  C32 UNL     1       8.809  -2.192  -4.801 +0.00 -0.00    -0.027 A  
DOCKED: ATOM     52  C33 UNL     1       8.325  -2.987  -5.850 +0.00 +0.00    +0.025 A  
DOCKED: ATOM     53  C34 UNL     1       7.565  -2.386  -6.847 +0.00 +0.00    +0.111 A  
DOCKED: ATOM     54  N6  UNL     1       7.282  -1.067  -6.889 +0.00 -0.00    -0.263 NA 
DOCKED: ATOM     55  C35 UNL     1       7.754  -0.322  -5.867 +0.00 +0.00    +0.111 A  
DOCKED: ATOM     56  C36 UNL     1       8.508  -0.826  -4.819 +0.00 +0.00    +0.025 A  
DOCKED: ENDBRANCH  50  51
DOCKED: ENDBRANCH  48  50
DOCKED: ENDBRANCH  45  46
DOCKED: BRANCH  45  57
DOCKED: ATOM     57  C37 UNL     1      11.938   0.543  -2.529 +0.00 +0.00    +0.012 C  
DOCKED: ATOM     58  C38 UNL     1      10.613   1.033  -1.931 +0.00 +0.00    +0.009 C  
DOCKED: ATOM     59  C39 UNL     1      12.983   1.656  -2.433 +0.00 +0.00    +0.009 C  
DOCKED: ENDBRANCH  45  57
DOCKED: ENDBRANCH  43  45
DOCKED: ENDBRANCH  39  41
DOCKED: ENDBRANCH  38  39
DOCKED: ENDBRANCH  35  38
DOCKED: ENDBRANCH   1  35
DOCKED: TORSDOF 23
DOCKED: TER
DOCKED: ENDMDL
________________________________________________________________________________


    CLUSTERING HISTOGRAM
    ____________________


________________________________________________________________________________
     |           |     |           |     |
Clus | Lowest    | Run | Mean      | Num | Histogram
-ter | Binding   |     | Binding   | in  |
Rank | Energy    |     | Energy    | Clus|    5    10   15   20   25   30   35
_____|___________|_____|___________|_____|____:____|____:____|____:____|____:___
   1 |     +6.86 |   1 |     +6.86 |   1 |#
   2 |     +6.86 |   2 |     +6.86 |   1 |#
   3 |     +6.86 |   3 |     +6.86 |   1 |#
   4 |     +6.86 |   4 |     +6.86 |   1 |#
   5 |     +6.86 |   5 |     +6.86 |   1 |#
   6 |     +6.86 |   6 |     +6.86 |   1 |#
   7 |     +6.86 |   7 |     +6.86 |   1 |#
   8 |     +6.86 |   8 |     +6.86 |   1 |#
   9 |     +6.86 |   9 |     +6.86 |   1 |#
  10 |     +6.86 |  10 |     +6.86 |   1 |#
  11 |     +6.86 |  11 |     +6.86 |   1 |#
  12 |     +6.86 |  12 |     +6.86 |   1 |#
  13 |     +6.86 |  13 |     +6.86 |   1 |#
  14 |     +6.86 |  14 |     +6.86 |   1 |#
  15 |     +6.86 |  15 |     +6.86 |   1 |#
  16 |     +6.86 |  16 |     +6.86 |   1 |#
  17 |     +6.86 |  17 |     +6.86 |   1 |#
  18 |     +6.86 |  18 |     +6.86 |   1 |#
  19 |     +6.86 |  19 |     +6.86 |   1 |#
  20 |     +6.86 |  20 |     +6.86 |   1 |#
_____|___________|_____|___________|_____|______________________________________


    RMSD TABLE
    __________


_______________________________________________________________________
     |      |      |           |         |                 |
Rank | Sub- | Run  | Binding   | Cluster | Reference       | Grep
     | Rank |      | Energy    | RMSD    | RMSD            | Pattern
_____|______|______|___________|_________|_________________|___________
   1      1      1       +6.86      0.00      7.83           RANKING
   2      1      2       +6.86      0.00      6.99           RANKING
   3      1      3       +6.86      0.00     13.12           RANKING
   4      1      4       +6.86      0.00     13.63           RANKING
   5      1      5       +6.86      0.00     11.29           RANKING
   6      1      6       +6.86      0.00      8.13           RANKING
   7      1      7       +6.86      0.00      7.57           RANKING
   8      1      8       +6.86      0.00      7.20           RANKING
   9      1      9       +6.86      0.00      6.27           RANKING
  10      1     10       +6.86      0.00      6.08           RANKING
  11      1     11       +6.86      0.00     10.42           RANKING
  12      1     12       +6.86      0.00     12.01           RANKING
  13      1     13       +6.86      0.00      7.14           RANKING
  14      1     14       +6.86      0.00     12.59           RANKING
  15      1     15       +6.86      0.00     10.86           RANKING
  16      1     16       +6.86      0.00      5.14           RANKING
  17      1     17       +6.86      0.00      6.01           RANKING
  18      1     18       +6.86      0.00     12.64           RANKING
  19      1     19       +6.86      0.00     11.15           RANKING
  20      1     20       +6.86      0.00     10.12           RANKING

Run time 47.651 sec
Idle time 0.298 sec
