AutoDock-GPU version: v1.6

**********************************************************
**    AutoDock-GPU AUTODOCKTOOLS-COMPATIBLE DLG FILE    **
**********************************************************


    DOCKING PARAMETERS
    ________________________


Ligand file:                               ligands/ligand_44.pdbqt
Grid fld file:                             protein.maps.fld

Random seed:                               1770973583, 32195
Number of runs:                            20
Number of energy evaluations:              10503056
Number of generations:                     42000
Size of population:                        150
Rate of crossover:                         80.000000%
Tournament selection probability limit:    60.000000%
Rate of mutation:                          2.000000%
Maximal allowed delta movement:            +/- 6.000000A
Maximal allowed delta angle:               +/- 90.000000

Rate of local search:                      100.000000%
Maximal number of local search iterations: 300
Rho lower bound:                           0.010000
Spread of local search delta movement:     2.000000A
Spread of local search delta angle:        74.999999
Limit of consecutive successes/failures:   4

Handle symmetry during clustering:         YES
RMSD tolerance:                            2.000000A

Program call in command line was:          ./autodock-gpu --ffile protein.maps.fld --lfile ligands/ligand_44.pdbqt --nrun 20 


    GRID PARAMETERS
    ________________________


Receptor name:                             #MACROMOLECULE
Number of grid points (x, y, z):           61, 61, 61
Grid center (x, y, z):                     10.261000, -3.492000, -0.127000A
Grid size (x, y, z):                       22.500000, 22.500000, 22.500000A
Grid spacing:                              0.375000A


    LIGAND PARAMETERS
    ________________________


Ligand name:                               ligands/ligand_44
Number of atoms:                           51
Number of rotatable bonds:                 23
Number of atom types:                      5


    DUMMY DATA (only for ADT-compatibility)
    ________________________


DPF> outlev 1
DPF> ga_run 20
DPF> fld protein.maps.fld
DPF> move ligands/ligand_44.pdbqt


    COUNTER STATES
    ________________________


Number of energy evaluations performed:    7452555
Number of generations used:                280


    INPUT LIGAND PDBQT FILE:
    ________________________


INPUT-LIGAND-PDBQT: REMARK  Name = ligands/ligand_44.pdb
INPUT-LIGAND-PDBQT: REMARK  34 active torsions:
INPUT-LIGAND-PDBQT: REMARK  status: ('A' for Active; 'I' for Inactive)
INPUT-LIGAND-PDBQT: REMARK    1  A    between atoms: C1_1  and  C2_2
INPUT-LIGAND-PDBQT: REMARK    2  A    between atoms: C2_2  and  C3_3
INPUT-LIGAND-PDBQT: REMARK    3  A    between atoms: C3_3  and  C4_4
INPUT-LIGAND-PDBQT: REMARK    4  A    between atoms: C4_4  and  N1_5
INPUT-LIGAND-PDBQT: REMARK    5  A    between atoms: C5_6  and  C6_8
INPUT-LIGAND-PDBQT: REMARK    6  A    between atoms: C6_8  and  N2_9
INPUT-LIGAND-PDBQT: REMARK    7  A    between atoms: C6_8  and  C30_43
INPUT-LIGAND-PDBQT: REMARK    8  A    between atoms: C7_10  and  C8_12
INPUT-LIGAND-PDBQT: REMARK    9  A    between atoms: C8_12  and  C9_13
INPUT-LIGAND-PDBQT: REMARK   10  A    between atoms: C9_13  and  O3_14
INPUT-LIGAND-PDBQT: REMARK   11  A    between atoms: C9_13  and  C10_15
INPUT-LIGAND-PDBQT: REMARK   12  A    between atoms: C10_15  and  C11_16
INPUT-LIGAND-PDBQT: REMARK   13  A    between atoms: C10_15  and  N3_20
INPUT-LIGAND-PDBQT: REMARK   14  A    between atoms: C11_16  and  C12_17
INPUT-LIGAND-PDBQT: REMARK   15  A    between atoms: C12_17  and  C13_18
INPUT-LIGAND-PDBQT: REMARK   16  A    between atoms: C12_17  and  C14_19
INPUT-LIGAND-PDBQT: REMARK   17  A    between atoms: C15_21  and  C16_23
INPUT-LIGAND-PDBQT: REMARK   18  A    between atoms: C16_23  and  C17_24
INPUT-LIGAND-PDBQT: REMARK   19  A    between atoms: C16_23  and  N4_28
INPUT-LIGAND-PDBQT: REMARK   20  A    between atoms: C17_24  and  C18_25
INPUT-LIGAND-PDBQT: REMARK   21  A    between atoms: C18_25  and  S1_26
INPUT-LIGAND-PDBQT: REMARK   22  A    between atoms: S1_26  and  C19_27
INPUT-LIGAND-PDBQT: REMARK   23  A    between atoms: C20_29  and  C21_31
INPUT-LIGAND-PDBQT: REMARK   24  A    between atoms: C21_31  and  N5_32
INPUT-LIGAND-PDBQT: REMARK   25  A    between atoms: C21_31  and  C27_40
INPUT-LIGAND-PDBQT: REMARK   26  A    between atoms: C22_33  and  O7_35
INPUT-LIGAND-PDBQT: REMARK   27  A    between atoms: O7_35  and  C23_36
INPUT-LIGAND-PDBQT: REMARK   28  A    between atoms: C23_36  and  C24_37
INPUT-LIGAND-PDBQT: REMARK   29  A    between atoms: C23_36  and  C25_38
INPUT-LIGAND-PDBQT: REMARK   30  A    between atoms: C23_36  and  C26_39
INPUT-LIGAND-PDBQT: REMARK   31  A    between atoms: C27_40  and  C28_41
INPUT-LIGAND-PDBQT: REMARK   32  A    between atoms: C27_40  and  C29_42
INPUT-LIGAND-PDBQT: REMARK   33  A    between atoms: C30_43  and  C31_44
INPUT-LIGAND-PDBQT: REMARK   34  A    between atoms: C30_43  and  C32_45
INPUT-LIGAND-PDBQT: REMARK                            x       y       z     vdW  Elec       q    Type
INPUT-LIGAND-PDBQT: REMARK                         _______ _______ _______ _____ _____    ______ ____
INPUT-LIGAND-PDBQT: ROOT
INPUT-LIGAND-PDBQT: ATOM      1  N3  UNL     1      -2.204   1.449   2.608  0.00  0.00    -0.308 N 
INPUT-LIGAND-PDBQT: ATOM      2  C15 UNL     1      -1.950   0.701   1.476  0.00  0.00    +0.234 C 
INPUT-LIGAND-PDBQT: ATOM      3  O4  UNL     1      -1.352  -0.373   1.509  0.00  0.00    -0.274 OA
INPUT-LIGAND-PDBQT: ATOM      4  H27 UNL     1      -2.560   2.390   2.491  0.00  0.00    +0.149 HD
INPUT-LIGAND-PDBQT: ENDROOT
INPUT-LIGAND-PDBQT: BRANCH   1   5
INPUT-LIGAND-PDBQT: ATOM      5  C10 UNL     1      -1.614   1.104   3.912  0.00  0.00    +0.102 C 
INPUT-LIGAND-PDBQT: BRANCH   5   6
INPUT-LIGAND-PDBQT: ATOM      6  C11 UNL     1      -2.565   1.536   5.053  0.00  0.00    +0.028 C 
INPUT-LIGAND-PDBQT: BRANCH   6   7
INPUT-LIGAND-PDBQT: ATOM      7  C12 UNL     1      -3.901   0.771   5.200  0.00  0.00    -0.015 C 
INPUT-LIGAND-PDBQT: ATOM      8  C13 UNL     1      -3.698  -0.729   5.420  0.00  0.00    +0.007 C 
INPUT-LIGAND-PDBQT: ATOM      9  C14 UNL     1      -4.885   1.012   4.058  0.00  0.00    +0.007 C 
INPUT-LIGAND-PDBQT: ENDBRANCH   6   7
INPUT-LIGAND-PDBQT: ENDBRANCH   5   6
INPUT-LIGAND-PDBQT: BRANCH   5  10
INPUT-LIGAND-PDBQT: ATOM     10  C9  UNL     1      -0.199   1.773   4.033  0.00  0.00    +0.143 C 
INPUT-LIGAND-PDBQT: BRANCH  10  11
INPUT-LIGAND-PDBQT: ATOM     11  O3  UNL     1       0.231   2.012   5.375  0.00  0.00    -0.389 OA
INPUT-LIGAND-PDBQT: ATOM     12  H16 UNL     1      -0.342   2.690   5.769  0.00  0.00    +0.210 HD
INPUT-LIGAND-PDBQT: ENDBRANCH  10  11
INPUT-LIGAND-PDBQT: BRANCH  10  13
INPUT-LIGAND-PDBQT: ATOM     13  C8  UNL     1       0.926   1.046   3.287  0.00  0.00    +0.129 C 
INPUT-LIGAND-PDBQT: BRANCH  13  15
INPUT-LIGAND-PDBQT: ATOM     14  N2  UNL     1       2.129  -1.018   2.942  0.00  0.00    -0.304 N 
INPUT-LIGAND-PDBQT: ATOM     15  C7  UNL     1       1.158  -0.397   3.710  0.00  0.00    +0.216 C 
INPUT-LIGAND-PDBQT: ATOM     16  O2  UNL     1       0.591  -0.951   4.645  0.00  0.00    -0.276 OA
INPUT-LIGAND-PDBQT: ATOM     17  H12 UNL     1       2.250  -0.644   2.007  0.00  0.00    +0.149 HD
INPUT-LIGAND-PDBQT: BRANCH  14  18
INPUT-LIGAND-PDBQT: ATOM     18  C6  UNL     1       2.356  -2.459   3.049  0.00  0.00    +0.161 C 
INPUT-LIGAND-PDBQT: BRANCH  18  20
INPUT-LIGAND-PDBQT: ATOM     19  N1  UNL     1       1.102  -4.384   2.153  0.00  0.00    -0.314 N 
INPUT-LIGAND-PDBQT: ATOM     20  C5  UNL     1       1.588  -3.121   1.887  0.00  0.00    +0.234 C 
INPUT-LIGAND-PDBQT: ATOM     21  O1  UNL     1       1.472  -2.577   0.789  0.00  0.00    -0.274 OA
INPUT-LIGAND-PDBQT: ATOM     22  H10 UNL     1       1.033  -4.666   3.125  0.00  0.00    +0.149 HD
INPUT-LIGAND-PDBQT: BRANCH  19  23
INPUT-LIGAND-PDBQT: ATOM     23  C4  UNL     1       0.294  -5.095   1.185  0.00  0.00    +0.104 C 
INPUT-LIGAND-PDBQT: BRANCH  23  24
INPUT-LIGAND-PDBQT: ATOM     24  C3  UNL     1       1.140  -5.692   0.061  0.00  0.00    +0.018 C 
INPUT-LIGAND-PDBQT: BRANCH  24  26
INPUT-LIGAND-PDBQT: ATOM     25  C1  UNL     1       1.110  -7.042  -2.064  0.00  0.00    +0.004 C 
INPUT-LIGAND-PDBQT: ATOM     26  C2  UNL     1       0.274  -6.458  -0.936  0.00  0.00    -0.002 C 
INPUT-LIGAND-PDBQT: ENDBRANCH  24  26
INPUT-LIGAND-PDBQT: ENDBRANCH  23  24
INPUT-LIGAND-PDBQT: ENDBRANCH  19  23
INPUT-LIGAND-PDBQT: ENDBRANCH  18  20
INPUT-LIGAND-PDBQT: BRANCH  18  27
INPUT-LIGAND-PDBQT: ATOM     27  C30 UNL     1       3.867  -2.783   3.031  0.00  0.00    +0.012 C 
INPUT-LIGAND-PDBQT: ATOM     28  C31 UNL     1       4.562  -2.423   1.713  0.00  0.00    +0.009 C 
INPUT-LIGAND-PDBQT: ATOM     29  C32 UNL     1       4.142  -4.248   3.381  0.00  0.00    +0.009 C 
INPUT-LIGAND-PDBQT: ENDBRANCH  18  27
INPUT-LIGAND-PDBQT: ENDBRANCH  14  18
INPUT-LIGAND-PDBQT: ENDBRANCH  13  15
INPUT-LIGAND-PDBQT: ENDBRANCH  10  13
INPUT-LIGAND-PDBQT: ENDBRANCH   5  10
INPUT-LIGAND-PDBQT: ENDBRANCH   1   5
INPUT-LIGAND-PDBQT: BRANCH   2  30
INPUT-LIGAND-PDBQT: ATOM     30  C16 UNL     1      -2.506   1.295   0.165  0.00  0.00    +0.160 C 
INPUT-LIGAND-PDBQT: BRANCH  30  31
INPUT-LIGAND-PDBQT: ATOM     31  N4  UNL     1      -1.780   0.663  -0.925  0.00  0.00    -0.302 N 
INPUT-LIGAND-PDBQT: ATOM     32  C20 UNL     1      -0.771   1.314  -1.599  0.00  0.00    +0.234 C 
INPUT-LIGAND-PDBQT: ATOM     33  O5  UNL     1      -0.526   2.509  -1.431  0.00  0.00    -0.274 OA
INPUT-LIGAND-PDBQT: ATOM     34  H36 UNL     1      -1.769  -0.351  -0.916  0.00  0.00    +0.150 HD
INPUT-LIGAND-PDBQT: BRANCH  32  35
INPUT-LIGAND-PDBQT: ATOM     35  C21 UNL     1       0.049   0.415  -2.551  0.00  0.00    +0.165 C 
INPUT-LIGAND-PDBQT: BRANCH  35  36
INPUT-LIGAND-PDBQT: ATOM     36  N5  UNL     1       0.745   1.269  -3.501  0.00  0.00    -0.270 N 
INPUT-LIGAND-PDBQT: ATOM     37  C22 UNL     1       0.335   1.404  -4.791  0.00  0.00    +0.401 C 
INPUT-LIGAND-PDBQT: ATOM     38  O6  UNL     1      -0.493   0.700  -5.346  0.00  0.00    -0.226 OA
INPUT-LIGAND-PDBQT: ATOM     39  H38 UNL     1       1.231   2.077  -3.135  0.00  0.00    +0.153 HD
INPUT-LIGAND-PDBQT: BRANCH  37  40
INPUT-LIGAND-PDBQT: ATOM     40  O7  UNL     1       0.999   2.443  -5.344  0.00  0.00    -0.445 OA
INPUT-LIGAND-PDBQT: BRANCH  40  41
INPUT-LIGAND-PDBQT: ATOM     41  C23 UNL     1       0.795   2.794  -6.737  0.00  0.00    +0.107 C 
INPUT-LIGAND-PDBQT: ATOM     42  C24 UNL     1      -0.651   3.226  -7.001  0.00  0.00    +0.055 C 
INPUT-LIGAND-PDBQT: ATOM     43  C25 UNL     1       1.719   4.000  -6.976  0.00  0.00    +0.055 C 
INPUT-LIGAND-PDBQT: ATOM     44  C26 UNL     1       1.230   1.655  -7.667  0.00  0.00    +0.055 C 
INPUT-LIGAND-PDBQT: ENDBRANCH  40  41
INPUT-LIGAND-PDBQT: ENDBRANCH  37  40
INPUT-LIGAND-PDBQT: ENDBRANCH  35  36
INPUT-LIGAND-PDBQT: BRANCH  35  45
INPUT-LIGAND-PDBQT: ATOM     45  C27 UNL     1       1.012  -0.493  -1.759  0.00  0.00    +0.012 C 
INPUT-LIGAND-PDBQT: ATOM     46  C28 UNL     1       2.120   0.282  -1.036  0.00  0.00    +0.009 C 
INPUT-LIGAND-PDBQT: ATOM     47  C29 UNL     1       1.629  -1.561  -2.667  0.00  0.00    +0.009 C 
INPUT-LIGAND-PDBQT: ENDBRANCH  35  45
INPUT-LIGAND-PDBQT: ENDBRANCH  32  35
INPUT-LIGAND-PDBQT: ENDBRANCH  30  31
INPUT-LIGAND-PDBQT: BRANCH  30  48
INPUT-LIGAND-PDBQT: ATOM     48  C17 UNL     1      -4.021   1.066   0.077  0.00  0.00    +0.042 C 
INPUT-LIGAND-PDBQT: BRANCH  48  49
INPUT-LIGAND-PDBQT: ATOM     49  C18 UNL     1      -4.643   1.596  -1.218  0.00  0.00    +0.071 C 
INPUT-LIGAND-PDBQT: BRANCH  49  50
INPUT-LIGAND-PDBQT: ATOM     50  S1  UNL     1      -4.614   0.352  -2.550  0.00  0.00    -0.164 S 
INPUT-LIGAND-PDBQT: ATOM     51  C19 UNL     1      -4.931   1.445  -3.955  0.00  0.00    +0.084 C 
INPUT-LIGAND-PDBQT: ENDBRANCH  49  50
INPUT-LIGAND-PDBQT: ENDBRANCH  48  49
INPUT-LIGAND-PDBQT: ENDBRANCH  30  48
INPUT-LIGAND-PDBQT: ENDBRANCH   2  30
INPUT-LIGAND-PDBQT: TORSDOF 23


    FINAL DOCKED STATE:
    ________________________


Run:   1 / 20
Time taken for this run:   1.806s

DOCKED: MODEL        1
DOCKED: USER    Run = 1
DOCKED: USER
DOCKED: USER    Estimated Free Energy of Binding    =  +6.86 kcal/mol  [=(1)+(2)+(3)-(4)]
DOCKED: USER
DOCKED: USER    (1) Final Intermolecular Energy     =  +0.00 kcal/mol
DOCKED: USER        vdW + Hbond + desolv Energy     =  +0.00 kcal/mol
DOCKED: USER        Electrostatic Energy            =  +0.00 kcal/mol
DOCKED: USER        Moving Ligand-Fixed Receptor    =  +0.00 kcal/mol
DOCKED: USER        Moving Ligand-Moving Receptor   =  +0.00 kcal/mol
DOCKED: USER    (2) Final Total Internal Energy     = -13.68 kcal/mol
DOCKED: USER    (3) Torsional Free Energy           =  +6.86 kcal/mol
DOCKED: USER    (4) Unbound System's Energy         = -13.68 kcal/mol
DOCKED: USER
DOCKED: USER
DOCKED: REMARK  Name = ligands/ligand_44.pdb
DOCKED: REMARK  34 active torsions:
DOCKED: REMARK  status: ('A' for Active; 'I' for Inactive)
DOCKED: REMARK    1  A    between atoms: C1_1  and  C2_2
DOCKED: REMARK    2  A    between atoms: C2_2  and  C3_3
DOCKED: REMARK    3  A    between atoms: C3_3  and  C4_4
DOCKED: REMARK    4  A    between atoms: C4_4  and  N1_5
DOCKED: REMARK    5  A    between atoms: C5_6  and  C6_8
DOCKED: REMARK    6  A    between atoms: C6_8  and  N2_9
DOCKED: REMARK    7  A    between atoms: C6_8  and  C30_43
DOCKED: REMARK    8  A    between atoms: C7_10  and  C8_12
DOCKED: REMARK    9  A    between atoms: C8_12  and  C9_13
DOCKED: REMARK   10  A    between atoms: C9_13  and  O3_14
DOCKED: REMARK   11  A    between atoms: C9_13  and  C10_15
DOCKED: REMARK   12  A    between atoms: C10_15  and  C11_16
DOCKED: REMARK   13  A    between atoms: C10_15  and  N3_20
DOCKED: REMARK   14  A    between atoms: C11_16  and  C12_17
DOCKED: REMARK   15  A    between atoms: C12_17  and  C13_18
DOCKED: REMARK   16  A    between atoms: C12_17  and  C14_19
DOCKED: REMARK   17  A    between atoms: C15_21  and  C16_23
DOCKED: REMARK   18  A    between atoms: C16_23  and  C17_24
DOCKED: REMARK   19  A    between atoms: C16_23  and  N4_28
DOCKED: REMARK   20  A    between atoms: C17_24  and  C18_25
DOCKED: REMARK   21  A    between atoms: C18_25  and  S1_26
DOCKED: REMARK   22  A    between atoms: S1_26  and  C19_27
DOCKED: REMARK   23  A    between atoms: C20_29  and  C21_31
DOCKED: REMARK   24  A    between atoms: C21_31  and  N5_32
DOCKED: REMARK   25  A    between atoms: C21_31  and  C27_40
DOCKED: REMARK   26  A    between atoms: C22_33  and  O7_35
DOCKED: REMARK   27  A    between atoms: O7_35  and  C23_36
DOCKED: REMARK   28  A    between atoms: C23_36  and  C24_37
DOCKED: REMARK   29  A    between atoms: C23_36  and  C25_38
DOCKED: REMARK   30  A    between atoms: C23_36  and  C26_39
DOCKED: REMARK   31  A    between atoms: C27_40  and  C28_41
DOCKED: REMARK   32  A    between atoms: C27_40  and  C29_42
DOCKED: REMARK   33  A    between atoms: C30_43  and  C31_44
DOCKED: REMARK   34  A    between atoms: C30_43  and  C32_45
DOCKED: REMARK                            x       y       z     vdW  Elec       q    Type
DOCKED: REMARK                         _______ _______ _______ _____ _____    ______ ____
DOCKED: USER                              x       y       z     vdW  Elec       q    Type
DOCKED: USER                           _______ _______ _______ _____ _____    ______ ____
DOCKED: ROOT
DOCKED: ATOM      1  N3  UNL     1      10.841  -3.486  -3.351 +0.00 -0.00    -0.308 N  
DOCKED: ATOM      2  C15 UNL     1      10.595  -2.663  -4.432 +0.00 +0.00    +0.234 C  
DOCKED: ATOM      3  O4  UNL     1      11.265  -2.699  -5.462 +0.00 -0.00    -0.274 OA 
DOCKED: ATOM      4  H27 UNL     1      10.354  -3.296  -2.484 +0.00 +0.00    +0.149 HD 
DOCKED: ENDROOT
DOCKED: BRANCH   1   5
DOCKED: ATOM      5  C10 UNL     1      12.041  -4.337  -3.285 +0.00 +0.00    +0.102 C  
DOCKED: BRANCH   5   6
DOCKED: ATOM      6  C11 UNL     1      11.683  -5.787  -3.688 +0.00 +0.00    +0.028 C  
DOCKED: BRANCH   6   7
DOCKED: ATOM      7  C12 UNL     1      10.306  -6.334  -3.244 +0.00 -0.00    -0.015 C  
DOCKED: ATOM      8  C13 UNL     1      10.412  -7.689  -2.541 +0.00 +0.00    +0.007 C  
DOCKED: ATOM      9  C14 UNL     1       9.270  -6.397  -4.363 +0.00 +0.00    +0.007 C  
DOCKED: ENDBRANCH   6   7
DOCKED: ENDBRANCH   5   6
DOCKED: BRANCH   5  10
DOCKED: ATOM     10  C9  UNL     1      12.653  -4.256  -1.841 +0.00 +0.00    +0.143 C  
DOCKED: BRANCH  10  11
DOCKED: ATOM     11  O3  UNL     1      11.828  -3.588  -0.884 +0.00 -0.00    -0.389 OA 
DOCKED: ATOM     12  H16 UNL     1      11.144  -4.205  -0.578 +0.00 +0.00    +0.210 HD 
DOCKED: ENDBRANCH  10  11
DOCKED: BRANCH  10  13
DOCKED: ATOM     13  C8  UNL     1      13.090  -5.601  -1.248 +0.00 +0.00    +0.129 C  
DOCKED: BRANCH  13  15
DOCKED: ATOM     14  N2  UNL     1      12.264  -5.549   1.019 +0.00 -0.00    -0.304 N  
DOCKED: ATOM     15  C7  UNL     1      13.408  -5.581   0.240 +0.00 +0.00    +0.216 C  
DOCKED: ATOM     16  O2  UNL     1      14.538  -5.627   0.713 +0.00 -0.00    -0.276 OA 
DOCKED: ATOM     17  H12 UNL     1      11.448  -5.139   0.579 +0.00 +0.00    +0.149 HD 
DOCKED: BRANCH  14  18
DOCKED: ATOM     18  C6  UNL     1      12.350  -5.320   2.461 +0.00 +0.00    +0.161 C  
DOCKED: BRANCH  18  20
DOCKED: ATOM     19  N1  UNL     1      10.963  -3.435   1.684 +0.00 -0.00    -0.314 N  
DOCKED: ATOM     20  C5  UNL     1      11.679  -3.959   2.739 +0.00 +0.00    +0.234 C  
DOCKED: ATOM     21  O1  UNL     1      11.825  -3.367   3.808 +0.00 -0.00    -0.274 OA 
DOCKED: ATOM     22  H10 UNL     1      10.697  -4.067   0.936 +0.00 +0.00    +0.149 HD 
DOCKED: BRANCH  19  23
DOCKED: ATOM     23  C4  UNL     1      10.214  -2.204   1.824 +0.00 +0.00    +0.104 C  
DOCKED: BRANCH  23  24
DOCKED: ATOM     24  C3  UNL     1      11.081  -0.974   1.558 +0.00 +0.00    +0.018 C  
DOCKED: BRANCH  24  26
DOCKED: ATOM     25  C1  UNL     1      12.828  -0.823  -0.249 +0.00 +0.00    +0.004 C  
DOCKED: ATOM     26  C2  UNL     1      12.491  -1.372   1.128 +0.00 -0.00    -0.002 C  
DOCKED: ENDBRANCH  24  26
DOCKED: ENDBRANCH  23  24
DOCKED: ENDBRANCH  19  23
DOCKED: ENDBRANCH  18  20
DOCKED: BRANCH  18  27
DOCKED: ATOM     27  C30 UNL     1      11.698  -6.481   3.246 +0.00 +0.00    +0.012 C  
DOCKED: ATOM     28  C31 UNL     1      11.079  -6.056   4.582 +0.00 +0.00    +0.009 C  
DOCKED: ATOM     29  C32 UNL     1      12.675  -7.638   3.470 +0.00 +0.00    +0.009 C  
DOCKED: ENDBRANCH  18  27
DOCKED: ENDBRANCH  14  18
DOCKED: ENDBRANCH  13  15
DOCKED: ENDBRANCH  10  13
DOCKED: ENDBRANCH   5  10
DOCKED: ENDBRANCH   1   5
DOCKED: BRANCH   2  30
DOCKED: ATOM     30  C16 UNL     1       9.389  -1.715  -4.267 +0.00 +0.00    +0.160 C  
DOCKED: BRANCH  30  31
DOCKED: ATOM     31  N4  UNL     1       8.553  -2.275  -3.217 +0.00 -0.00    -0.302 N  
DOCKED: ATOM     32  C20 UNL     1       7.645  -3.279  -3.470 +0.00 +0.00    +0.234 C  
DOCKED: ATOM     33  O5  UNL     1       7.373  -3.654  -4.611 +0.00 -0.00    -0.274 OA 
DOCKED: ATOM     34  H36 UNL     1       8.915  -2.188  -2.273 +0.00 +0.00    +0.150 HD 
DOCKED: BRANCH  32  35
DOCKED: ATOM     35  C21 UNL     1       7.027  -3.919  -2.207 +0.00 +0.00    +0.165 C  
DOCKED: BRANCH  35  36
DOCKED: ATOM     36  N5  UNL     1       7.990  -4.858  -1.651 +0.00 -0.00    -0.270 N  
DOCKED: ATOM     37  C22 UNL     1       8.978  -4.466  -0.802 +0.00 +0.00    +0.401 C  
DOCKED: ATOM     38  O6  UNL     1       9.300  -3.311  -0.578 +0.00 -0.00    -0.226 OA 
DOCKED: ATOM     39  H38 UNL     1       7.690  -5.815  -1.523 +0.00 +0.00    +0.153 HD 
DOCKED: BRANCH  37  40
DOCKED: ATOM     40  O7  UNL     1       9.534  -5.570  -0.255 +0.00 -0.00    -0.445 OA 
DOCKED: BRANCH  40  41
DOCKED: ATOM     41  C23 UNL     1       8.854  -6.295   0.802 +0.00 +0.00    +0.107 C  
DOCKED: ATOM     42  C24 UNL     1       7.490  -6.815   0.339 +0.00 +0.00    +0.055 C  
DOCKED: ATOM     43  C25 UNL     1       9.764  -7.499   1.099 +0.00 +0.00    +0.055 C  
DOCKED: ATOM     44  C26 UNL     1       8.740  -5.445   2.074 +0.00 +0.00    +0.055 C  
DOCKED: ENDBRANCH  40  41
DOCKED: ENDBRANCH  37  40
DOCKED: ENDBRANCH  35  36
DOCKED: BRANCH  35  45
DOCKED: ATOM     45  C27 UNL     1       6.605  -2.838  -1.191 +0.00 +0.00    +0.012 C  
DOCKED: ATOM     46  C28 UNL     1       5.954  -3.413   0.072 +0.00 +0.00    +0.009 C  
DOCKED: ATOM     47  C29 UNL     1       5.670  -1.813  -1.840 +0.00 +0.00    +0.009 C  
DOCKED: ENDBRANCH  35  45
DOCKED: ENDBRANCH  32  35
DOCKED: ENDBRANCH  30  31
DOCKED: BRANCH  30  48
DOCKED: ATOM     48  C17 UNL     1       9.869  -0.293  -3.944 +0.00 +0.00    +0.042 C  
DOCKED: BRANCH  48  49
DOCKED: ATOM     49  C18 UNL     1      10.607  -0.188  -2.606 +0.00 +0.00    +0.071 C  
DOCKED: BRANCH  49  50
DOCKED: ATOM     50  S1  UNL     1       9.456  -0.071  -1.198 +0.00 -0.00    -0.164 S  
DOCKED: ATOM     51  C19 UNL     1       8.103   0.804  -2.019 +0.00 +0.00    +0.084 C  
DOCKED: ENDBRANCH  49  50
DOCKED: ENDBRANCH  48  49
DOCKED: ENDBRANCH  30  48
DOCKED: ENDBRANCH   2  30
DOCKED: TORSDOF 23
DOCKED: TER
DOCKED: ENDMDL
________________________________________________________________________________


    FINAL DOCKED STATE:
    ________________________


Run:   2 / 20
Time taken for this run:   1.806s

DOCKED: MODEL        2
DOCKED: USER    Run = 2
DOCKED: USER
DOCKED: USER    Estimated Free Energy of Binding    =  +6.86 kcal/mol  [=(1)+(2)+(3)-(4)]
DOCKED: USER
DOCKED: USER    (1) Final Intermolecular Energy     =  +0.00 kcal/mol
DOCKED: USER        vdW + Hbond + desolv Energy     =  +0.00 kcal/mol
DOCKED: USER        Electrostatic Energy            =  +0.00 kcal/mol
DOCKED: USER        Moving Ligand-Fixed Receptor    =  +0.00 kcal/mol
DOCKED: USER        Moving Ligand-Moving Receptor   =  +0.00 kcal/mol
DOCKED: USER    (2) Final Total Internal Energy     = -13.89 kcal/mol
DOCKED: USER    (3) Torsional Free Energy           =  +6.86 kcal/mol
DOCKED: USER    (4) Unbound System's Energy         = -13.89 kcal/mol
DOCKED: USER
DOCKED: USER
DOCKED: REMARK  Name = ligands/ligand_44.pdb
DOCKED: REMARK  34 active torsions:
DOCKED: REMARK  status: ('A' for Active; 'I' for Inactive)
DOCKED: REMARK    1  A    between atoms: C1_1  and  C2_2
DOCKED: REMARK    2  A    between atoms: C2_2  and  C3_3
DOCKED: REMARK    3  A    between atoms: C3_3  and  C4_4
DOCKED: REMARK    4  A    between atoms: C4_4  and  N1_5
DOCKED: REMARK    5  A    between atoms: C5_6  and  C6_8
DOCKED: REMARK    6  A    between atoms: C6_8  and  N2_9
DOCKED: REMARK    7  A    between atoms: C6_8  and  C30_43
DOCKED: REMARK    8  A    between atoms: C7_10  and  C8_12
DOCKED: REMARK    9  A    between atoms: C8_12  and  C9_13
DOCKED: REMARK   10  A    between atoms: C9_13  and  O3_14
DOCKED: REMARK   11  A    between atoms: C9_13  and  C10_15
DOCKED: REMARK   12  A    between atoms: C10_15  and  C11_16
DOCKED: REMARK   13  A    between atoms: C10_15  and  N3_20
DOCKED: REMARK   14  A    between atoms: C11_16  and  C12_17
DOCKED: REMARK   15  A    between atoms: C12_17  and  C13_18
DOCKED: REMARK   16  A    between atoms: C12_17  and  C14_19
DOCKED: REMARK   17  A    between atoms: C15_21  and  C16_23
DOCKED: REMARK   18  A    between atoms: C16_23  and  C17_24
DOCKED: REMARK   19  A    between atoms: C16_23  and  N4_28
DOCKED: REMARK   20  A    between atoms: C17_24  and  C18_25
DOCKED: REMARK   21  A    between atoms: C18_25  and  S1_26
DOCKED: REMARK   22  A    between atoms: S1_26  and  C19_27
DOCKED: REMARK   23  A    between atoms: C20_29  and  C21_31
DOCKED: REMARK   24  A    between atoms: C21_31  and  N5_32
DOCKED: REMARK   25  A    between atoms: C21_31  and  C27_40
DOCKED: REMARK   26  A    between atoms: C22_33  and  O7_35
DOCKED: REMARK   27  A    between atoms: O7_35  and  C23_36
DOCKED: REMARK   28  A    between atoms: C23_36  and  C24_37
DOCKED: REMARK   29  A    between atoms: C23_36  and  C25_38
DOCKED: REMARK   30  A    between atoms: C23_36  and  C26_39
DOCKED: REMARK   31  A    between atoms: C27_40  and  C28_41
DOCKED: REMARK   32  A    between atoms: C27_40  and  C29_42
DOCKED: REMARK   33  A    between atoms: C30_43  and  C31_44
DOCKED: REMARK   34  A    between atoms: C30_43  and  C32_45
DOCKED: REMARK                            x       y       z     vdW  Elec       q    Type
DOCKED: REMARK                         _______ _______ _______ _____ _____    ______ ____
DOCKED: USER                              x       y       z     vdW  Elec       q    Type
DOCKED: USER                           _______ _______ _______ _____ _____    ______ ____
DOCKED: ROOT
DOCKED: ATOM      1  N3  UNL     1       5.246  -2.336  -1.085 +0.00 -0.00    -0.308 N  
DOCKED: ATOM      2  C15 UNL     1       5.508  -3.081  -2.217 +0.00 +0.00    +0.234 C  
DOCKED: ATOM      3  O4  UNL     1       5.971  -4.220  -2.171 +0.00 -0.00    -0.274 OA 
DOCKED: ATOM      4  H27 UNL     1       5.015  -1.357  -1.199 +0.00 +0.00    +0.149 HD 
DOCKED: ENDROOT
DOCKED: BRANCH   1   5
DOCKED: ATOM      5  C10 UNL     1       5.677  -2.780   0.251 +0.00 +0.00    +0.102 C  
DOCKED: BRANCH   5   6
DOCKED: ATOM      6  C11 UNL     1       4.490  -3.430   1.000 +0.00 +0.00    +0.028 C  
DOCKED: BRANCH   6   7
DOCKED: ATOM      7  C12 UNL     1       3.089  -2.809   0.797 +0.00 -0.00    -0.015 C  
DOCKED: ATOM      8  C13 UNL     1       2.422  -2.418   2.117 +0.00 +0.00    +0.007 C  
DOCKED: ATOM      9  C14 UNL     1       2.144  -3.665  -0.043 +0.00 +0.00    +0.007 C  
DOCKED: ENDBRANCH   6   7
DOCKED: ENDBRANCH   5   6
DOCKED: BRANCH   5  10
DOCKED: ATOM     10  C9  UNL     1       6.276  -1.559   1.034 +0.00 +0.00    +0.143 C  
DOCKED: BRANCH  10  11
DOCKED: ATOM     11  O3  UNL     1       6.102  -0.296   0.388 +0.00 -0.00    -0.389 OA 
DOCKED: ATOM     12  H16 UNL     1       5.196   0.013   0.550 +0.00 +0.00    +0.210 HD 
DOCKED: ENDBRANCH  10  11
DOCKED: BRANCH  10  13
DOCKED: ATOM     13  C8  UNL     1       5.804  -1.428   2.487 +0.00 +0.00    +0.129 C  
DOCKED: BRANCH  13  15
DOCKED: ATOM     14  N2  UNL     1       5.324   0.927   2.717 +0.00 -0.00    -0.304 N  
DOCKED: ATOM     15  C7  UNL     1       6.136  -0.104   3.160 +0.00 +0.00    +0.216 C  
DOCKED: ATOM     16  O2  UNL     1       6.992   0.045   4.025 +0.00 -0.00    -0.276 OA 
DOCKED: ATOM     17  H12 UNL     1       4.943   0.811   1.784 +0.00 +0.00    +0.149 HD 
DOCKED: BRANCH  14  18
DOCKED: ATOM     18  C6  UNL     1       5.611   2.313   3.084 +0.00 +0.00    +0.161 C  
DOCKED: BRANCH  18  20
DOCKED: ATOM     19  N1  UNL     1       5.673   2.374   0.619 +0.00 -0.00    -0.314 N  
DOCKED: ATOM     20  C5  UNL     1       5.969   3.056   1.781 +0.00 +0.00    +0.234 C  
DOCKED: ATOM     21  O1  UNL     1       6.529   4.152   1.788 +0.00 -0.00    -0.274 OA 
DOCKED: ATOM     22  H10 UNL     1       5.018   1.601   0.682 +0.00 +0.00    +0.149 HD 
DOCKED: BRANCH  19  23
DOCKED: ATOM     23  C4  UNL     1       5.880   2.979  -0.679 +0.00 +0.00    +0.104 C  
DOCKED: BRANCH  23  24
DOCKED: ATOM     24  C3  UNL     1       4.884   4.106  -0.951 +0.00 +0.00    +0.018 C  
DOCKED: BRANCH  24  26
DOCKED: ATOM     25  C1  UNL     1       4.778   3.067  -3.242 +0.00 +0.00    +0.004 C  
DOCKED: ATOM     26  C2  UNL     1       3.997   3.783  -2.151 +0.00 -0.00    -0.002 C  
DOCKED: ENDBRANCH  24  26
DOCKED: ENDBRANCH  23  24
DOCKED: ENDBRANCH  19  23
DOCKED: ENDBRANCH  18  20
DOCKED: BRANCH  18  27
DOCKED: ATOM     27  C30 UNL     1       4.414   2.948   3.827 +0.00 +0.00    +0.012 C  
DOCKED: ATOM     28  C31 UNL     1       4.433   4.481   3.835 +0.00 +0.00    +0.009 C  
DOCKED: ATOM     29  C32 UNL     1       4.286   2.422   5.259 +0.00 +0.00    +0.009 C  
DOCKED: ENDBRANCH  18  27
DOCKED: ENDBRANCH  14  18
DOCKED: ENDBRANCH  13  15
DOCKED: ENDBRANCH  10  13
DOCKED: ENDBRANCH   5  10
DOCKED: ENDBRANCH   1   5
DOCKED: BRANCH   2  30
DOCKED: ATOM     30  C16 UNL     1       5.140  -2.394  -3.548 +0.00 +0.00    +0.160 C  
DOCKED: BRANCH  30  31
DOCKED: ATOM     31  N4  UNL     1       4.148  -1.377  -3.237 +0.00 -0.00    -0.302 N  
DOCKED: ATOM     32  C20 UNL     1       2.832  -1.698  -2.990 +0.00 +0.00    +0.234 C  
DOCKED: ATOM     33  O5  UNL     1       2.383  -2.831  -3.167 +0.00 -0.00    -0.274 OA 
DOCKED: ATOM     34  H36 UNL     1       4.510  -0.516  -2.842 +0.00 +0.00    +0.150 HD 
DOCKED: BRANCH  32  35
DOCKED: ATOM     35  C21 UNL     1       1.980  -0.534  -2.439 +0.00 +0.00    +0.165 C  
DOCKED: BRANCH  35  36
DOCKED: ATOM     36  N5  UNL     1       2.226  -0.423  -1.010 +0.00 -0.00    -0.270 N  
DOCKED: ATOM     37  C22 UNL     1       3.282   0.272  -0.507 +0.00 +0.00    +0.401 C  
DOCKED: ATOM     38  O6  UNL     1       4.228   0.686  -1.157 +0.00 -0.00    -0.226 OA 
DOCKED: ATOM     39  H38 UNL     1       1.425  -0.461  -0.393 +0.00 +0.00    +0.153 HD 
DOCKED: BRANCH  37  40
DOCKED: ATOM     40  O7  UNL     1       3.101   0.420   0.824 +0.00 -0.00    -0.445 OA 
DOCKED: BRANCH  40  41
DOCKED: ATOM     41  C23 UNL     1       2.160   1.397   1.339 +0.00 +0.00    +0.107 C  
DOCKED: ATOM     42  C24 UNL     1       0.761   1.193   0.748 +0.00 +0.00    +0.055 C  
DOCKED: ATOM     43  C25 UNL     1       2.099   1.123   2.851 +0.00 +0.00    +0.055 C  
DOCKED: ATOM     44  C26 UNL     1       2.669   2.827   1.123 +0.00 +0.00    +0.055 C  
DOCKED: ENDBRANCH  40  41
DOCKED: ENDBRANCH  37  40
DOCKED: ENDBRANCH  35  36
DOCKED: BRANCH  35  45
DOCKED: ATOM     45  C27 UNL     1       2.284   0.777  -3.193 +0.00 +0.00    +0.012 C  
DOCKED: ATOM     46  C28 UNL     1       1.334   1.923  -2.825 +0.00 +0.00    +0.009 C  
DOCKED: ATOM     47  C29 UNL     1       2.269   0.553  -4.708 +0.00 +0.00    +0.009 C  
DOCKED: ENDBRANCH  35  45
DOCKED: ENDBRANCH  32  35
DOCKED: ENDBRANCH  30  31
DOCKED: BRANCH  30  48
DOCKED: ATOM     48  C17 UNL     1       6.396  -1.811  -4.211 +0.00 +0.00    +0.042 C  
DOCKED: BRANCH  48  49
DOCKED: ATOM     49  C18 UNL     1       6.413  -0.280  -4.244 +0.00 +0.00    +0.071 C  
DOCKED: BRANCH  49  50
DOCKED: ATOM     50  S1  UNL     1       6.906   0.434  -2.641 +0.00 -0.00    -0.164 S  
DOCKED: ATOM     51  C19 UNL     1       8.102  -0.824  -2.136 +0.00 +0.00    +0.084 C  
DOCKED: ENDBRANCH  49  50
DOCKED: ENDBRANCH  48  49
DOCKED: ENDBRANCH  30  48
DOCKED: ENDBRANCH   2  30
DOCKED: TORSDOF 23
DOCKED: TER
DOCKED: ENDMDL
________________________________________________________________________________


    FINAL DOCKED STATE:
    ________________________


Run:   3 / 20
Time taken for this run:   1.806s

DOCKED: MODEL        3
DOCKED: USER    Run = 3
DOCKED: USER
DOCKED: USER    Estimated Free Energy of Binding    =  +6.86 kcal/mol  [=(1)+(2)+(3)-(4)]
DOCKED: USER
DOCKED: USER    (1) Final Intermolecular Energy     =  +0.00 kcal/mol
DOCKED: USER        vdW + Hbond + desolv Energy     =  +0.00 kcal/mol
DOCKED: USER        Electrostatic Energy            =  +0.00 kcal/mol
DOCKED: USER        Moving Ligand-Fixed Receptor    =  +0.00 kcal/mol
DOCKED: USER        Moving Ligand-Moving Receptor   =  +0.00 kcal/mol
DOCKED: USER    (2) Final Total Internal Energy     = -13.42 kcal/mol
DOCKED: USER    (3) Torsional Free Energy           =  +6.86 kcal/mol
DOCKED: USER    (4) Unbound System's Energy         = -13.42 kcal/mol
DOCKED: USER
DOCKED: USER
DOCKED: REMARK  Name = ligands/ligand_44.pdb
DOCKED: REMARK  34 active torsions:
DOCKED: REMARK  status: ('A' for Active; 'I' for Inactive)
DOCKED: REMARK    1  A    between atoms: C1_1  and  C2_2
DOCKED: REMARK    2  A    between atoms: C2_2  and  C3_3
DOCKED: REMARK    3  A    between atoms: C3_3  and  C4_4
DOCKED: REMARK    4  A    between atoms: C4_4  and  N1_5
DOCKED: REMARK    5  A    between atoms: C5_6  and  C6_8
DOCKED: REMARK    6  A    between atoms: C6_8  and  N2_9
DOCKED: REMARK    7  A    between atoms: C6_8  and  C30_43
DOCKED: REMARK    8  A    between atoms: C7_10  and  C8_12
DOCKED: REMARK    9  A    between atoms: C8_12  and  C9_13
DOCKED: REMARK   10  A    between atoms: C9_13  and  O3_14
DOCKED: REMARK   11  A    between atoms: C9_13  and  C10_15
DOCKED: REMARK   12  A    between atoms: C10_15  and  C11_16
DOCKED: REMARK   13  A    between atoms: C10_15  and  N3_20
DOCKED: REMARK   14  A    between atoms: C11_16  and  C12_17
DOCKED: REMARK   15  A    between atoms: C12_17  and  C13_18
DOCKED: REMARK   16  A    between atoms: C12_17  and  C14_19
DOCKED: REMARK   17  A    between atoms: C15_21  and  C16_23
DOCKED: REMARK   18  A    between atoms: C16_23  and  C17_24
DOCKED: REMARK   19  A    between atoms: C16_23  and  N4_28
DOCKED: REMARK   20  A    between atoms: C17_24  and  C18_25
DOCKED: REMARK   21  A    between atoms: C18_25  and  S1_26
DOCKED: REMARK   22  A    between atoms: S1_26  and  C19_27
DOCKED: REMARK   23  A    between atoms: C20_29  and  C21_31
DOCKED: REMARK   24  A    between atoms: C21_31  and  N5_32
DOCKED: REMARK   25  A    between atoms: C21_31  and  C27_40
DOCKED: REMARK   26  A    between atoms: C22_33  and  O7_35
DOCKED: REMARK   27  A    between atoms: O7_35  and  C23_36
DOCKED: REMARK   28  A    between atoms: C23_36  and  C24_37
DOCKED: REMARK   29  A    between atoms: C23_36  and  C25_38
DOCKED: REMARK   30  A    between atoms: C23_36  and  C26_39
DOCKED: REMARK   31  A    between atoms: C27_40  and  C28_41
DOCKED: REMARK   32  A    between atoms: C27_40  and  C29_42
DOCKED: REMARK   33  A    between atoms: C30_43  and  C31_44
DOCKED: REMARK   34  A    between atoms: C30_43  and  C32_45
DOCKED: REMARK                            x       y       z     vdW  Elec       q    Type
DOCKED: REMARK                         _______ _______ _______ _____ _____    ______ ____
DOCKED: USER                              x       y       z     vdW  Elec       q    Type
DOCKED: USER                           _______ _______ _______ _____ _____    ______ ____
DOCKED: ROOT
DOCKED: ATOM      1  N3  UNL     1      12.044   0.617  -5.151 +0.00 -0.00    -0.308 N  
DOCKED: ATOM      2  C15 UNL     1      11.415  -0.575  -4.852 +0.00 +0.00    +0.234 C  
DOCKED: ATOM      3  O4  UNL     1      11.329  -1.501  -5.656 +0.00 -0.00    -0.274 OA 
DOCKED: ATOM      4  H27 UNL     1      11.943   1.388  -4.503 +0.00 +0.00    +0.149 HD 
DOCKED: ENDROOT
DOCKED: BRANCH   1   5
DOCKED: ATOM      5  C10 UNL     1      12.493   0.933  -6.517 +0.00 +0.00    +0.102 C  
DOCKED: BRANCH   5   6
DOCKED: ATOM      6  C11 UNL     1      13.772   0.129  -6.852 +0.00 +0.00    +0.028 C  
DOCKED: BRANCH   6   7
DOCKED: ATOM      7  C12 UNL     1      14.751  -0.173  -5.695 +0.00 -0.00    -0.015 C  
DOCKED: ATOM      8  C13 UNL     1      16.216  -0.113  -6.133 +0.00 +0.00    +0.007 C  
DOCKED: ATOM      9  C14 UNL     1      14.468  -1.485  -4.967 +0.00 +0.00    +0.007 C  
DOCKED: ENDBRANCH   6   7
DOCKED: ENDBRANCH   5   6
DOCKED: BRANCH   5  10
DOCKED: ATOM     10  C9  UNL     1      12.716   2.482  -6.643 +0.00 +0.00    +0.143 C  
DOCKED: BRANCH  10  11
DOCKED: ATOM     11  O3  UNL     1      12.776   3.176  -5.395 +0.00 -0.00    -0.389 OA 
DOCKED: ATOM     12  H16 UNL     1      12.061   2.850  -4.823 +0.00 +0.00    +0.210 HD 
DOCKED: ENDBRANCH  10  11
DOCKED: BRANCH  10  13
DOCKED: ATOM     13  C8  UNL     1      13.929   2.895  -7.484 +0.00 +0.00    +0.129 C  
DOCKED: BRANCH  13  15
DOCKED: ATOM     14  N2  UNL     1      15.222   2.725  -5.453 +0.00 -0.00    -0.304 N  
DOCKED: ATOM     15  C7  UNL     1      15.147   3.344  -6.690 +0.00 +0.00    +0.216 C  
DOCKED: ATOM     16  O2  UNL     1      15.996   4.129  -7.096 +0.00 -0.00    -0.276 OA 
DOCKED: ATOM     17  H12 UNL     1      14.336   2.419  -5.065 +0.00 +0.00    +0.149 HD 
DOCKED: BRANCH  14  18
DOCKED: ATOM     18  C6  UNL     1      16.197   3.167  -4.456 +0.00 +0.00    +0.161 C  
DOCKED: BRANCH  18  20
DOCKED: ATOM     19  N1  UNL     1      14.513   4.932  -4.098 +0.00 -0.00    -0.314 N  
DOCKED: ATOM     20  C5  UNL     1      15.859   4.633  -4.118 +0.00 +0.00    +0.234 C  
DOCKED: ATOM     21  O1  UNL     1      16.735   5.478  -3.935 +0.00 -0.00    -0.274 OA 
DOCKED: ATOM     22  H10 UNL     1      13.860   4.158  -4.029 +0.00 +0.00    +0.149 HD 
DOCKED: BRANCH  19  23
DOCKED: ATOM     23  C4  UNL     1      14.043   6.247  -3.719 +0.00 +0.00    +0.104 C  
DOCKED: BRANCH  23  24
DOCKED: ATOM     24  C3  UNL     1      14.442   6.607  -2.288 +0.00 +0.00    +0.018 C  
DOCKED: BRANCH  24  26
DOCKED: ATOM     25  C1  UNL     1      13.956   5.249  -0.225 +0.00 +0.00    +0.004 C  
DOCKED: ATOM     26  C2  UNL     1      13.375   6.167  -1.289 +0.00 -0.00    -0.002 C  
DOCKED: ENDBRANCH  24  26
DOCKED: ENDBRANCH  23  24
DOCKED: ENDBRANCH  19  23
DOCKED: ENDBRANCH  18  20
DOCKED: BRANCH  18  27
DOCKED: ATOM     27  C30 UNL     1      16.176   2.244  -3.216 +0.00 +0.00    +0.012 C  
DOCKED: ATOM     28  C31 UNL     1      16.061   2.997  -1.886 +0.00 +0.00    +0.009 C  
DOCKED: ATOM     29  C32 UNL     1      17.385   1.306  -3.181 +0.00 +0.00    +0.009 C  
DOCKED: ENDBRANCH  18  27
DOCKED: ENDBRANCH  14  18
DOCKED: ENDBRANCH  13  15
DOCKED: ENDBRANCH  10  13
DOCKED: ENDBRANCH   5  10
DOCKED: ENDBRANCH   1   5
DOCKED: BRANCH   2  30
DOCKED: ATOM     30  C16 UNL     1      10.859  -0.675  -3.416 +0.00 +0.00    +0.160 C  
DOCKED: BRANCH  30  31
DOCKED: ATOM     31  N4  UNL     1      11.477   0.396  -2.650 +0.00 -0.00    -0.302 N  
DOCKED: ATOM     32  C20 UNL     1      11.332   0.487  -1.283 +0.00 +0.00    +0.234 C  
DOCKED: ATOM     33  O5  UNL     1      10.555  -0.228  -0.650 +0.00 -0.00    -0.274 OA 
DOCKED: ATOM     34  H36 UNL     1      12.294   0.823  -3.071 +0.00 +0.00    +0.150 HD 
DOCKED: BRANCH  32  35
DOCKED: ATOM     35  C21 UNL     1      12.249   1.532  -0.609 +0.00 +0.00    +0.165 C  
DOCKED: BRANCH  35  36
DOCKED: ATOM     36  N5  UNL     1      12.092   2.798  -1.308 +0.00 -0.00    -0.270 N  
DOCKED: ATOM     37  C22 UNL     1      12.561   2.994  -2.569 +0.00 +0.00    +0.401 C  
DOCKED: ATOM     38  O6  UNL     1      13.322   2.248  -3.163 +0.00 -0.00    -0.226 OA 
DOCKED: ATOM     39  H38 UNL     1      11.288   3.365  -1.073 +0.00 +0.00    +0.153 HD 
DOCKED: BRANCH  37  40
DOCKED: ATOM     40  O7  UNL     1      12.043   4.149  -3.044 +0.00 -0.00    -0.445 OA 
DOCKED: BRANCH  40  41
DOCKED: ATOM     41  C23 UNL     1      10.613   4.290  -3.244 +0.00 +0.00    +0.107 C  
DOCKED: ATOM     42  C24 UNL     1       9.971   5.129  -2.134 +0.00 +0.00    +0.055 C  
DOCKED: ATOM     43  C25 UNL     1      10.478   5.050  -4.574 +0.00 +0.00    +0.055 C  
DOCKED: ATOM     44  C26 UNL     1       9.934   2.923  -3.392 +0.00 +0.00    +0.055 C  
DOCKED: ENDBRANCH  40  41
DOCKED: ENDBRANCH  37  40
DOCKED: ENDBRANCH  35  36
DOCKED: BRANCH  35  45
DOCKED: ATOM     45  C27 UNL     1      11.940   1.647   0.897 +0.00 +0.00    +0.012 C  
DOCKED: ATOM     46  C28 UNL     1      10.691   2.484   1.198 +0.00 +0.00    +0.009 C  
DOCKED: ATOM     47  C29 UNL     1      13.142   2.209   1.662 +0.00 +0.00    +0.009 C  
DOCKED: ENDBRANCH  35  45
DOCKED: ENDBRANCH  32  35
DOCKED: ENDBRANCH  30  31
DOCKED: BRANCH  30  48
DOCKED: ATOM     48  C17 UNL     1       9.327  -0.583  -3.431 +0.00 +0.00    +0.042 C  
DOCKED: BRANCH  48  49
DOCKED: ATOM     49  C18 UNL     1       8.733  -0.551  -4.842 +0.00 +0.00    +0.071 C  
DOCKED: BRANCH  49  50
DOCKED: ATOM     50  S1  UNL     1       7.964   1.057  -5.224 +0.00 -0.00    -0.164 S  
DOCKED: ATOM     51  C19 UNL     1       9.104   1.607  -6.515 +0.00 +0.00    +0.084 C  
DOCKED: ENDBRANCH  49  50
DOCKED: ENDBRANCH  48  49
DOCKED: ENDBRANCH  30  48
DOCKED: ENDBRANCH   2  30
DOCKED: TORSDOF 23
DOCKED: TER
DOCKED: ENDMDL
________________________________________________________________________________


    FINAL DOCKED STATE:
    ________________________


Run:   4 / 20
Time taken for this run:   1.806s

DOCKED: MODEL        4
DOCKED: USER    Run = 4
DOCKED: USER
DOCKED: USER    Estimated Free Energy of Binding    =  +6.86 kcal/mol  [=(1)+(2)+(3)-(4)]
DOCKED: USER
DOCKED: USER    (1) Final Intermolecular Energy     =  +0.00 kcal/mol
DOCKED: USER        vdW + Hbond + desolv Energy     =  +0.00 kcal/mol
DOCKED: USER        Electrostatic Energy            =  +0.00 kcal/mol
DOCKED: USER        Moving Ligand-Fixed Receptor    =  +0.00 kcal/mol
DOCKED: USER        Moving Ligand-Moving Receptor   =  +0.00 kcal/mol
DOCKED: USER    (2) Final Total Internal Energy     = -13.70 kcal/mol
DOCKED: USER    (3) Torsional Free Energy           =  +6.86 kcal/mol
DOCKED: USER    (4) Unbound System's Energy         = -13.70 kcal/mol
DOCKED: USER
DOCKED: USER
DOCKED: REMARK  Name = ligands/ligand_44.pdb
DOCKED: REMARK  34 active torsions:
DOCKED: REMARK  status: ('A' for Active; 'I' for Inactive)
DOCKED: REMARK    1  A    between atoms: C1_1  and  C2_2
DOCKED: REMARK    2  A    between atoms: C2_2  and  C3_3
DOCKED: REMARK    3  A    between atoms: C3_3  and  C4_4
DOCKED: REMARK    4  A    between atoms: C4_4  and  N1_5
DOCKED: REMARK    5  A    between atoms: C5_6  and  C6_8
DOCKED: REMARK    6  A    between atoms: C6_8  and  N2_9
DOCKED: REMARK    7  A    between atoms: C6_8  and  C30_43
DOCKED: REMARK    8  A    between atoms: C7_10  and  C8_12
DOCKED: REMARK    9  A    between atoms: C8_12  and  C9_13
DOCKED: REMARK   10  A    between atoms: C9_13  and  O3_14
DOCKED: REMARK   11  A    between atoms: C9_13  and  C10_15
DOCKED: REMARK   12  A    between atoms: C10_15  and  C11_16
DOCKED: REMARK   13  A    between atoms: C10_15  and  N3_20
DOCKED: REMARK   14  A    between atoms: C11_16  and  C12_17
DOCKED: REMARK   15  A    between atoms: C12_17  and  C13_18
DOCKED: REMARK   16  A    between atoms: C12_17  and  C14_19
DOCKED: REMARK   17  A    between atoms: C15_21  and  C16_23
DOCKED: REMARK   18  A    between atoms: C16_23  and  C17_24
DOCKED: REMARK   19  A    between atoms: C16_23  and  N4_28
DOCKED: REMARK   20  A    between atoms: C17_24  and  C18_25
DOCKED: REMARK   21  A    between atoms: C18_25  and  S1_26
DOCKED: REMARK   22  A    between atoms: S1_26  and  C19_27
DOCKED: REMARK   23  A    between atoms: C20_29  and  C21_31
DOCKED: REMARK   24  A    between atoms: C21_31  and  N5_32
DOCKED: REMARK   25  A    between atoms: C21_31  and  C27_40
DOCKED: REMARK   26  A    between atoms: C22_33  and  O7_35
DOCKED: REMARK   27  A    between atoms: O7_35  and  C23_36
DOCKED: REMARK   28  A    between atoms: C23_36  and  C24_37
DOCKED: REMARK   29  A    between atoms: C23_36  and  C25_38
DOCKED: REMARK   30  A    between atoms: C23_36  and  C26_39
DOCKED: REMARK   31  A    between atoms: C27_40  and  C28_41
DOCKED: REMARK   32  A    between atoms: C27_40  and  C29_42
DOCKED: REMARK   33  A    between atoms: C30_43  and  C31_44
DOCKED: REMARK   34  A    between atoms: C30_43  and  C32_45
DOCKED: REMARK                            x       y       z     vdW  Elec       q    Type
DOCKED: REMARK                         _______ _______ _______ _____ _____    ______ ____
DOCKED: USER                              x       y       z     vdW  Elec       q    Type
DOCKED: USER                           _______ _______ _______ _____ _____    ______ ____
DOCKED: ROOT
DOCKED: ATOM      1  N3  UNL     1      13.783  -7.345  -0.908 +0.00 -0.00    -0.308 N  
DOCKED: ATOM      2  C15 UNL     1      14.565  -6.261  -1.250 +0.00 +0.00    +0.234 C  
DOCKED: ATOM      3  O4  UNL     1      14.942  -5.427  -0.428 +0.00 -0.00    -0.274 OA 
DOCKED: ATOM      4  H27 UNL     1      13.382  -7.902  -1.653 +0.00 +0.00    +0.149 HD 
DOCKED: ENDROOT
DOCKED: BRANCH   1   5
DOCKED: ATOM      5  C10 UNL     1      13.189  -7.479   0.433 +0.00 +0.00    +0.102 C  
DOCKED: BRANCH   5   6
DOCKED: ATOM      6  C11 UNL     1      14.052  -8.425   1.301 +0.00 +0.00    +0.028 C  
DOCKED: BRANCH   6   7
DOCKED: ATOM      7  C12 UNL     1      14.692  -9.650   0.607 +0.00 -0.00    -0.015 C  
DOCKED: ATOM      8  C13 UNL     1      14.303 -10.971   1.271 +0.00 +0.00    +0.007 C  
DOCKED: ATOM      9  C14 UNL     1      16.208  -9.557   0.454 +0.00 +0.00    +0.007 C  
DOCKED: ENDBRANCH   6   7
DOCKED: ENDBRANCH   5   6
DOCKED: BRANCH   5  10
DOCKED: ATOM     10  C9  UNL     1      11.709  -7.984   0.295 +0.00 +0.00    +0.143 C  
DOCKED: BRANCH  10  11
DOCKED: ATOM     11  O3  UNL     1      11.344  -8.397  -1.023 +0.00 -0.00    -0.389 OA 
DOCKED: ATOM     12  H16 UNL     1      11.684  -9.294  -1.173 +0.00 +0.00    +0.210 HD 
DOCKED: ENDBRANCH  10  11
DOCKED: BRANCH  10  13
DOCKED: ATOM     13  C8  UNL     1      11.310  -9.092   1.277 +0.00 +0.00    +0.129 C  
DOCKED: BRANCH  13  15
DOCKED: ATOM     14  N2  UNL     1      10.102 -10.683  -0.078 +0.00 -0.00    -0.304 N  
DOCKED: ATOM     15  C7  UNL     1       9.991  -9.786   0.971 +0.00 +0.00    +0.216 C  
DOCKED: ATOM     16  O2  UNL     1       8.950  -9.614   1.595 +0.00 -0.00    -0.276 OA 
DOCKED: ATOM     17  H12 UNL     1      10.840 -10.484  -0.745 +0.00 +0.00    +0.149 HD 
DOCKED: BRANCH  14  18
DOCKED: ATOM     18  C6  UNL     1       8.911 -11.299  -0.662 +0.00 +0.00    +0.161 C  
DOCKED: BRANCH  18  20
DOCKED: ATOM     19  N1  UNL     1       9.912 -10.106  -2.574 +0.00 -0.00    -0.314 N  
DOCKED: ATOM     20  C5  UNL     1       8.800 -10.776  -2.108 +0.00 +0.00    +0.234 C  
DOCKED: ATOM     21  O1  UNL     1       7.769 -10.901  -2.769 +0.00 -0.00    -0.274 OA 
DOCKED: ATOM     22  H10 UNL     1      10.785 -10.241  -2.075 +0.00 +0.00    +0.149 HD 
DOCKED: BRANCH  19  23
DOCKED: ATOM     23  C4  UNL     1       9.982  -9.629  -3.939 +0.00 +0.00    +0.104 C  
DOCKED: BRANCH  23  24
DOCKED: ATOM     24  C3  UNL     1       9.346  -8.248  -4.096 +0.00 +0.00    +0.018 C  
DOCKED: BRANCH  24  26
DOCKED: ATOM     25  C1  UNL     1       9.554  -6.378  -2.424 +0.00 +0.00    +0.004 C  
DOCKED: ATOM     26  C2  UNL     1       8.877  -7.699  -2.751 +0.00 -0.00    -0.002 C  
DOCKED: ENDBRANCH  24  26
DOCKED: ENDBRANCH  23  24
DOCKED: ENDBRANCH  19  23
DOCKED: ENDBRANCH  18  20
DOCKED: BRANCH  18  27
DOCKED: ATOM     27  C30 UNL     1       8.993 -12.840  -0.587 +0.00 +0.00    +0.012 C  
DOCKED: ATOM     28  C31 UNL     1       8.196 -13.557  -1.682 +0.00 +0.00    +0.009 C  
DOCKED: ATOM     29  C32 UNL     1       8.578 -13.369   0.789 +0.00 +0.00    +0.009 C  
DOCKED: ENDBRANCH  18  27
DOCKED: ENDBRANCH  14  18
DOCKED: ENDBRANCH  13  15
DOCKED: ENDBRANCH  10  13
DOCKED: ENDBRANCH   5  10
DOCKED: ENDBRANCH   1   5
DOCKED: BRANCH   2  30
DOCKED: ATOM     30  C16 UNL     1      14.966  -6.191  -2.738 +0.00 +0.00    +0.160 C  
DOCKED: BRANCH  30  31
DOCKED: ATOM     31  N4  UNL     1      14.876  -7.544  -3.263 +0.00 -0.00    -0.302 N  
DOCKED: ATOM     32  C20 UNL     1      15.816  -8.504  -2.961 +0.00 +0.00    +0.234 C  
DOCKED: ATOM     33  O5  UNL     1      16.862  -8.242  -2.366 +0.00 -0.00    -0.274 OA 
DOCKED: ATOM     34  H36 UNL     1      13.945  -7.855  -3.521 +0.00 +0.00    +0.150 HD 
DOCKED: BRANCH  32  35
DOCKED: ATOM     35  C21 UNL     1      15.434  -9.936  -3.397 +0.00 +0.00    +0.165 C  
DOCKED: BRANCH  35  36
DOCKED: ATOM     36  N5  UNL     1      14.589 -10.518  -2.366 +0.00 -0.00    -0.270 N  
DOCKED: ATOM     37  C22 UNL     1      13.247 -10.305  -2.323 +0.00 +0.00    +0.401 C  
DOCKED: ATOM     38  O6  UNL     1      12.643  -9.470  -2.977 +0.00 -0.00    -0.226 OA 
DOCKED: ATOM     39  H38 UNL     1      14.881 -11.400  -1.965 +0.00 +0.00    +0.153 HD 
DOCKED: BRANCH  37  40
DOCKED: ATOM     40  O7  UNL     1      12.705 -11.169  -1.437 +0.00 -0.00    -0.445 OA 
DOCKED: BRANCH  40  41
DOCKED: ATOM     41  C23 UNL     1      12.509 -12.563  -1.789 +0.00 +0.00    +0.107 C  
DOCKED: ATOM     42  C24 UNL     1      13.820 -13.221  -2.230 +0.00 +0.00    +0.055 C  
DOCKED: ATOM     43  C25 UNL     1      12.037 -13.233  -0.487 +0.00 +0.00    +0.055 C  
DOCKED: ATOM     44  C26 UNL     1      11.407 -12.721  -2.845 +0.00 +0.00    +0.055 C  
DOCKED: ENDBRANCH  40  41
DOCKED: ENDBRANCH  37  40
DOCKED: ENDBRANCH  35  36
DOCKED: BRANCH  35  45
DOCKED: ATOM     45  C27 UNL     1      14.755  -9.928  -4.782 +0.00 +0.00    +0.012 C  
DOCKED: ATOM     46  C28 UNL     1      14.353 -11.326  -5.268 +0.00 +0.00    +0.009 C  
DOCKED: ATOM     47  C29 UNL     1      15.646  -9.249  -5.826 +0.00 +0.00    +0.009 C  
DOCKED: ENDBRANCH  35  45
DOCKED: ENDBRANCH  32  35
DOCKED: ENDBRANCH  30  31
DOCKED: BRANCH  30  48
DOCKED: ATOM     48  C17 UNL     1      14.060  -5.205  -3.488 +0.00 +0.00    +0.042 C  
DOCKED: BRANCH  48  49
DOCKED: ATOM     49  C18 UNL     1      12.589  -5.630  -3.515 +0.00 +0.00    +0.071 C  
DOCKED: BRANCH  49  50
DOCKED: ATOM     50  S1  UNL     1      12.241  -6.805  -4.864 +0.00 -0.00    -0.164 S  
DOCKED: ATOM     51  C19 UNL     1      13.559  -6.318  -6.001 +0.00 +0.00    +0.084 C  
DOCKED: ENDBRANCH  49  50
DOCKED: ENDBRANCH  48  49
DOCKED: ENDBRANCH  30  48
DOCKED: ENDBRANCH   2  30
DOCKED: TORSDOF 23
DOCKED: TER
DOCKED: ENDMDL
________________________________________________________________________________


    FINAL DOCKED STATE:
    ________________________


Run:   5 / 20
Time taken for this run:   1.806s

DOCKED: MODEL        5
DOCKED: USER    Run = 5
DOCKED: USER
DOCKED: USER    Estimated Free Energy of Binding    =  +6.86 kcal/mol  [=(1)+(2)+(3)-(4)]
DOCKED: USER
DOCKED: USER    (1) Final Intermolecular Energy     =  +0.00 kcal/mol
DOCKED: USER        vdW + Hbond + desolv Energy     =  +0.00 kcal/mol
DOCKED: USER        Electrostatic Energy            =  +0.00 kcal/mol
DOCKED: USER        Moving Ligand-Fixed Receptor    =  +0.00 kcal/mol
DOCKED: USER        Moving Ligand-Moving Receptor   =  +0.00 kcal/mol
DOCKED: USER    (2) Final Total Internal Energy     = -13.47 kcal/mol
DOCKED: USER    (3) Torsional Free Energy           =  +6.86 kcal/mol
DOCKED: USER    (4) Unbound System's Energy         = -13.47 kcal/mol
DOCKED: USER
DOCKED: USER
DOCKED: REMARK  Name = ligands/ligand_44.pdb
DOCKED: REMARK  34 active torsions:
DOCKED: REMARK  status: ('A' for Active; 'I' for Inactive)
DOCKED: REMARK    1  A    between atoms: C1_1  and  C2_2
DOCKED: REMARK    2  A    between atoms: C2_2  and  C3_3
DOCKED: REMARK    3  A    between atoms: C3_3  and  C4_4
DOCKED: REMARK    4  A    between atoms: C4_4  and  N1_5
DOCKED: REMARK    5  A    between atoms: C5_6  and  C6_8
DOCKED: REMARK    6  A    between atoms: C6_8  and  N2_9
DOCKED: REMARK    7  A    between atoms: C6_8  and  C30_43
DOCKED: REMARK    8  A    between atoms: C7_10  and  C8_12
DOCKED: REMARK    9  A    between atoms: C8_12  and  C9_13
DOCKED: REMARK   10  A    between atoms: C9_13  and  O3_14
DOCKED: REMARK   11  A    between atoms: C9_13  and  C10_15
DOCKED: REMARK   12  A    between atoms: C10_15  and  C11_16
DOCKED: REMARK   13  A    between atoms: C10_15  and  N3_20
DOCKED: REMARK   14  A    between atoms: C11_16  and  C12_17
DOCKED: REMARK   15  A    between atoms: C12_17  and  C13_18
DOCKED: REMARK   16  A    between atoms: C12_17  and  C14_19
DOCKED: REMARK   17  A    between atoms: C15_21  and  C16_23
DOCKED: REMARK   18  A    between atoms: C16_23  and  C17_24
DOCKED: REMARK   19  A    between atoms: C16_23  and  N4_28
DOCKED: REMARK   20  A    between atoms: C17_24  and  C18_25
DOCKED: REMARK   21  A    between atoms: C18_25  and  S1_26
DOCKED: REMARK   22  A    between atoms: S1_26  and  C19_27
DOCKED: REMARK   23  A    between atoms: C20_29  and  C21_31
DOCKED: REMARK   24  A    between atoms: C21_31  and  N5_32
DOCKED: REMARK   25  A    between atoms: C21_31  and  C27_40
DOCKED: REMARK   26  A    between atoms: C22_33  and  O7_35
DOCKED: REMARK   27  A    between atoms: O7_35  and  C23_36
DOCKED: REMARK   28  A    between atoms: C23_36  and  C24_37
DOCKED: REMARK   29  A    between atoms: C23_36  and  C25_38
DOCKED: REMARK   30  A    between atoms: C23_36  and  C26_39
DOCKED: REMARK   31  A    between atoms: C27_40  and  C28_41
DOCKED: REMARK   32  A    between atoms: C27_40  and  C29_42
DOCKED: REMARK   33  A    between atoms: C30_43  and  C31_44
DOCKED: REMARK   34  A    between atoms: C30_43  and  C32_45
DOCKED: REMARK                            x       y       z     vdW  Elec       q    Type
DOCKED: REMARK                         _______ _______ _______ _____ _____    ______ ____
DOCKED: USER                              x       y       z     vdW  Elec       q    Type
DOCKED: USER                           _______ _______ _______ _____ _____    ______ ____
DOCKED: ROOT
DOCKED: ATOM      1  N3  UNL     1      15.624  -8.617  -6.831 +0.00 -0.00    -0.308 N  
DOCKED: ATOM      2  C15 UNL     1      15.153  -9.660  -7.603 +0.00 +0.00    +0.234 C  
DOCKED: ATOM      3  O4  UNL     1      15.898 -10.425  -8.213 +0.00 -0.00    -0.274 OA 
DOCKED: ATOM      4  H27 UNL     1      14.957  -7.938  -6.486 +0.00 +0.00    +0.149 HD 
DOCKED: ENDROOT
DOCKED: BRANCH   1   5
DOCKED: ATOM      5  C10 UNL     1      17.045  -8.234  -6.833 +0.00 +0.00    +0.102 C  
DOCKED: BRANCH   5   6
DOCKED: ATOM      6  C11 UNL     1      17.750  -8.813  -5.583 +0.00 +0.00    +0.028 C  
DOCKED: BRANCH   6   7
DOCKED: ATOM      7  C12 UNL     1      17.011  -8.705  -4.229 +0.00 -0.00    -0.015 C  
DOCKED: ATOM      8  C13 UNL     1      17.935  -8.279  -3.087 +0.00 +0.00    +0.007 C  
DOCKED: ATOM      9  C14 UNL     1      16.232  -9.960  -3.844 +0.00 +0.00    +0.007 C  
DOCKED: ENDBRANCH   6   7
DOCKED: ENDBRANCH   5   6
DOCKED: BRANCH   5  10
DOCKED: ATOM     10  C9  UNL     1      17.159  -6.670  -6.907 +0.00 +0.00    +0.143 C  
DOCKED: BRANCH  10  11
DOCKED: ATOM     11  O3  UNL     1      15.918  -5.977  -6.752 +0.00 -0.00    -0.389 OA 
DOCKED: ATOM     12  H16 UNL     1      15.384  -6.442  -6.088 +0.00 +0.00    +0.210 HD 
DOCKED: ENDBRANCH  10  11
DOCKED: BRANCH  10  13
DOCKED: ATOM     13  C8  UNL     1      18.182  -6.049  -5.949 +0.00 +0.00    +0.129 C  
DOCKED: BRANCH  13  15
DOCKED: ATOM     14  N2  UNL     1      16.616  -5.293  -4.275 +0.00 -0.00    -0.304 N  
DOCKED: ATOM     15  C7  UNL     1      17.660  -4.902  -5.097 +0.00 +0.00    +0.216 C  
DOCKED: ATOM     16  O2  UNL     1      18.123  -3.767  -5.094 +0.00 -0.00    -0.276 OA 
DOCKED: ATOM     17  H12 UNL     1      16.075  -6.085  -4.605 +0.00 +0.00    +0.149 HD 
DOCKED: BRANCH  14  18
DOCKED: ATOM     18  C6  UNL     1      15.841  -4.301  -3.530 +0.00 +0.00    +0.161 C  
DOCKED: BRANCH  18  20
DOCKED: ATOM     19  N1  UNL     1      14.627  -3.986  -5.654 +0.00 -0.00    -0.314 N  
DOCKED: ATOM     20  C5  UNL     1      15.205  -3.357  -4.571 +0.00 +0.00    +0.234 C  
DOCKED: ATOM     21  O1  UNL     1      15.265  -2.132  -4.462 +0.00 -0.00    -0.274 OA 
DOCKED: ATOM     22  H10 UNL     1      14.414  -4.973  -5.565 +0.00 +0.00    +0.149 HD 
DOCKED: BRANCH  19  23
DOCKED: ATOM     23  C4  UNL     1      13.923  -3.232  -6.670 +0.00 +0.00    +0.104 C  
DOCKED: BRANCH  23  24
DOCKED: ATOM     24  C3  UNL     1      14.610  -3.327  -8.032 +0.00 +0.00    +0.018 C  
DOCKED: BRANCH  24  26
DOCKED: ATOM     25  C1  UNL     1      16.884  -3.889  -8.955 +0.00 +0.00    +0.004 C  
DOCKED: ATOM     26  C2  UNL     1      16.114  -3.097  -7.910 +0.00 -0.00    -0.002 C  
DOCKED: ENDBRANCH  24  26
DOCKED: ENDBRANCH  23  24
DOCKED: ENDBRANCH  19  23
DOCKED: ENDBRANCH  18  20
DOCKED: BRANCH  18  27
DOCKED: ATOM     27  C30 UNL     1      14.794  -4.985  -2.623 +0.00 +0.00    +0.012 C  
DOCKED: ATOM     28  C31 UNL     1      14.254  -4.081  -1.509 +0.00 +0.00    +0.009 C  
DOCKED: ATOM     29  C32 UNL     1      15.324  -6.291  -2.023 +0.00 +0.00    +0.009 C  
DOCKED: ENDBRANCH  18  27
DOCKED: ENDBRANCH  14  18
DOCKED: ENDBRANCH  13  15
DOCKED: ENDBRANCH  10  13
DOCKED: ENDBRANCH   5  10
DOCKED: ENDBRANCH   1   5
DOCKED: BRANCH   2  30
DOCKED: ATOM     30  C16 UNL     1      13.619  -9.820  -7.616 +0.00 +0.00    +0.160 C  
DOCKED: BRANCH  30  31
DOCKED: ATOM     31  N4  UNL     1      13.125  -9.239  -6.377 +0.00 -0.00    -0.302 N  
DOCKED: ATOM     32  C20 UNL     1      13.045  -9.971  -5.214 +0.00 +0.00    +0.234 C  
DOCKED: ATOM     33  O5  UNL     1      13.235 -11.187  -5.181 +0.00 -0.00    -0.274 OA 
DOCKED: ATOM     34  H36 UNL     1      13.207  -8.231  -6.301 +0.00 +0.00    +0.150 HD 
DOCKED: BRANCH  32  35
DOCKED: ATOM     35  C21 UNL     1      12.736  -9.136  -3.951 +0.00 +0.00    +0.165 C  
DOCKED: BRANCH  35  36
DOCKED: ATOM     36  N5  UNL     1      12.295  -7.815  -4.371 +0.00 -0.00    -0.270 N  
DOCKED: ATOM     37  C22 UNL     1      13.156  -6.887  -4.869 +0.00 +0.00    +0.401 C  
DOCKED: ATOM     38  O6  UNL     1      14.374  -6.960  -4.827 +0.00 -0.00    -0.226 OA 
DOCKED: ATOM     39  H38 UNL     1      11.347  -7.725  -4.714 +0.00 +0.00    +0.153 HD 
DOCKED: BRANCH  37  40
DOCKED: ATOM     40  O7  UNL     1      12.434  -5.882  -5.411 +0.00 -0.00    -0.445 OA 
DOCKED: BRANCH  40  41
DOCKED: ATOM     41  C23 UNL     1      11.308  -5.310  -4.696 +0.00 +0.00    +0.107 C  
DOCKED: ATOM     42  C24 UNL     1      11.539  -5.327  -3.181 +0.00 +0.00    +0.055 C  
DOCKED: ATOM     43  C25 UNL     1      11.247  -3.847  -5.167 +0.00 +0.00    +0.055 C  
DOCKED: ATOM     44  C26 UNL     1       9.996  -6.002  -5.082 +0.00 +0.00    +0.055 C  
DOCKED: ENDBRANCH  40  41
DOCKED: ENDBRANCH  37  40
DOCKED: ENDBRANCH  35  36
DOCKED: BRANCH  35  45
DOCKED: ATOM     45  C27 UNL     1      11.697  -9.848  -3.060 +0.00 +0.00    +0.012 C  
DOCKED: ATOM     46  C28 UNL     1      10.344 -10.054  -3.751 +0.00 +0.00    +0.009 C  
DOCKED: ATOM     47  C29 UNL     1      11.501  -9.096  -1.740 +0.00 +0.00    +0.009 C  
DOCKED: ENDBRANCH  35  45
DOCKED: ENDBRANCH  32  35
DOCKED: ENDBRANCH  30  31
DOCKED: BRANCH  30  48
DOCKED: ATOM     48  C17 UNL     1      13.023  -9.150  -8.861 +0.00 +0.00    +0.042 C  
DOCKED: BRANCH  48  49
DOCKED: ATOM     49  C18 UNL     1      12.158  -7.928  -8.541 +0.00 +0.00    +0.071 C  
DOCKED: BRANCH  49  50
DOCKED: ATOM     50  S1  UNL     1      13.159  -6.422  -8.312 +0.00 -0.00    -0.164 S  
DOCKED: ATOM     51  C19 UNL     1      14.497  -6.801  -9.467 +0.00 +0.00    +0.084 C  
DOCKED: ENDBRANCH  49  50
DOCKED: ENDBRANCH  48  49
DOCKED: ENDBRANCH  30  48
DOCKED: ENDBRANCH   2  30
DOCKED: TORSDOF 23
DOCKED: TER
DOCKED: ENDMDL
________________________________________________________________________________


    FINAL DOCKED STATE:
    ________________________


Run:   6 / 20
Time taken for this run:   1.806s

DOCKED: MODEL        6
DOCKED: USER    Run = 6
DOCKED: USER
DOCKED: USER    Estimated Free Energy of Binding    =  +6.86 kcal/mol  [=(1)+(2)+(3)-(4)]
DOCKED: USER
DOCKED: USER    (1) Final Intermolecular Energy     =  +0.00 kcal/mol
DOCKED: USER        vdW + Hbond + desolv Energy     =  +0.00 kcal/mol
DOCKED: USER        Electrostatic Energy            =  +0.00 kcal/mol
DOCKED: USER        Moving Ligand-Fixed Receptor    =  +0.00 kcal/mol
DOCKED: USER        Moving Ligand-Moving Receptor   =  +0.00 kcal/mol
DOCKED: USER    (2) Final Total Internal Energy     = -13.77 kcal/mol
DOCKED: USER    (3) Torsional Free Energy           =  +6.86 kcal/mol
DOCKED: USER    (4) Unbound System's Energy         = -13.77 kcal/mol
DOCKED: USER
DOCKED: USER
DOCKED: REMARK  Name = ligands/ligand_44.pdb
DOCKED: REMARK  34 active torsions:
DOCKED: REMARK  status: ('A' for Active; 'I' for Inactive)
DOCKED: REMARK    1  A    between atoms: C1_1  and  C2_2
DOCKED: REMARK    2  A    between atoms: C2_2  and  C3_3
DOCKED: REMARK    3  A    between atoms: C3_3  and  C4_4
DOCKED: REMARK    4  A    between atoms: C4_4  and  N1_5
DOCKED: REMARK    5  A    between atoms: C5_6  and  C6_8
DOCKED: REMARK    6  A    between atoms: C6_8  and  N2_9
DOCKED: REMARK    7  A    between atoms: C6_8  and  C30_43
DOCKED: REMARK    8  A    between atoms: C7_10  and  C8_12
DOCKED: REMARK    9  A    between atoms: C8_12  and  C9_13
DOCKED: REMARK   10  A    between atoms: C9_13  and  O3_14
DOCKED: REMARK   11  A    between atoms: C9_13  and  C10_15
DOCKED: REMARK   12  A    between atoms: C10_15  and  C11_16
DOCKED: REMARK   13  A    between atoms: C10_15  and  N3_20
DOCKED: REMARK   14  A    between atoms: C11_16  and  C12_17
DOCKED: REMARK   15  A    between atoms: C12_17  and  C13_18
DOCKED: REMARK   16  A    between atoms: C12_17  and  C14_19
DOCKED: REMARK   17  A    between atoms: C15_21  and  C16_23
DOCKED: REMARK   18  A    between atoms: C16_23  and  C17_24
DOCKED: REMARK   19  A    between atoms: C16_23  and  N4_28
DOCKED: REMARK   20  A    between atoms: C17_24  and  C18_25
DOCKED: REMARK   21  A    between atoms: C18_25  and  S1_26
DOCKED: REMARK   22  A    between atoms: S1_26  and  C19_27
DOCKED: REMARK   23  A    between atoms: C20_29  and  C21_31
DOCKED: REMARK   24  A    between atoms: C21_31  and  N5_32
DOCKED: REMARK   25  A    between atoms: C21_31  and  C27_40
DOCKED: REMARK   26  A    between atoms: C22_33  and  O7_35
DOCKED: REMARK   27  A    between atoms: O7_35  and  C23_36
DOCKED: REMARK   28  A    between atoms: C23_36  and  C24_37
DOCKED: REMARK   29  A    between atoms: C23_36  and  C25_38
DOCKED: REMARK   30  A    between atoms: C23_36  and  C26_39
DOCKED: REMARK   31  A    between atoms: C27_40  and  C28_41
DOCKED: REMARK   32  A    between atoms: C27_40  and  C29_42
DOCKED: REMARK   33  A    between atoms: C30_43  and  C31_44
DOCKED: REMARK   34  A    between atoms: C30_43  and  C32_45
DOCKED: REMARK                            x       y       z     vdW  Elec       q    Type
DOCKED: REMARK                         _______ _______ _______ _____ _____    ______ ____
DOCKED: USER                              x       y       z     vdW  Elec       q    Type
DOCKED: USER                           _______ _______ _______ _____ _____    ______ ____
DOCKED: ROOT
DOCKED: ATOM      1  N3  UNL     1       5.206  -3.345  -6.224 +0.00 -0.00    -0.308 N  
DOCKED: ATOM      2  C15 UNL     1       5.853  -4.410  -5.631 +0.00 +0.00    +0.234 C  
DOCKED: ATOM      3  O4  UNL     1       7.060  -4.609  -5.757 +0.00 -0.00    -0.274 OA 
DOCKED: ATOM      4  H27 UNL     1       4.194  -3.329  -6.207 +0.00 +0.00    +0.149 HD 
DOCKED: ENDROOT
DOCKED: BRANCH   1   5
DOCKED: ATOM      5  C10 UNL     1       5.882  -2.475  -7.201 +0.00 +0.00    +0.102 C  
DOCKED: BRANCH   5   6
DOCKED: ATOM      6  C11 UNL     1       6.321  -1.157  -6.521 +0.00 +0.00    +0.028 C  
DOCKED: BRANCH   6   7
DOCKED: ATOM      7  C12 UNL     1       5.397  -0.575  -5.425 +0.00 -0.00    -0.015 C  
DOCKED: ATOM      8  C13 UNL     1       5.025   0.885  -5.686 +0.00 +0.00    +0.007 C  
DOCKED: ATOM      9  C14 UNL     1       5.934  -0.741  -4.006 +0.00 +0.00    +0.007 C  
DOCKED: ENDBRANCH   6   7
DOCKED: ENDBRANCH   5   6
DOCKED: BRANCH   5  10
DOCKED: ATOM     10  C9  UNL     1       4.925  -2.225  -8.420 +0.00 +0.00    +0.143 C  
DOCKED: BRANCH  10  11
DOCKED: ATOM     11  O3  UNL     1       3.577  -2.651  -8.212 +0.00 -0.00    -0.389 OA 
DOCKED: ATOM     12  H16 UNL     1       3.121  -1.987  -7.670 +0.00 +0.00    +0.210 HD 
DOCKED: ENDBRANCH  10  11
DOCKED: BRANCH  10  13
DOCKED: ATOM     13  C8  UNL     1       4.902  -0.782  -8.938 +0.00 +0.00    +0.129 C  
DOCKED: BRANCH  13  15
DOCKED: ATOM     14  N2  UNL     1       2.555  -0.300  -9.229 +0.00 -0.00    -0.304 N  
DOCKED: ATOM     15  C7  UNL     1       3.762  -0.453  -9.890 +0.00 +0.00    +0.216 C  
DOCKED: ATOM     16  O2  UNL     1       3.885  -0.297 -11.100 +0.00 -0.00    -0.276 OA 
DOCKED: ATOM     17  H12 UNL     1       2.472  -0.802  -8.351 +0.00 +0.00    +0.149 HD 
DOCKED: BRANCH  14  18
DOCKED: ATOM     18  C6  UNL     1       1.303  -0.185  -9.977 +0.00 +0.00    +0.161 C  
DOCKED: BRANCH  18  20
DOCKED: ATOM     19  N1  UNL     1       0.958  -2.236  -8.652 +0.00 -0.00    -0.314 N  
DOCKED: ATOM     20  C5  UNL     1       0.499  -1.473  -9.705 +0.00 +0.00    +0.234 C  
DOCKED: ATOM     21  O1  UNL     1      -0.446  -1.813 -10.416 +0.00 -0.00    -0.274 OA 
DOCKED: ATOM     22  H10 UNL     1       1.577  -1.791  -7.983 +0.00 +0.00    +0.149 HD 
DOCKED: BRANCH  19  23
DOCKED: ATOM     23  C4  UNL     1       0.255  -3.429  -8.230 +0.00 +0.00    +0.104 C  
DOCKED: BRANCH  23  24
DOCKED: ATOM     24  C3  UNL     1       0.477  -4.595  -9.193 +0.00 +0.00    +0.018 C  
DOCKED: BRANCH  24  26
DOCKED: ATOM     25  C1  UNL     1       2.374  -4.194 -10.798 +0.00 +0.00    +0.004 C  
DOCKED: ATOM     26  C2  UNL     1       1.963  -4.808  -9.470 +0.00 -0.00    -0.002 C  
DOCKED: ENDBRANCH  24  26
DOCKED: ENDBRANCH  23  24
DOCKED: ENDBRANCH  19  23
DOCKED: ENDBRANCH  18  20
DOCKED: BRANCH  18  27
DOCKED: ATOM     27  C30 UNL     1       0.537   1.096  -9.579 +0.00 +0.00    +0.012 C  
DOCKED: ATOM     28  C31 UNL     1      -0.942   1.084  -9.982 +0.00 +0.00    +0.009 C  
DOCKED: ATOM     29  C32 UNL     1       1.214   2.359 -10.121 +0.00 +0.00    +0.009 C  
DOCKED: ENDBRANCH  18  27
DOCKED: ENDBRANCH  14  18
DOCKED: ENDBRANCH  13  15
DOCKED: ENDBRANCH  10  13
DOCKED: ENDBRANCH   5  10
DOCKED: ENDBRANCH   1   5
DOCKED: BRANCH   2  30
DOCKED: ATOM     30  C16 UNL     1       4.955  -5.317  -4.765 +0.00 +0.00    +0.160 C  
DOCKED: BRANCH  30  31
DOCKED: ATOM     31  N4  UNL     1       3.787  -4.530  -4.401 +0.00 -0.00    -0.302 N  
DOCKED: ATOM     32  C20 UNL     1       3.833  -3.581  -3.404 +0.00 +0.00    +0.234 C  
DOCKED: ATOM     33  O5  UNL     1       4.806  -3.448  -2.661 +0.00 -0.00    -0.274 OA 
DOCKED: ATOM     34  H36 UNL     1       3.085  -4.426  -5.125 +0.00 +0.00    +0.150 HD 
DOCKED: BRANCH  32  35
DOCKED: ATOM     35  C21 UNL     1       2.584  -2.677  -3.321 +0.00 +0.00    +0.165 C  
DOCKED: BRANCH  35  36
DOCKED: ATOM     36  N5  UNL     1       2.712  -1.626  -4.319 +0.00 -0.00    -0.270 N  
DOCKED: ATOM     37  C22 UNL     1       2.336  -1.806  -5.614 +0.00 +0.00    +0.401 C  
DOCKED: ATOM     38  O6  UNL     1       2.061  -2.879  -6.127 +0.00 -0.00    -0.226 OA 
DOCKED: ATOM     39  H38 UNL     1       2.651  -0.668  -4.001 +0.00 +0.00    +0.153 HD 
DOCKED: BRANCH  37  40
DOCKED: ATOM     40  O7  UNL     1       2.322  -0.601  -6.226 +0.00 -0.00    -0.445 OA 
DOCKED: BRANCH  40  41
DOCKED: ATOM     41  C23 UNL     1       1.230   0.328  -6.005 +0.00 +0.00    +0.107 C  
DOCKED: ATOM     42  C24 UNL     1       1.052   0.641  -4.516 +0.00 +0.00    +0.055 C  
DOCKED: ATOM     43  C25 UNL     1       1.659   1.616  -6.729 +0.00 +0.00    +0.055 C  
DOCKED: ATOM     44  C26 UNL     1      -0.069  -0.179  -6.642 +0.00 +0.00    +0.055 C  
DOCKED: ENDBRANCH  40  41
DOCKED: ENDBRANCH  37  40
DOCKED: ENDBRANCH  35  36
DOCKED: BRANCH  35  45
DOCKED: ATOM     45  C27 UNL     1       1.293  -3.502  -3.497 +0.00 +0.00    +0.012 C  
DOCKED: ATOM     46  C28 UNL     1       0.016  -2.660  -3.398 +0.00 +0.00    +0.009 C  
DOCKED: ATOM     47  C29 UNL     1       1.238  -4.654  -2.488 +0.00 +0.00    +0.009 C  
DOCKED: ENDBRANCH  35  45
DOCKED: ENDBRANCH  32  35
DOCKED: ENDBRANCH  30  31
DOCKED: BRANCH  30  48
DOCKED: ATOM     48  C17 UNL     1       4.590  -6.595  -5.532 +0.00 +0.00    +0.042 C  
DOCKED: BRANCH  48  49
DOCKED: ATOM     49  C18 UNL     1       3.756  -6.334  -6.790 +0.00 +0.00    +0.071 C  
DOCKED: BRANCH  49  50
DOCKED: ATOM     50  S1  UNL     1       1.982  -6.154  -6.408 +0.00 -0.00    -0.164 S  
DOCKED: ATOM     51  C19 UNL     1       1.907  -7.211  -4.943 +0.00 +0.00    +0.084 C  
DOCKED: ENDBRANCH  49  50
DOCKED: ENDBRANCH  48  49
DOCKED: ENDBRANCH  30  48
DOCKED: ENDBRANCH   2  30
DOCKED: TORSDOF 23
DOCKED: TER
DOCKED: ENDMDL
________________________________________________________________________________


    FINAL DOCKED STATE:
    ________________________


Run:   7 / 20
Time taken for this run:   1.806s

DOCKED: MODEL        7
DOCKED: USER    Run = 7
DOCKED: USER
DOCKED: USER    Estimated Free Energy of Binding    =  +6.86 kcal/mol  [=(1)+(2)+(3)-(4)]
DOCKED: USER
DOCKED: USER    (1) Final Intermolecular Energy     =  +0.00 kcal/mol
DOCKED: USER        vdW + Hbond + desolv Energy     =  +0.00 kcal/mol
DOCKED: USER        Electrostatic Energy            =  +0.00 kcal/mol
DOCKED: USER        Moving Ligand-Fixed Receptor    =  +0.00 kcal/mol
DOCKED: USER        Moving Ligand-Moving Receptor   =  +0.00 kcal/mol
DOCKED: USER    (2) Final Total Internal Energy     = -13.00 kcal/mol
DOCKED: USER    (3) Torsional Free Energy           =  +6.86 kcal/mol
DOCKED: USER    (4) Unbound System's Energy         = -13.00 kcal/mol
DOCKED: USER
DOCKED: USER
DOCKED: REMARK  Name = ligands/ligand_44.pdb
DOCKED: REMARK  34 active torsions:
DOCKED: REMARK  status: ('A' for Active; 'I' for Inactive)
DOCKED: REMARK    1  A    between atoms: C1_1  and  C2_2
DOCKED: REMARK    2  A    between atoms: C2_2  and  C3_3
DOCKED: REMARK    3  A    between atoms: C3_3  and  C4_4
DOCKED: REMARK    4  A    between atoms: C4_4  and  N1_5
DOCKED: REMARK    5  A    between atoms: C5_6  and  C6_8
DOCKED: REMARK    6  A    between atoms: C6_8  and  N2_9
DOCKED: REMARK    7  A    between atoms: C6_8  and  C30_43
DOCKED: REMARK    8  A    between atoms: C7_10  and  C8_12
DOCKED: REMARK    9  A    between atoms: C8_12  and  C9_13
DOCKED: REMARK   10  A    between atoms: C9_13  and  O3_14
DOCKED: REMARK   11  A    between atoms: C9_13  and  C10_15
DOCKED: REMARK   12  A    between atoms: C10_15  and  C11_16
DOCKED: REMARK   13  A    between atoms: C10_15  and  N3_20
DOCKED: REMARK   14  A    between atoms: C11_16  and  C12_17
DOCKED: REMARK   15  A    between atoms: C12_17  and  C13_18
DOCKED: REMARK   16  A    between atoms: C12_17  and  C14_19
DOCKED: REMARK   17  A    between atoms: C15_21  and  C16_23
DOCKED: REMARK   18  A    between atoms: C16_23  and  C17_24
DOCKED: REMARK   19  A    between atoms: C16_23  and  N4_28
DOCKED: REMARK   20  A    between atoms: C17_24  and  C18_25
DOCKED: REMARK   21  A    between atoms: C18_25  and  S1_26
DOCKED: REMARK   22  A    between atoms: S1_26  and  C19_27
DOCKED: REMARK   23  A    between atoms: C20_29  and  C21_31
DOCKED: REMARK   24  A    between atoms: C21_31  and  N5_32
DOCKED: REMARK   25  A    between atoms: C21_31  and  C27_40
DOCKED: REMARK   26  A    between atoms: C22_33  and  O7_35
DOCKED: REMARK   27  A    between atoms: O7_35  and  C23_36
DOCKED: REMARK   28  A    between atoms: C23_36  and  C24_37
DOCKED: REMARK   29  A    between atoms: C23_36  and  C25_38
DOCKED: REMARK   30  A    between atoms: C23_36  and  C26_39
DOCKED: REMARK   31  A    between atoms: C27_40  and  C28_41
DOCKED: REMARK   32  A    between atoms: C27_40  and  C29_42
DOCKED: REMARK   33  A    between atoms: C30_43  and  C31_44
DOCKED: REMARK   34  A    between atoms: C30_43  and  C32_45
DOCKED: REMARK                            x       y       z     vdW  Elec       q    Type
DOCKED: REMARK                         _______ _______ _______ _____ _____    ______ ____
DOCKED: USER                              x       y       z     vdW  Elec       q    Type
DOCKED: USER                           _______ _______ _______ _____ _____    ______ ____
DOCKED: ROOT
DOCKED: ATOM      1  N3  UNL     1      11.905  -4.640   3.513 +0.00 -0.00    -0.308 N  
DOCKED: ATOM      2  C15 UNL     1      11.569  -4.760   2.179 +0.00 +0.00    +0.234 C  
DOCKED: ATOM      3  O4  UNL     1      11.328  -3.789   1.464 +0.00 -0.00    -0.274 OA 
DOCKED: ATOM      4  H27 UNL     1      11.937  -5.481   4.076 +0.00 +0.00    +0.149 HD 
DOCKED: ENDROOT
DOCKED: BRANCH   1   5
DOCKED: ATOM      5  C10 UNL     1      11.818  -3.352   4.220 +0.00 +0.00    +0.102 C  
DOCKED: BRANCH   5   6
DOCKED: ATOM      6  C11 UNL     1      12.769  -2.324   3.563 +0.00 +0.00    +0.028 C  
DOCKED: BRANCH   6   7
DOCKED: ATOM      7  C12 UNL     1      14.091  -2.854   2.960 +0.00 -0.00    -0.015 C  
DOCKED: ATOM      8  C13 UNL     1      15.323  -2.157   3.540 +0.00 +0.00    +0.007 C  
DOCKED: ATOM      9  C14 UNL     1      14.134  -2.825   1.434 +0.00 +0.00    +0.007 C  
DOCKED: ENDBRANCH   6   7
DOCKED: ENDBRANCH   5   6
DOCKED: BRANCH   5  10
DOCKED: ATOM     10  C9  UNL     1      12.141  -3.573   5.740 +0.00 +0.00    +0.143 C  
DOCKED: BRANCH  10  11
DOCKED: ATOM     11  O3  UNL     1      11.929  -4.909   6.203 +0.00 -0.00    -0.389 OA 
DOCKED: ATOM     12  H16 UNL     1      12.222  -5.527   5.513 +0.00 +0.00    +0.210 HD 
DOCKED: ENDBRANCH  10  11
DOCKED: BRANCH  10  13
DOCKED: ATOM     13  C8  UNL     1      13.542  -3.127   6.175 +0.00 +0.00    +0.129 C  
DOCKED: BRANCH  13  15
DOCKED: ATOM     14  N2  UNL     1      14.438  -5.069   5.055 +0.00 -0.00    -0.304 N  
DOCKED: ATOM     15  C7  UNL     1      14.611  -4.208   6.127 +0.00 +0.00    +0.216 C  
DOCKED: ATOM     16  O2  UNL     1      15.548  -4.300   6.912 +0.00 -0.00    -0.276 OA 
DOCKED: ATOM     17  H12 UNL     1      13.486  -5.156   4.717 +0.00 +0.00    +0.149 HD 
DOCKED: BRANCH  14  18
DOCKED: ATOM     18  C6  UNL     1      15.232  -6.292   4.945 +0.00 +0.00    +0.161 C  
DOCKED: BRANCH  18  20
DOCKED: ATOM     19  N1  UNL     1      14.833  -8.661   4.390 +0.00 -0.00    -0.314 N  
DOCKED: ATOM     20  C5  UNL     1      14.246  -7.441   4.655 +0.00 +0.00    +0.234 C  
DOCKED: ATOM     21  O1  UNL     1      13.029  -7.260   4.609 +0.00 -0.00    -0.274 OA 
DOCKED: ATOM     22  H10 UNL     1      15.800  -8.787   4.668 +0.00 +0.00    +0.149 HD 
DOCKED: BRANCH  19  23
DOCKED: ATOM     23  C4  UNL     1      14.031  -9.848   4.178 +0.00 +0.00    +0.104 C  
DOCKED: BRANCH  23  24
DOCKED: ATOM     24  C3  UNL     1      13.864 -10.168   2.693 +0.00 +0.00    +0.018 C  
DOCKED: BRANCH  24  26
DOCKED: ATOM     25  C1  UNL     1      14.046  -8.412   0.897 +0.00 +0.00    +0.004 C  
DOCKED: ATOM     26  C2  UNL     1      14.811  -9.331   1.837 +0.00 -0.00    -0.002 C  
DOCKED: ENDBRANCH  24  26
DOCKED: ENDBRANCH  23  24
DOCKED: ENDBRANCH  19  23
DOCKED: ENDBRANCH  18  20
DOCKED: BRANCH  18  27
DOCKED: ATOM     27  C30 UNL     1      16.322  -6.147   3.859 +0.00 +0.00    +0.012 C  
DOCKED: ATOM     28  C31 UNL     1      17.375  -5.080   4.176 +0.00 +0.00    +0.009 C  
DOCKED: ATOM     29  C32 UNL     1      15.719  -5.888   2.475 +0.00 +0.00    +0.009 C  
DOCKED: ENDBRANCH  18  27
DOCKED: ENDBRANCH  14  18
DOCKED: ENDBRANCH  13  15
DOCKED: ENDBRANCH  10  13
DOCKED: ENDBRANCH   5  10
DOCKED: ENDBRANCH   1   5
DOCKED: BRANCH   2  30
DOCKED: ATOM     30  C16 UNL     1      11.553  -6.205   1.639 +0.00 +0.00    +0.160 C  
DOCKED: BRANCH  30  31
DOCKED: ATOM     31  N4  UNL     1      11.059  -7.051   2.714 +0.00 -0.00    -0.302 N  
DOCKED: ATOM     32  C20 UNL     1      10.918  -8.412   2.560 +0.00 +0.00    +0.234 C  
DOCKED: ATOM     33  O5  UNL     1      11.051  -8.973   1.472 +0.00 -0.00    -0.274 OA 
DOCKED: ATOM     34  H36 UNL     1      11.186  -6.689   3.652 +0.00 +0.00    +0.150 HD 
DOCKED: BRANCH  32  35
DOCKED: ATOM     35  C21 UNL     1      10.619  -9.178   3.868 +0.00 +0.00    +0.165 C  
DOCKED: BRANCH  35  36
DOCKED: ATOM     36  N5  UNL     1       9.475  -8.553   4.514 +0.00 -0.00    -0.270 N  
DOCKED: ATOM     37  C22 UNL     1       9.548  -7.321   5.084 +0.00 +0.00    +0.401 C  
DOCKED: ATOM     38  O6  UNL     1      10.578  -6.706   5.308 +0.00 -0.00    -0.226 OA 
DOCKED: ATOM     39  H38 UNL     1       8.555  -8.797   4.173 +0.00 +0.00    +0.153 HD 
DOCKED: BRANCH  37  40
DOCKED: ATOM     40  O7  UNL     1       8.293  -6.902   5.358 +0.00 -0.00    -0.445 OA 
DOCKED: BRANCH  40  41
DOCKED: ATOM     41  C23 UNL     1       7.908  -5.521   5.131 +0.00 +0.00    +0.107 C  
DOCKED: ATOM     42  C24 UNL     1       6.384  -5.362   5.095 +0.00 +0.00    +0.055 C  
DOCKED: ATOM     43  C25 UNL     1       8.452  -4.757   6.349 +0.00 +0.00    +0.055 C  
DOCKED: ATOM     44  C26 UNL     1       8.570  -4.960   3.867 +0.00 +0.00    +0.055 C  
DOCKED: ENDBRANCH  40  41
DOCKED: ENDBRANCH  37  40
DOCKED: ENDBRANCH  35  36
DOCKED: BRANCH  35  45
DOCKED: ATOM     45  C27 UNL     1      10.392 -10.678   3.590 +0.00 +0.00    +0.012 C  
DOCKED: ATOM     46  C28 UNL     1       9.029 -10.978   2.955 +0.00 +0.00    +0.009 C  
DOCKED: ATOM     47  C29 UNL     1      10.566 -11.505   4.867 +0.00 +0.00    +0.009 C  
DOCKED: ENDBRANCH  35  45
DOCKED: ENDBRANCH  32  35
DOCKED: ENDBRANCH  30  31
DOCKED: BRANCH  30  48
DOCKED: ATOM     48  C17 UNL     1      10.689  -6.292   0.374 +0.00 +0.00    +0.042 C  
DOCKED: BRANCH  48  49
DOCKED: ATOM     49  C18 UNL     1       9.193  -6.101   0.643 +0.00 +0.00    +0.071 C  
DOCKED: BRANCH  49  50
DOCKED: ATOM     50  S1  UNL     1       8.261  -7.656   0.462 +0.00 -0.00    -0.164 S  
DOCKED: ATOM     51  C19 UNL     1       7.390  -7.642   2.047 +0.00 +0.00    +0.084 C  
DOCKED: ENDBRANCH  49  50
DOCKED: ENDBRANCH  48  49
DOCKED: ENDBRANCH  30  48
DOCKED: ENDBRANCH   2  30
DOCKED: TORSDOF 23
DOCKED: TER
DOCKED: ENDMDL
________________________________________________________________________________


    FINAL DOCKED STATE:
    ________________________


Run:   8 / 20
Time taken for this run:   1.806s

DOCKED: MODEL        8
DOCKED: USER    Run = 8
DOCKED: USER
DOCKED: USER    Estimated Free Energy of Binding    =  +6.86 kcal/mol  [=(1)+(2)+(3)-(4)]
DOCKED: USER
DOCKED: USER    (1) Final Intermolecular Energy     =  +0.00 kcal/mol
DOCKED: USER        vdW + Hbond + desolv Energy     =  +0.00 kcal/mol
DOCKED: USER        Electrostatic Energy            =  +0.00 kcal/mol
DOCKED: USER        Moving Ligand-Fixed Receptor    =  +0.00 kcal/mol
DOCKED: USER        Moving Ligand-Moving Receptor   =  +0.00 kcal/mol
DOCKED: USER    (2) Final Total Internal Energy     = -13.69 kcal/mol
DOCKED: USER    (3) Torsional Free Energy           =  +6.86 kcal/mol
DOCKED: USER    (4) Unbound System's Energy         = -13.69 kcal/mol
DOCKED: USER
DOCKED: USER
DOCKED: REMARK  Name = ligands/ligand_44.pdb
DOCKED: REMARK  34 active torsions:
DOCKED: REMARK  status: ('A' for Active; 'I' for Inactive)
DOCKED: REMARK    1  A    between atoms: C1_1  and  C2_2
DOCKED: REMARK    2  A    between atoms: C2_2  and  C3_3
DOCKED: REMARK    3  A    between atoms: C3_3  and  C4_4
DOCKED: REMARK    4  A    between atoms: C4_4  and  N1_5
DOCKED: REMARK    5  A    between atoms: C5_6  and  C6_8
DOCKED: REMARK    6  A    between atoms: C6_8  and  N2_9
DOCKED: REMARK    7  A    between atoms: C6_8  and  C30_43
DOCKED: REMARK    8  A    between atoms: C7_10  and  C8_12
DOCKED: REMARK    9  A    between atoms: C8_12  and  C9_13
DOCKED: REMARK   10  A    between atoms: C9_13  and  O3_14
DOCKED: REMARK   11  A    between atoms: C9_13  and  C10_15
DOCKED: REMARK   12  A    between atoms: C10_15  and  C11_16
DOCKED: REMARK   13  A    between atoms: C10_15  and  N3_20
DOCKED: REMARK   14  A    between atoms: C11_16  and  C12_17
DOCKED: REMARK   15  A    between atoms: C12_17  and  C13_18
DOCKED: REMARK   16  A    between atoms: C12_17  and  C14_19
DOCKED: REMARK   17  A    between atoms: C15_21  and  C16_23
DOCKED: REMARK   18  A    between atoms: C16_23  and  C17_24
DOCKED: REMARK   19  A    between atoms: C16_23  and  N4_28
DOCKED: REMARK   20  A    between atoms: C17_24  and  C18_25
DOCKED: REMARK   21  A    between atoms: C18_25  and  S1_26
DOCKED: REMARK   22  A    between atoms: S1_26  and  C19_27
DOCKED: REMARK   23  A    between atoms: C20_29  and  C21_31
DOCKED: REMARK   24  A    between atoms: C21_31  and  N5_32
DOCKED: REMARK   25  A    between atoms: C21_31  and  C27_40
DOCKED: REMARK   26  A    between atoms: C22_33  and  O7_35
DOCKED: REMARK   27  A    between atoms: O7_35  and  C23_36
DOCKED: REMARK   28  A    between atoms: C23_36  and  C24_37
DOCKED: REMARK   29  A    between atoms: C23_36  and  C25_38
DOCKED: REMARK   30  A    between atoms: C23_36  and  C26_39
DOCKED: REMARK   31  A    between atoms: C27_40  and  C28_41
DOCKED: REMARK   32  A    between atoms: C27_40  and  C29_42
DOCKED: REMARK   33  A    between atoms: C30_43  and  C31_44
DOCKED: REMARK   34  A    between atoms: C30_43  and  C32_45
DOCKED: REMARK                            x       y       z     vdW  Elec       q    Type
DOCKED: REMARK                         _______ _______ _______ _____ _____    ______ ____
DOCKED: USER                              x       y       z     vdW  Elec       q    Type
DOCKED: USER                           _______ _______ _______ _____ _____    ______ ____
DOCKED: ROOT
DOCKED: ATOM      1  N3  UNL     1      10.451  -4.720   1.621 +0.00 -0.00    -0.308 N  
DOCKED: ATOM      2  C15 UNL     1       9.815  -3.804   0.807 +0.00 +0.00    +0.234 C  
DOCKED: ATOM      3  O4  UNL     1       9.161  -2.862   1.250 +0.00 -0.00    -0.274 OA 
DOCKED: ATOM      4  H27 UNL     1      10.839  -5.553   1.195 +0.00 +0.00    +0.149 HD 
DOCKED: ENDROOT
DOCKED: BRANCH   1   5
DOCKED: ATOM      5  C10 UNL     1      10.238  -4.739   3.078 +0.00 +0.00    +0.102 C  
DOCKED: BRANCH   5   6
DOCKED: ATOM      6  C11 UNL     1      11.352  -3.933   3.786 +0.00 +0.00    +0.028 C  
DOCKED: BRANCH   6   7
DOCKED: ATOM      7  C12 UNL     1      12.755  -3.926   3.136 +0.00 -0.00    -0.015 C  
DOCKED: ATOM      8  C13 UNL     1      13.882  -3.941   4.170 +0.00 +0.00    +0.007 C  
DOCKED: ATOM      9  C14 UNL     1      12.970  -2.796   2.132 +0.00 +0.00    +0.007 C  
DOCKED: ENDBRANCH   6   7
DOCKED: ENDBRANCH   5   6
DOCKED: BRANCH   5  10
DOCKED: ATOM     10  C9  UNL     1      10.177  -6.228   3.572 +0.00 +0.00    +0.143 C  
DOCKED: BRANCH  10  11
DOCKED: ATOM     11  O3  UNL     1      10.109  -7.198   2.524 +0.00 -0.00    -0.389 OA 
DOCKED: ATOM     12  H16 UNL     1      10.919  -7.139   1.992 +0.00 +0.00    +0.210 HD 
DOCKED: ENDBRANCH  10  11
DOCKED: BRANCH  10  13
DOCKED: ATOM     13  C8  UNL     1      11.297  -6.636   4.536 +0.00 +0.00    +0.129 C  
DOCKED: BRANCH  13  15
DOCKED: ATOM     14  N2  UNL     1      12.231  -8.604   3.496 +0.00 -0.00    -0.304 N  
DOCKED: ATOM     15  C7  UNL     1      11.571  -8.130   4.617 +0.00 +0.00    +0.216 C  
DOCKED: ATOM     16  O2  UNL     1      11.284  -8.842   5.573 +0.00 -0.00    -0.276 OA 
DOCKED: ATOM     17  H12 UNL     1      12.084  -8.070   2.646 +0.00 +0.00    +0.149 HD 
DOCKED: BRANCH  14  18
DOCKED: ATOM     18  C6  UNL     1      12.405 -10.040   3.283 +0.00 +0.00    +0.161 C  
DOCKED: BRANCH  18  20
DOCKED: ATOM     19  N1  UNL     1      10.502  -9.625   1.771 +0.00 -0.00    -0.314 N  
DOCKED: ATOM     20  C5  UNL     1      11.128 -10.547   2.583 +0.00 +0.00    +0.234 C  
DOCKED: ATOM     21  O1  UNL     1      10.677 -11.675   2.786 +0.00 -0.00    -0.274 OA 
DOCKED: ATOM     22  H10 UNL     1      11.040  -8.818   1.475 +0.00 +0.00    +0.149 HD 
DOCKED: BRANCH  19  23
DOCKED: ATOM     23  C4  UNL     1       9.338  -9.984   0.989 +0.00 +0.00    +0.104 C  
DOCKED: BRANCH  23  24
DOCKED: ATOM     24  C3  UNL     1       9.674 -10.158  -0.492 +0.00 +0.00    +0.018 C  
DOCKED: BRANCH  24  26
DOCKED: ATOM     25  C1  UNL     1      11.664  -9.722  -1.971 +0.00 +0.00    +0.004 C  
DOCKED: ATOM     26  C2  UNL     1      10.706  -9.130  -0.949 +0.00 -0.00    -0.002 C  
DOCKED: ENDBRANCH  24  26
DOCKED: ENDBRANCH  23  24
DOCKED: ENDBRANCH  19  23
DOCKED: ENDBRANCH  18  20
DOCKED: BRANCH  18  27
DOCKED: ATOM     27  C30 UNL     1      13.688 -10.327   2.470 +0.00 +0.00    +0.012 C  
DOCKED: ATOM     28  C31 UNL     1      13.428 -10.638   0.992 +0.00 +0.00    +0.009 C  
DOCKED: ATOM     29  C32 UNL     1      14.524 -11.446   3.098 +0.00 +0.00    +0.009 C  
DOCKED: ENDBRANCH  18  27
DOCKED: ENDBRANCH  14  18
DOCKED: ENDBRANCH  13  15
DOCKED: ENDBRANCH  10  13
DOCKED: ENDBRANCH   5  10
DOCKED: ENDBRANCH   1   5
DOCKED: BRANCH   2  30
DOCKED: ATOM     30  C16 UNL     1      10.017  -4.029  -0.706 +0.00 +0.00    +0.160 C  
DOCKED: BRANCH  30  31
DOCKED: ATOM     31  N4  UNL     1      11.188  -4.878  -0.854 +0.00 -0.00    -0.302 N  
DOCKED: ATOM     32  C20 UNL     1      12.441  -4.353  -1.083 +0.00 +0.00    +0.234 C  
DOCKED: ATOM     33  O5  UNL     1      12.624  -3.160  -1.329 +0.00 -0.00    -0.274 OA 
DOCKED: ATOM     34  H36 UNL     1      11.128  -5.791  -0.417 +0.00 +0.00    +0.150 HD 
DOCKED: BRANCH  32  35
DOCKED: ATOM     35  C21 UNL     1      13.595  -5.373  -0.967 +0.00 +0.00    +0.165 C  
DOCKED: BRANCH  35  36
DOCKED: ATOM     36  N5  UNL     1      13.852  -5.616   0.444 +0.00 -0.00    -0.270 N  
DOCKED: ATOM     37  C22 UNL     1      13.160  -6.545   1.158 +0.00 +0.00    +0.401 C  
DOCKED: ATOM     38  O6  UNL     1      12.145  -7.110   0.785 +0.00 -0.00    -0.226 OA 
DOCKED: ATOM     39  H38 UNL     1      14.789  -5.446   0.785 +0.00 +0.00    +0.153 HD 
DOCKED: BRANCH  37  40
DOCKED: ATOM     40  O7  UNL     1      13.787  -6.728   2.341 +0.00 -0.00    -0.445 OA 
DOCKED: BRANCH  40  41
DOCKED: ATOM     41  C23 UNL     1      15.198  -7.065   2.386 +0.00 +0.00    +0.107 C  
DOCKED: ATOM     42  C24 UNL     1      16.072  -5.811   2.487 +0.00 +0.00    +0.055 C  
DOCKED: ATOM     43  C25 UNL     1      15.364  -7.884   3.677 +0.00 +0.00    +0.055 C  
DOCKED: ATOM     44  C26 UNL     1      15.597  -7.946   1.196 +0.00 +0.00    +0.055 C  
DOCKED: ENDBRANCH  40  41
DOCKED: ENDBRANCH  37  40
DOCKED: ENDBRANCH  35  36
DOCKED: BRANCH  35  45
DOCKED: ATOM     45  C27 UNL     1      13.266  -6.668  -1.738 +0.00 +0.00    +0.012 C  
DOCKED: ATOM     46  C28 UNL     1      14.475  -7.594  -1.913 +0.00 +0.00    +0.009 C  
DOCKED: ATOM     47  C29 UNL     1      12.648  -6.351  -3.103 +0.00 +0.00    +0.009 C  
DOCKED: ENDBRANCH  35  45
DOCKED: ENDBRANCH  32  35
DOCKED: ENDBRANCH  30  31
DOCKED: BRANCH  30  48
DOCKED: ATOM     48  C17 UNL     1       8.756  -4.649  -1.325 +0.00 +0.00    +0.042 C  
DOCKED: BRANCH  48  49
DOCKED: ATOM     49  C18 UNL     1       8.792  -6.179  -1.375 +0.00 +0.00    +0.071 C  
DOCKED: BRANCH  49  50
DOCKED: ATOM     50  S1  UNL     1       8.198  -6.929   0.177 +0.00 -0.00    -0.164 S  
DOCKED: ATOM     51  C19 UNL     1       6.930  -5.711   0.603 +0.00 +0.00    +0.084 C  
DOCKED: ENDBRANCH  49  50
DOCKED: ENDBRANCH  48  49
DOCKED: ENDBRANCH  30  48
DOCKED: ENDBRANCH   2  30
DOCKED: TORSDOF 23
DOCKED: TER
DOCKED: ENDMDL
________________________________________________________________________________


    FINAL DOCKED STATE:
    ________________________


Run:   9 / 20
Time taken for this run:   1.806s

DOCKED: MODEL        9
DOCKED: USER    Run = 9
DOCKED: USER
DOCKED: USER    Estimated Free Energy of Binding    =  +6.86 kcal/mol  [=(1)+(2)+(3)-(4)]
DOCKED: USER
DOCKED: USER    (1) Final Intermolecular Energy     =  +0.00 kcal/mol
DOCKED: USER        vdW + Hbond + desolv Energy     =  +0.00 kcal/mol
DOCKED: USER        Electrostatic Energy            =  +0.00 kcal/mol
DOCKED: USER        Moving Ligand-Fixed Receptor    =  +0.00 kcal/mol
DOCKED: USER        Moving Ligand-Moving Receptor   =  +0.00 kcal/mol
DOCKED: USER    (2) Final Total Internal Energy     = -13.13 kcal/mol
DOCKED: USER    (3) Torsional Free Energy           =  +6.86 kcal/mol
DOCKED: USER    (4) Unbound System's Energy         = -13.13 kcal/mol
DOCKED: USER
DOCKED: USER
DOCKED: REMARK  Name = ligands/ligand_44.pdb
DOCKED: REMARK  34 active torsions:
DOCKED: REMARK  status: ('A' for Active; 'I' for Inactive)
DOCKED: REMARK    1  A    between atoms: C1_1  and  C2_2
DOCKED: REMARK    2  A    between atoms: C2_2  and  C3_3
DOCKED: REMARK    3  A    between atoms: C3_3  and  C4_4
DOCKED: REMARK    4  A    between atoms: C4_4  and  N1_5
DOCKED: REMARK    5  A    between atoms: C5_6  and  C6_8
DOCKED: REMARK    6  A    between atoms: C6_8  and  N2_9
DOCKED: REMARK    7  A    between atoms: C6_8  and  C30_43
DOCKED: REMARK    8  A    between atoms: C7_10  and  C8_12
DOCKED: REMARK    9  A    between atoms: C8_12  and  C9_13
DOCKED: REMARK   10  A    between atoms: C9_13  and  O3_14
DOCKED: REMARK   11  A    between atoms: C9_13  and  C10_15
DOCKED: REMARK   12  A    between atoms: C10_15  and  C11_16
DOCKED: REMARK   13  A    between atoms: C10_15  and  N3_20
DOCKED: REMARK   14  A    between atoms: C11_16  and  C12_17
DOCKED: REMARK   15  A    between atoms: C12_17  and  C13_18
DOCKED: REMARK   16  A    between atoms: C12_17  and  C14_19
DOCKED: REMARK   17  A    between atoms: C15_21  and  C16_23
DOCKED: REMARK   18  A    between atoms: C16_23  and  C17_24
DOCKED: REMARK   19  A    between atoms: C16_23  and  N4_28
DOCKED: REMARK   20  A    between atoms: C17_24  and  C18_25
DOCKED: REMARK   21  A    between atoms: C18_25  and  S1_26
DOCKED: REMARK   22  A    between atoms: S1_26  and  C19_27
DOCKED: REMARK   23  A    between atoms: C20_29  and  C21_31
DOCKED: REMARK   24  A    between atoms: C21_31  and  N5_32
DOCKED: REMARK   25  A    between atoms: C21_31  and  C27_40
DOCKED: REMARK   26  A    between atoms: C22_33  and  O7_35
DOCKED: REMARK   27  A    between atoms: O7_35  and  C23_36
DOCKED: REMARK   28  A    between atoms: C23_36  and  C24_37
DOCKED: REMARK   29  A    between atoms: C23_36  and  C25_38
DOCKED: REMARK   30  A    between atoms: C23_36  and  C26_39
DOCKED: REMARK   31  A    between atoms: C27_40  and  C28_41
DOCKED: REMARK   32  A    between atoms: C27_40  and  C29_42
DOCKED: REMARK   33  A    between atoms: C30_43  and  C31_44
DOCKED: REMARK   34  A    between atoms: C30_43  and  C32_45
DOCKED: REMARK                            x       y       z     vdW  Elec       q    Type
DOCKED: REMARK                         _______ _______ _______ _____ _____    ______ ____
DOCKED: USER                              x       y       z     vdW  Elec       q    Type
DOCKED: USER                           _______ _______ _______ _____ _____    ______ ____
DOCKED: ROOT
DOCKED: ATOM      1  N3  UNL     1       9.842  -2.532  -3.024 +0.00 -0.00    -0.308 N  
DOCKED: ATOM      2  C15 UNL     1       9.984  -3.814  -2.532 +0.00 +0.00    +0.234 C  
DOCKED: ATOM      3  O4  UNL     1       9.131  -4.686  -2.690 +0.00 -0.00    -0.274 OA 
DOCKED: ATOM      4  H27 UNL     1      10.506  -1.828  -2.726 +0.00 +0.00    +0.149 HD 
DOCKED: ENDROOT
DOCKED: BRANCH   1   5
DOCKED: ATOM      5  C10 UNL     1       8.575  -2.065  -3.612 +0.00 +0.00    +0.102 C  
DOCKED: BRANCH   5   6
DOCKED: ATOM      6  C11 UNL     1       8.576  -2.318  -5.138 +0.00 +0.00    +0.028 C  
DOCKED: BRANCH   6   7
DOCKED: ATOM      7  C12 UNL     1       9.896  -2.800  -5.783 +0.00 -0.00    -0.015 C  
DOCKED: ATOM      8  C13 UNL     1      10.216  -2.066  -7.086 +0.00 +0.00    +0.007 C  
DOCKED: ATOM      9  C14 UNL     1       9.972  -4.310  -5.992 +0.00 +0.00    +0.007 C  
DOCKED: ENDBRANCH   6   7
DOCKED: ENDBRANCH   5   6
DOCKED: BRANCH   5  10
DOCKED: ATOM     10  C9  UNL     1       8.371  -0.549  -3.261 +0.00 +0.00    +0.143 C  
DOCKED: BRANCH  10  11
DOCKED: ATOM     11  O3  UNL     1       9.560   0.132  -2.856 +0.00 -0.00    -0.389 OA 
DOCKED: ATOM     12  H16 UNL     1      10.328  -0.400  -3.121 +0.00 +0.00    +0.210 HD 
DOCKED: ENDBRANCH  10  11
DOCKED: BRANCH  10  13
DOCKED: ATOM     13  C8  UNL     1       7.687   0.281  -4.354 +0.00 +0.00    +0.129 C  
DOCKED: BRANCH  13  15
DOCKED: ATOM     14  N2  UNL     1       9.803   0.773  -5.405 +0.00 -0.00    -0.304 N  
DOCKED: ATOM     15  C7  UNL     1       8.577   1.305  -5.043 +0.00 +0.00    +0.216 C  
DOCKED: ATOM     16  O2  UNL     1       8.249   2.459  -5.295 +0.00 -0.00    -0.276 OA 
DOCKED: ATOM     17  H12 UNL     1      10.120  -0.011  -4.846 +0.00 +0.00    +0.149 HD 
DOCKED: BRANCH  14  18
DOCKED: ATOM     18  C6  UNL     1      10.877   1.639  -5.892 +0.00 +0.00    +0.161 C  
DOCKED: BRANCH  18  20
DOCKED: ATOM     19  N1  UNL     1      11.271   2.100  -3.501 +0.00 -0.00    -0.314 N  
DOCKED: ATOM     20  C5  UNL     1      11.186   2.646  -4.765 +0.00 +0.00    +0.234 C  
DOCKED: ATOM     21  O1  UNL     1      11.291   3.853  -4.981 +0.00 -0.00    -0.274 OA 
DOCKED: ATOM     22  H10 UNL     1      11.403   1.097  -3.430 +0.00 +0.00    +0.149 HD 
DOCKED: BRANCH  19  23
DOCKED: ATOM     23  C4  UNL     1      11.633   2.911  -2.358 +0.00 +0.00    +0.104 C  
DOCKED: BRANCH  23  24
DOCKED: ATOM     24  C3  UNL     1      10.519   2.957  -1.313 +0.00 +0.00    +0.018 C  
DOCKED: BRANCH  24  26
DOCKED: ATOM     25  C1  UNL     1       8.081   2.333  -1.229 +0.00 +0.00    +0.004 C  
DOCKED: ATOM     26  C2  UNL     1       9.151   3.121  -1.969 +0.00 -0.00    -0.002 C  
DOCKED: ENDBRANCH  24  26
DOCKED: ENDBRANCH  23  24
DOCKED: ENDBRANCH  19  23
DOCKED: ENDBRANCH  18  20
DOCKED: BRANCH  18  27
DOCKED: ATOM     27  C30 UNL     1      12.111   0.807  -6.308 +0.00 +0.00    +0.012 C  
DOCKED: ATOM     28  C31 UNL     1      13.446   1.409  -5.853 +0.00 +0.00    +0.009 C  
DOCKED: ATOM     29  C32 UNL     1      12.145   0.549  -7.817 +0.00 +0.00    +0.009 C  
DOCKED: ENDBRANCH  18  27
DOCKED: ENDBRANCH  14  18
DOCKED: ENDBRANCH  13  15
DOCKED: ENDBRANCH  10  13
DOCKED: ENDBRANCH   5  10
DOCKED: ENDBRANCH   1   5
DOCKED: BRANCH   2  30
DOCKED: ATOM     30  C16 UNL     1      11.314  -4.086  -1.799 +0.00 +0.00    +0.160 C  
DOCKED: BRANCH  30  31
DOCKED: ATOM     31  N4  UNL     1      12.350  -3.371  -2.527 +0.00 -0.00    -0.302 N  
DOCKED: ATOM     32  C20 UNL     1      12.794  -3.792  -3.760 +0.00 +0.00    +0.234 C  
DOCKED: ATOM     33  O5  UNL     1      12.461  -4.872  -4.251 +0.00 -0.00    -0.274 OA 
DOCKED: ATOM     34  H36 UNL     1      12.452  -2.389  -2.295 +0.00 +0.00    +0.150 HD 
DOCKED: BRANCH  32  35
DOCKED: ATOM     35  C21 UNL     1      13.710  -2.785  -4.491 +0.00 +0.00    +0.165 C  
DOCKED: BRANCH  35  36
DOCKED: ATOM     36  N5  UNL     1      13.804  -1.581  -3.681 +0.00 -0.00    -0.270 N  
DOCKED: ATOM     37  C22 UNL     1      12.723  -0.800  -3.414 +0.00 +0.00    +0.401 C  
DOCKED: ATOM     38  O6  UNL     1      11.637  -0.884  -3.965 +0.00 -0.00    -0.226 OA 
DOCKED: ATOM     39  H38 UNL     1      14.522  -1.550  -2.970 +0.00 +0.00    +0.153 HD 
DOCKED: BRANCH  37  40
DOCKED: ATOM     40  O7  UNL     1      13.058   0.076  -2.441 +0.00 -0.00    -0.445 OA 
DOCKED: BRANCH  40  41
DOCKED: ATOM     41  C23 UNL     1      12.896  -0.274  -1.042 +0.00 +0.00    +0.107 C  
DOCKED: ATOM     42  C24 UNL     1      13.800  -1.447  -0.649 +0.00 +0.00    +0.055 C  
DOCKED: ATOM     43  C25 UNL     1      13.351   0.976  -0.271 +0.00 +0.00    +0.055 C  
DOCKED: ATOM     44  C26 UNL     1      11.426  -0.547  -0.704 +0.00 +0.00    +0.055 C  
DOCKED: ENDBRANCH  40  41
DOCKED: ENDBRANCH  37  40
DOCKED: ENDBRANCH  35  36
DOCKED: BRANCH  35  45
DOCKED: ATOM     45  C27 UNL     1      15.091  -3.408  -4.784 +0.00 +0.00    +0.012 C  
DOCKED: ATOM     46  C28 UNL     1      15.095  -4.323  -6.015 +0.00 +0.00    +0.009 C  
DOCKED: ATOM     47  C29 UNL     1      15.618  -4.170  -3.565 +0.00 +0.00    +0.009 C  
DOCKED: ENDBRANCH  35  45
DOCKED: ENDBRANCH  32  35
DOCKED: ENDBRANCH  30  31
DOCKED: BRANCH  30  48
DOCKED: ATOM     48  C17 UNL     1      11.213  -3.649  -0.332 +0.00 +0.00    +0.042 C  
DOCKED: BRANCH  48  49
DOCKED: ATOM     49  C18 UNL     1      12.141  -4.430   0.603 +0.00 +0.00    +0.071 C  
DOCKED: BRANCH  49  50
DOCKED: ATOM     50  S1  UNL     1      13.129  -5.671  -0.295 +0.00 -0.00    -0.164 S  
DOCKED: ATOM     51  C19 UNL     1      14.719  -4.811  -0.294 +0.00 +0.00    +0.084 C  
DOCKED: ENDBRANCH  49  50
DOCKED: ENDBRANCH  48  49
DOCKED: ENDBRANCH  30  48
DOCKED: ENDBRANCH   2  30
DOCKED: TORSDOF 23
DOCKED: TER
DOCKED: ENDMDL
________________________________________________________________________________


    FINAL DOCKED STATE:
    ________________________


Run:   10 / 20
Time taken for this run:   1.806s

DOCKED: MODEL        10
DOCKED: USER    Run = 10
DOCKED: USER
DOCKED: USER    Estimated Free Energy of Binding    =  +6.86 kcal/mol  [=(1)+(2)+(3)-(4)]
DOCKED: USER
DOCKED: USER    (1) Final Intermolecular Energy     =  +0.00 kcal/mol
DOCKED: USER        vdW + Hbond + desolv Energy     =  +0.00 kcal/mol
DOCKED: USER        Electrostatic Energy            =  +0.00 kcal/mol
DOCKED: USER        Moving Ligand-Fixed Receptor    =  +0.00 kcal/mol
DOCKED: USER        Moving Ligand-Moving Receptor   =  +0.00 kcal/mol
DOCKED: USER    (2) Final Total Internal Energy     = -13.86 kcal/mol
DOCKED: USER    (3) Torsional Free Energy           =  +6.86 kcal/mol
DOCKED: USER    (4) Unbound System's Energy         = -13.86 kcal/mol
DOCKED: USER
DOCKED: USER
DOCKED: REMARK  Name = ligands/ligand_44.pdb
DOCKED: REMARK  34 active torsions:
DOCKED: REMARK  status: ('A' for Active; 'I' for Inactive)
DOCKED: REMARK    1  A    between atoms: C1_1  and  C2_2
DOCKED: REMARK    2  A    between atoms: C2_2  and  C3_3
DOCKED: REMARK    3  A    between atoms: C3_3  and  C4_4
DOCKED: REMARK    4  A    between atoms: C4_4  and  N1_5
DOCKED: REMARK    5  A    between atoms: C5_6  and  C6_8
DOCKED: REMARK    6  A    between atoms: C6_8  and  N2_9
DOCKED: REMARK    7  A    between atoms: C6_8  and  C30_43
DOCKED: REMARK    8  A    between atoms: C7_10  and  C8_12
DOCKED: REMARK    9  A    between atoms: C8_12  and  C9_13
DOCKED: REMARK   10  A    between atoms: C9_13  and  O3_14
DOCKED: REMARK   11  A    between atoms: C9_13  and  C10_15
DOCKED: REMARK   12  A    between atoms: C10_15  and  C11_16
DOCKED: REMARK   13  A    between atoms: C10_15  and  N3_20
DOCKED: REMARK   14  A    between atoms: C11_16  and  C12_17
DOCKED: REMARK   15  A    between atoms: C12_17  and  C13_18
DOCKED: REMARK   16  A    between atoms: C12_17  and  C14_19
DOCKED: REMARK   17  A    between atoms: C15_21  and  C16_23
DOCKED: REMARK   18  A    between atoms: C16_23  and  C17_24
DOCKED: REMARK   19  A    between atoms: C16_23  and  N4_28
DOCKED: REMARK   20  A    between atoms: C17_24  and  C18_25
DOCKED: REMARK   21  A    between atoms: C18_25  and  S1_26
DOCKED: REMARK   22  A    between atoms: S1_26  and  C19_27
DOCKED: REMARK   23  A    between atoms: C20_29  and  C21_31
DOCKED: REMARK   24  A    between atoms: C21_31  and  N5_32
DOCKED: REMARK   25  A    between atoms: C21_31  and  C27_40
DOCKED: REMARK   26  A    between atoms: C22_33  and  O7_35
DOCKED: REMARK   27  A    between atoms: O7_35  and  C23_36
DOCKED: REMARK   28  A    between atoms: C23_36  and  C24_37
DOCKED: REMARK   29  A    between atoms: C23_36  and  C25_38
DOCKED: REMARK   30  A    between atoms: C23_36  and  C26_39
DOCKED: REMARK   31  A    between atoms: C27_40  and  C28_41
DOCKED: REMARK   32  A    between atoms: C27_40  and  C29_42
DOCKED: REMARK   33  A    between atoms: C30_43  and  C31_44
DOCKED: REMARK   34  A    between atoms: C30_43  and  C32_45
DOCKED: REMARK                            x       y       z     vdW  Elec       q    Type
DOCKED: REMARK                         _______ _______ _______ _____ _____    ______ ____
DOCKED: USER                              x       y       z     vdW  Elec       q    Type
DOCKED: USER                           _______ _______ _______ _____ _____    ______ ____
DOCKED: ROOT
DOCKED: ATOM      1  N3  UNL     1       8.277  -8.817  -3.900 +0.00 -0.00    -0.308 N  
DOCKED: ATOM      2  C15 UNL     1       7.598  -7.772  -3.307 +0.00 +0.00    +0.234 C  
DOCKED: ATOM      3  O4  UNL     1       6.623  -7.232  -3.827 +0.00 -0.00    -0.274 OA 
DOCKED: ATOM      4  H27 UNL     1       9.157  -9.109  -3.493 +0.00 +0.00    +0.149 HD 
DOCKED: ENDROOT
DOCKED: BRANCH   1   5
DOCKED: ATOM      5  C10 UNL     1       7.995  -9.237  -5.282 +0.00 +0.00    +0.102 C  
DOCKED: BRANCH   5   6
DOCKED: ATOM      6  C11 UNL     1       7.190 -10.558  -5.280 +0.00 +0.00    +0.028 C  
DOCKED: BRANCH   6   7
DOCKED: ATOM      7  C12 UNL     1       7.463 -11.561  -4.135 +0.00 -0.00    -0.015 C  
DOCKED: ATOM      8  C13 UNL     1       7.718 -12.980  -4.646 +0.00 +0.00    +0.007 C  
DOCKED: ATOM      9  C14 UNL     1       6.391 -11.572  -3.048 +0.00 +0.00    +0.007 C  
DOCKED: ENDBRANCH   6   7
DOCKED: ENDBRANCH   5   6
DOCKED: BRANCH   5  10
DOCKED: ATOM     10  C9  UNL     1       9.347  -9.368  -6.069 +0.00 +0.00    +0.143 C  
DOCKED: BRANCH  10  11
DOCKED: ATOM     11  O3  UNL     1      10.518  -9.307  -5.251 +0.00 -0.00    -0.389 OA 
DOCKED: ATOM     12  H16 UNL     1      10.595 -10.139  -4.756 +0.00 +0.00    +0.210 HD 
DOCKED: ENDBRANCH  10  11
DOCKED: BRANCH  10  13
DOCKED: ATOM     13  C8  UNL     1       9.453 -10.602  -6.973 +0.00 +0.00    +0.129 C  
DOCKED: BRANCH  13  15
DOCKED: ATOM     14  N2  UNL     1      11.645 -11.468  -6.450 +0.00 -0.00    -0.304 N  
DOCKED: ATOM     15  C7  UNL     1      10.857 -10.933  -7.456 +0.00 +0.00    +0.216 C  
DOCKED: ATOM     16  O2  UNL     1      11.252 -10.790  -8.608 +0.00 -0.00    -0.276 OA 
DOCKED: ATOM     17  H12 UNL     1      11.387 -11.200  -5.507 +0.00 +0.00    +0.149 HD 
DOCKED: BRANCH  14  18
DOCKED: ATOM     18  C6  UNL     1      13.081 -11.662  -6.651 +0.00 +0.00    +0.161 C  
DOCKED: BRANCH  18  20
DOCKED: ATOM     19  N1  UNL     1      13.016 -10.125  -4.724 +0.00 -0.00    -0.314 N  
DOCKED: ATOM     20  C5  UNL     1      13.802 -10.668  -5.718 +0.00 +0.00    +0.234 C  
DOCKED: ATOM     21  O1  UNL     1      14.978 -10.347  -5.892 +0.00 -0.00    -0.274 OA 
DOCKED: ATOM     22  H10 UNL     1      12.146 -10.597  -4.502 +0.00 +0.00    +0.149 HD 
DOCKED: BRANCH  19  23
DOCKED: ATOM     23  C4  UNL     1      13.576  -9.238  -3.727 +0.00 +0.00    +0.104 C  
DOCKED: BRANCH  23  24
DOCKED: ATOM     24  C3  UNL     1      14.568  -9.957  -2.813 +0.00 +0.00    +0.018 C  
DOCKED: BRANCH  24  26
DOCKED: ATOM     25  C1  UNL     1      13.887  -9.049  -0.566 +0.00 +0.00    +0.004 C  
DOCKED: ATOM     26  C2  UNL     1      13.941 -10.278  -1.459 +0.00 -0.00    -0.002 C  
DOCKED: ENDBRANCH  24  26
DOCKED: ENDBRANCH  23  24
DOCKED: ENDBRANCH  19  23
DOCKED: ENDBRANCH  18  20
DOCKED: BRANCH  18  27
DOCKED: ATOM     27  C30 UNL     1      13.481 -13.131  -6.387 +0.00 +0.00    +0.012 C  
DOCKED: ATOM     28  C31 UNL     1      14.970 -13.320  -6.072 +0.00 +0.00    +0.009 C  
DOCKED: ATOM     29  C32 UNL     1      13.072 -14.052  -7.540 +0.00 +0.00    +0.009 C  
DOCKED: ENDBRANCH  18  27
DOCKED: ENDBRANCH  14  18
DOCKED: ENDBRANCH  13  15
DOCKED: ENDBRANCH  10  13
DOCKED: ENDBRANCH   5  10
DOCKED: ENDBRANCH   1   5
DOCKED: BRANCH   2  30
DOCKED: ATOM     30  C16 UNL     1       8.131  -7.352  -1.921 +0.00 +0.00    +0.160 C  
DOCKED: BRANCH  30  31
DOCKED: ATOM     31  N4  UNL     1       8.929  -8.462  -1.423 +0.00 -0.00    -0.302 N  
DOCKED: ATOM     32  C20 UNL     1       8.354  -9.551  -0.809 +0.00 +0.00    +0.234 C  
DOCKED: ATOM     33  O5  UNL     1       7.161  -9.587  -0.504 +0.00 -0.00    -0.274 OA 
DOCKED: ATOM     34  H36 UNL     1       9.832  -8.587  -1.867 +0.00 +0.00    +0.150 HD 
DOCKED: BRANCH  32  35
DOCKED: ATOM     35  C21 UNL     1       9.317 -10.735  -0.569 +0.00 +0.00    +0.165 C  
DOCKED: BRANCH  35  36
DOCKED: ATOM     36  N5  UNL     1       9.518 -11.426  -1.833 +0.00 -0.00    -0.270 N  
DOCKED: ATOM     37  C22 UNL     1      10.436 -11.012  -2.748 +0.00 +0.00    +0.401 C  
DOCKED: ATOM     38  O6  UNL     1      11.024  -9.943  -2.724 +0.00 -0.00    -0.226 OA 
DOCKED: ATOM     39  H38 UNL     1       9.327 -12.419  -1.860 +0.00 +0.00    +0.153 HD 
DOCKED: BRANCH  37  40
DOCKED: ATOM     40  O7  UNL     1      10.579 -11.981  -3.678 +0.00 -0.00    -0.445 OA 
DOCKED: BRANCH  40  41
DOCKED: ATOM     41  C23 UNL     1      11.351 -13.176  -3.389 +0.00 +0.00    +0.107 C  
DOCKED: ATOM     42  C24 UNL     1      10.821 -13.899  -2.146 +0.00 +0.00    +0.055 C  
DOCKED: ATOM     43  C25 UNL     1      11.140 -14.084  -4.612 +0.00 +0.00    +0.055 C  
DOCKED: ATOM     44  C26 UNL     1      12.846 -12.857  -3.271 +0.00 +0.00    +0.055 C  
DOCKED: ENDBRANCH  40  41
DOCKED: ENDBRANCH  37  40
DOCKED: ENDBRANCH  35  36
DOCKED: BRANCH  35  45
DOCKED: ATOM     45  C27 UNL     1      10.642 -10.250   0.055 +0.00 +0.00    +0.012 C  
DOCKED: ATOM     46  C28 UNL     1      11.522 -11.393   0.575 +0.00 +0.00    +0.009 C  
DOCKED: ATOM     47  C29 UNL     1      10.382  -9.240   1.177 +0.00 +0.00    +0.009 C  
DOCKED: ENDBRANCH  35  45
DOCKED: ENDBRANCH  32  35
DOCKED: ENDBRANCH  30  31
DOCKED: BRANCH  30  48
DOCKED: ATOM     48  C17 UNL     1       8.934  -6.049  -2.031 +0.00 +0.00    +0.042 C  
DOCKED: BRANCH  48  49
DOCKED: ATOM     49  C18 UNL     1       9.628  -5.874  -3.385 +0.00 +0.00    +0.071 C  
DOCKED: BRANCH  49  50
DOCKED: ATOM     50  S1  UNL     1      11.178  -6.826  -3.488 +0.00 -0.00    -0.164 S  
DOCKED: ATOM     51  C19 UNL     1      11.651  -6.773  -1.743 +0.00 +0.00    +0.084 C  
DOCKED: ENDBRANCH  49  50
DOCKED: ENDBRANCH  48  49
DOCKED: ENDBRANCH  30  48
DOCKED: ENDBRANCH   2  30
DOCKED: TORSDOF 23
DOCKED: TER
DOCKED: ENDMDL
________________________________________________________________________________


    FINAL DOCKED STATE:
    ________________________


Run:   11 / 20
Time taken for this run:   1.806s

DOCKED: MODEL        11
DOCKED: USER    Run = 11
DOCKED: USER
DOCKED: USER    Estimated Free Energy of Binding    =  +6.86 kcal/mol  [=(1)+(2)+(3)-(4)]
DOCKED: USER
DOCKED: USER    (1) Final Intermolecular Energy     =  +0.00 kcal/mol
DOCKED: USER        vdW + Hbond + desolv Energy     =  +0.00 kcal/mol
DOCKED: USER        Electrostatic Energy            =  +0.00 kcal/mol
DOCKED: USER        Moving Ligand-Fixed Receptor    =  +0.00 kcal/mol
DOCKED: USER        Moving Ligand-Moving Receptor   =  +0.00 kcal/mol
DOCKED: USER    (2) Final Total Internal Energy     = -13.88 kcal/mol
DOCKED: USER    (3) Torsional Free Energy           =  +6.86 kcal/mol
DOCKED: USER    (4) Unbound System's Energy         = -13.88 kcal/mol
DOCKED: USER
DOCKED: USER
DOCKED: REMARK  Name = ligands/ligand_44.pdb
DOCKED: REMARK  34 active torsions:
DOCKED: REMARK  status: ('A' for Active; 'I' for Inactive)
DOCKED: REMARK    1  A    between atoms: C1_1  and  C2_2
DOCKED: REMARK    2  A    between atoms: C2_2  and  C3_3
DOCKED: REMARK    3  A    between atoms: C3_3  and  C4_4
DOCKED: REMARK    4  A    between atoms: C4_4  and  N1_5
DOCKED: REMARK    5  A    between atoms: C5_6  and  C6_8
DOCKED: REMARK    6  A    between atoms: C6_8  and  N2_9
DOCKED: REMARK    7  A    between atoms: C6_8  and  C30_43
DOCKED: REMARK    8  A    between atoms: C7_10  and  C8_12
DOCKED: REMARK    9  A    between atoms: C8_12  and  C9_13
DOCKED: REMARK   10  A    between atoms: C9_13  and  O3_14
DOCKED: REMARK   11  A    between atoms: C9_13  and  C10_15
DOCKED: REMARK   12  A    between atoms: C10_15  and  C11_16
DOCKED: REMARK   13  A    between atoms: C10_15  and  N3_20
DOCKED: REMARK   14  A    between atoms: C11_16  and  C12_17
DOCKED: REMARK   15  A    between atoms: C12_17  and  C13_18
DOCKED: REMARK   16  A    between atoms: C12_17  and  C14_19
DOCKED: REMARK   17  A    between atoms: C15_21  and  C16_23
DOCKED: REMARK   18  A    between atoms: C16_23  and  C17_24
DOCKED: REMARK   19  A    between atoms: C16_23  and  N4_28
DOCKED: REMARK   20  A    between atoms: C17_24  and  C18_25
DOCKED: REMARK   21  A    between atoms: C18_25  and  S1_26
DOCKED: REMARK   22  A    between atoms: S1_26  and  C19_27
DOCKED: REMARK   23  A    between atoms: C20_29  and  C21_31
DOCKED: REMARK   24  A    between atoms: C21_31  and  N5_32
DOCKED: REMARK   25  A    between atoms: C21_31  and  C27_40
DOCKED: REMARK   26  A    between atoms: C22_33  and  O7_35
DOCKED: REMARK   27  A    between atoms: O7_35  and  C23_36
DOCKED: REMARK   28  A    between atoms: C23_36  and  C24_37
DOCKED: REMARK   29  A    between atoms: C23_36  and  C25_38
DOCKED: REMARK   30  A    between atoms: C23_36  and  C26_39
DOCKED: REMARK   31  A    between atoms: C27_40  and  C28_41
DOCKED: REMARK   32  A    between atoms: C27_40  and  C29_42
DOCKED: REMARK   33  A    between atoms: C30_43  and  C31_44
DOCKED: REMARK   34  A    between atoms: C30_43  and  C32_45
DOCKED: REMARK                            x       y       z     vdW  Elec       q    Type
DOCKED: REMARK                         _______ _______ _______ _____ _____    ______ ____
DOCKED: USER                              x       y       z     vdW  Elec       q    Type
DOCKED: USER                           _______ _______ _______ _____ _____    ______ ____
DOCKED: ROOT
DOCKED: ATOM      1  N3  UNL     1      11.528  -4.120  -3.628 +0.00 -0.00    -0.308 N  
DOCKED: ATOM      2  C15 UNL     1      11.237  -3.590  -4.869 +0.00 +0.00    +0.234 C  
DOCKED: ATOM      3  O4  UNL     1      11.846  -3.909  -5.888 +0.00 -0.00    -0.274 OA 
DOCKED: ATOM      4  H27 UNL     1      11.095  -3.701  -2.814 +0.00 +0.00    +0.149 HD 
DOCKED: ENDROOT
DOCKED: BRANCH   1   5
DOCKED: ATOM      5  C10 UNL     1      12.712  -4.967  -3.407 +0.00 +0.00    +0.102 C  
DOCKED: BRANCH   5   6
DOCKED: ATOM      6  C11 UNL     1      12.328  -6.459  -3.553 +0.00 +0.00    +0.028 C  
DOCKED: BRANCH   6   7
DOCKED: ATOM      7  C12 UNL     1      12.626  -7.146  -4.906 +0.00 -0.00    -0.015 C  
DOCKED: ATOM      8  C13 UNL     1      13.889  -6.601  -5.576 +0.00 +0.00    +0.007 C  
DOCKED: ATOM      9  C14 UNL     1      11.455  -7.127  -5.885 +0.00 +0.00    +0.007 C  
DOCKED: ENDBRANCH   6   7
DOCKED: ENDBRANCH   5   6
DOCKED: BRANCH   5  10
DOCKED: ATOM     10  C9  UNL     1      13.322  -4.646  -1.997 +0.00 +0.00    +0.143 C  
DOCKED: BRANCH  10  11
DOCKED: ATOM     11  O3  UNL     1      12.585  -3.686  -1.236 +0.00 -0.00    -0.389 OA 
DOCKED: ATOM     12  H16 UNL     1      11.647  -3.751  -1.480 +0.00 +0.00    +0.210 HD 
DOCKED: ENDBRANCH  10  11
DOCKED: BRANCH  10  13
DOCKED: ATOM     13  C8  UNL     1      13.580  -5.870  -1.110 +0.00 +0.00    +0.129 C  
DOCKED: BRANCH  13  15
DOCKED: ATOM     14  N2  UNL     1      11.669  -5.617   0.342 +0.00 -0.00    -0.304 N  
DOCKED: ATOM     15  C7  UNL     1      13.046  -5.767   0.310 +0.00 +0.00    +0.216 C  
DOCKED: ATOM     16  O2  UNL     1      13.732  -5.845   1.323 +0.00 -0.00    -0.276 OA 
DOCKED: ATOM     17  H12 UNL     1      11.258  -5.192  -0.482 +0.00 +0.00    +0.149 HD 
DOCKED: BRANCH  14  18
DOCKED: ATOM     18  C6  UNL     1      10.983  -5.294   1.593 +0.00 +0.00    +0.161 C  
DOCKED: BRANCH  18  20
DOCKED: ATOM     19  N1  UNL     1      10.966  -3.057   0.556 +0.00 -0.00    -0.314 N  
DOCKED: ATOM     20  C5  UNL     1      11.020  -3.760   1.741 +0.00 +0.00    +0.234 C  
DOCKED: ATOM     21  O1  UNL     1      11.145  -3.214   2.838 +0.00 -0.00    -0.274 OA 
DOCKED: ATOM     22  H10 UNL     1      10.637  -3.549  -0.268 +0.00 +0.00    +0.149 HD 
DOCKED: BRANCH  19  23
DOCKED: ATOM     23  C4  UNL     1      10.913  -1.610   0.545 +0.00 +0.00    +0.104 C  
DOCKED: BRANCH  23  24
DOCKED: ATOM     24  C3  UNL     1      12.248  -0.991   0.133 +0.00 +0.00    +0.018 C  
DOCKED: BRANCH  24  26
DOCKED: ATOM     25  C1  UNL     1      14.614  -1.849   0.063 +0.00 +0.00    +0.004 C  
DOCKED: ATOM     26  C2  UNL     1      13.403  -1.578   0.941 +0.00 -0.00    -0.002 C  
DOCKED: ENDBRANCH  24  26
DOCKED: ENDBRANCH  23  24
DOCKED: ENDBRANCH  19  23
DOCKED: ENDBRANCH  18  20
DOCKED: BRANCH  18  27
DOCKED: ATOM     27  C30 UNL     1       9.545  -5.862   1.596 +0.00 +0.00    +0.012 C  
DOCKED: ATOM     28  C31 UNL     1       8.655  -5.289   2.704 +0.00 +0.00    +0.009 C  
DOCKED: ATOM     29  C32 UNL     1       9.535  -7.392   1.661 +0.00 +0.00    +0.009 C  
DOCKED: ENDBRANCH  18  27
DOCKED: ENDBRANCH  14  18
DOCKED: ENDBRANCH  13  15
DOCKED: ENDBRANCH  10  13
DOCKED: ENDBRANCH   5  10
DOCKED: ENDBRANCH   1   5
DOCKED: BRANCH   2  30
DOCKED: ATOM     30  C16 UNL     1      10.061  -2.590  -4.889 +0.00 +0.00    +0.160 C  
DOCKED: BRANCH  30  31
DOCKED: ATOM     31  N4  UNL     1       9.046  -3.115  -3.990 +0.00 -0.00    -0.302 N  
DOCKED: ATOM     32  C20 UNL     1       9.114  -2.925  -2.628 +0.00 +0.00    +0.234 C  
DOCKED: ATOM     33  O5  UNL     1      10.103  -2.441  -2.076 +0.00 -0.00    -0.274 OA 
DOCKED: ATOM     34  H36 UNL     1       8.134  -3.275  -4.403 +0.00 +0.00    +0.150 HD 
DOCKED: BRANCH  32  35
DOCKED: ATOM     35  C21 UNL     1       7.837  -3.331  -1.859 +0.00 +0.00    +0.165 C  
DOCKED: BRANCH  35  36
DOCKED: ATOM     36  N5  UNL     1       7.781  -4.784  -1.801 +0.00 -0.00    -0.270 N  
DOCKED: ATOM     37  C22 UNL     1       8.884  -5.543  -1.561 +0.00 +0.00    +0.401 C  
DOCKED: ATOM     38  O6  UNL     1      10.036  -5.141  -1.579 +0.00 -0.00    -0.226 OA 
DOCKED: ATOM     39  H38 UNL     1       6.914  -5.206  -1.496 +0.00 +0.00    +0.153 HD 
DOCKED: BRANCH  37  40
DOCKED: ATOM     40  O7  UNL     1       8.484  -6.808  -1.304 +0.00 -0.00    -0.445 OA 
DOCKED: BRANCH  40  41
DOCKED: ATOM     41  C23 UNL     1       8.968  -7.915  -2.107 +0.00 +0.00    +0.107 C  
DOCKED: ATOM     42  C24 UNL     1       7.991  -9.095  -2.085 +0.00 +0.00    +0.055 C  
DOCKED: ATOM     43  C25 UNL     1       9.035  -7.360  -3.540 +0.00 +0.00    +0.055 C  
DOCKED: ATOM     44  C26 UNL     1      10.380  -8.335  -1.681 +0.00 +0.00    +0.055 C  
DOCKED: ENDBRANCH  40  41
DOCKED: ENDBRANCH  37  40
DOCKED: ENDBRANCH  35  36
DOCKED: BRANCH  35  45
DOCKED: ATOM     45  C27 UNL     1       7.807  -2.683  -0.460 +0.00 +0.00    +0.012 C  
DOCKED: ATOM     46  C28 UNL     1       6.825  -3.363   0.502 +0.00 +0.00    +0.009 C  
DOCKED: ATOM     47  C29 UNL     1       7.493  -1.187  -0.556 +0.00 +0.00    +0.009 C  
DOCKED: ENDBRANCH  35  45
DOCKED: ENDBRANCH  32  35
DOCKED: ENDBRANCH  30  31
DOCKED: BRANCH  30  48
DOCKED: ATOM     48  C17 UNL     1      10.545  -1.191  -4.483 +0.00 +0.00    +0.042 C  
DOCKED: BRANCH  48  49
DOCKED: ATOM     49  C18 UNL     1      12.045  -0.977  -4.703 +0.00 +0.00    +0.071 C  
DOCKED: BRANCH  49  50
DOCKED: ATOM     50  S1  UNL     1      12.986  -1.075  -3.145 +0.00 -0.00    -0.164 S  
DOCKED: ATOM     51  C19 UNL     1      14.463  -1.910  -3.767 +0.00 +0.00    +0.084 C  
DOCKED: ENDBRANCH  49  50
DOCKED: ENDBRANCH  48  49
DOCKED: ENDBRANCH  30  48
DOCKED: ENDBRANCH   2  30
DOCKED: TORSDOF 23
DOCKED: TER
DOCKED: ENDMDL
________________________________________________________________________________


    FINAL DOCKED STATE:
    ________________________


Run:   12 / 20
Time taken for this run:   1.806s

DOCKED: MODEL        12
DOCKED: USER    Run = 12
DOCKED: USER
DOCKED: USER    Estimated Free Energy of Binding    =  +6.86 kcal/mol  [=(1)+(2)+(3)-(4)]
DOCKED: USER
DOCKED: USER    (1) Final Intermolecular Energy     =  +0.00 kcal/mol
DOCKED: USER        vdW + Hbond + desolv Energy     =  +0.00 kcal/mol
DOCKED: USER        Electrostatic Energy            =  +0.00 kcal/mol
DOCKED: USER        Moving Ligand-Fixed Receptor    =  +0.00 kcal/mol
DOCKED: USER        Moving Ligand-Moving Receptor   =  +0.00 kcal/mol
DOCKED: USER    (2) Final Total Internal Energy     = -13.78 kcal/mol
DOCKED: USER    (3) Torsional Free Energy           =  +6.86 kcal/mol
DOCKED: USER    (4) Unbound System's Energy         = -13.78 kcal/mol
DOCKED: USER
DOCKED: USER
DOCKED: REMARK  Name = ligands/ligand_44.pdb
DOCKED: REMARK  34 active torsions:
DOCKED: REMARK  status: ('A' for Active; 'I' for Inactive)
DOCKED: REMARK    1  A    between atoms: C1_1  and  C2_2
DOCKED: REMARK    2  A    between atoms: C2_2  and  C3_3
DOCKED: REMARK    3  A    between atoms: C3_3  and  C4_4
DOCKED: REMARK    4  A    between atoms: C4_4  and  N1_5
DOCKED: REMARK    5  A    between atoms: C5_6  and  C6_8
DOCKED: REMARK    6  A    between atoms: C6_8  and  N2_9
DOCKED: REMARK    7  A    between atoms: C6_8  and  C30_43
DOCKED: REMARK    8  A    between atoms: C7_10  and  C8_12
DOCKED: REMARK    9  A    between atoms: C8_12  and  C9_13
DOCKED: REMARK   10  A    between atoms: C9_13  and  O3_14
DOCKED: REMARK   11  A    between atoms: C9_13  and  C10_15
DOCKED: REMARK   12  A    between atoms: C10_15  and  C11_16
DOCKED: REMARK   13  A    between atoms: C10_15  and  N3_20
DOCKED: REMARK   14  A    between atoms: C11_16  and  C12_17
DOCKED: REMARK   15  A    between atoms: C12_17  and  C13_18
DOCKED: REMARK   16  A    between atoms: C12_17  and  C14_19
DOCKED: REMARK   17  A    between atoms: C15_21  and  C16_23
DOCKED: REMARK   18  A    between atoms: C16_23  and  C17_24
DOCKED: REMARK   19  A    between atoms: C16_23  and  N4_28
DOCKED: REMARK   20  A    between atoms: C17_24  and  C18_25
DOCKED: REMARK   21  A    between atoms: C18_25  and  S1_26
DOCKED: REMARK   22  A    between atoms: S1_26  and  C19_27
DOCKED: REMARK   23  A    between atoms: C20_29  and  C21_31
DOCKED: REMARK   24  A    between atoms: C21_31  and  N5_32
DOCKED: REMARK   25  A    between atoms: C21_31  and  C27_40
DOCKED: REMARK   26  A    between atoms: C22_33  and  O7_35
DOCKED: REMARK   27  A    between atoms: O7_35  and  C23_36
DOCKED: REMARK   28  A    between atoms: C23_36  and  C24_37
DOCKED: REMARK   29  A    between atoms: C23_36  and  C25_38
DOCKED: REMARK   30  A    between atoms: C23_36  and  C26_39
DOCKED: REMARK   31  A    between atoms: C27_40  and  C28_41
DOCKED: REMARK   32  A    between atoms: C27_40  and  C29_42
DOCKED: REMARK   33  A    between atoms: C30_43  and  C31_44
DOCKED: REMARK   34  A    between atoms: C30_43  and  C32_45
DOCKED: REMARK                            x       y       z     vdW  Elec       q    Type
DOCKED: REMARK                         _______ _______ _______ _____ _____    ______ ____
DOCKED: USER                              x       y       z     vdW  Elec       q    Type
DOCKED: USER                           _______ _______ _______ _____ _____    ______ ____
DOCKED: ROOT
DOCKED: ATOM      1  N3  UNL     1       8.219  -6.234  -3.147 +0.00 -0.00    -0.308 N  
DOCKED: ATOM      2  C15 UNL     1       8.936  -5.099  -2.823 +0.00 +0.00    +0.234 C  
DOCKED: ATOM      3  O4  UNL     1       9.946  -5.128  -2.123 +0.00 -0.00    -0.274 OA 
DOCKED: ATOM      4  H27 UNL     1       7.317  -6.121  -3.593 +0.00 +0.00    +0.149 HD 
DOCKED: ENDROOT
DOCKED: BRANCH   1   5
DOCKED: ATOM      5  C10 UNL     1       8.508  -7.536  -2.523 +0.00 +0.00    +0.102 C  
DOCKED: BRANCH   5   6
DOCKED: ATOM      6  C11 UNL     1       9.335  -8.414  -3.492 +0.00 +0.00    +0.028 C  
DOCKED: BRANCH   6   7
DOCKED: ATOM      7  C12 UNL     1       8.985  -8.344  -4.997 +0.00 -0.00    -0.015 C  
DOCKED: ATOM      8  C13 UNL     1       8.634  -9.713  -5.582 +0.00 +0.00    +0.007 C  
DOCKED: ATOM      9  C14 UNL     1      10.048  -7.658  -5.851 +0.00 +0.00    +0.007 C  
DOCKED: ENDBRANCH   6   7
DOCKED: ENDBRANCH   5   6
DOCKED: BRANCH   5  10
DOCKED: ATOM     10  C9  UNL     1       7.159  -8.221  -2.106 +0.00 +0.00    +0.143 C  
DOCKED: BRANCH  10  11
DOCKED: ATOM     11  O3  UNL     1       5.987  -7.586  -2.622 +0.00 -0.00    -0.389 OA 
DOCKED: ATOM     12  H16 UNL     1       5.890  -7.827  -3.558 +0.00 +0.00    +0.210 HD 
DOCKED: ENDBRANCH  10  11
DOCKED: BRANCH  10  13
DOCKED: ATOM     13  C8  UNL     1       7.072  -9.720  -2.413 +0.00 +0.00    +0.129 C  
DOCKED: BRANCH  13  15
DOCKED: ATOM     14  N2  UNL     1       4.886  -9.987  -3.401 +0.00 -0.00    -0.304 N  
DOCKED: ATOM     15  C7  UNL     1       5.679 -10.323  -2.316 +0.00 +0.00    +0.216 C  
DOCKED: ATOM     16  O2  UNL     1       5.296 -11.057  -1.412 +0.00 -0.00    -0.276 OA 
DOCKED: ATOM     17  H12 UNL     1       5.129  -9.118  -3.865 +0.00 +0.00    +0.149 HD 
DOCKED: BRANCH  14  18
DOCKED: ATOM     18  C6  UNL     1       3.456 -10.292  -3.402 +0.00 +0.00    +0.161 C  
DOCKED: BRANCH  18  20
DOCKED: ATOM     19  N1  UNL     1       3.490  -7.834  -3.606 +0.00 -0.00    -0.314 N  
DOCKED: ATOM     20  C5  UNL     1       2.710  -8.943  -3.350 +0.00 +0.00    +0.234 C  
DOCKED: ATOM     21  O1  UNL     1       1.520  -8.867  -3.046 +0.00 -0.00    -0.274 OA 
DOCKED: ATOM     22  H10 UNL     1       4.382  -7.983  -4.066 +0.00 +0.00    +0.149 HD 
DOCKED: BRANCH  19  23
DOCKED: ATOM     23  C4  UNL     1       2.911  -6.509  -3.669 +0.00 +0.00    +0.104 C  
DOCKED: BRANCH  23  24
DOCKED: ATOM     24  C3  UNL     1       2.581  -5.961  -2.281 +0.00 +0.00    +0.018 C  
DOCKED: BRANCH  24  26
DOCKED: ATOM     25  C1  UNL     1       3.685  -7.268  -0.434 +0.00 +0.00    +0.004 C  
DOCKED: ATOM     26  C2  UNL     1       3.786  -6.057  -1.349 +0.00 -0.00    -0.002 C  
DOCKED: ENDBRANCH  24  26
DOCKED: ENDBRANCH  23  24
DOCKED: ENDBRANCH  19  23
DOCKED: ENDBRANCH  18  20
DOCKED: BRANCH  18  27
DOCKED: ATOM     27  C30 UNL     1       3.073 -11.141  -4.636 +0.00 +0.00    +0.012 C  
DOCKED: ATOM     28  C31 UNL     1       1.567 -11.176  -4.920 +0.00 +0.00    +0.009 C  
DOCKED: ATOM     29  C32 UNL     1       3.618 -12.569  -4.538 +0.00 +0.00    +0.009 C  
DOCKED: ENDBRANCH  18  27
DOCKED: ENDBRANCH  14  18
DOCKED: ENDBRANCH  13  15
DOCKED: ENDBRANCH  10  13
DOCKED: ENDBRANCH   5  10
DOCKED: ENDBRANCH   1   5
DOCKED: BRANCH   2  30
DOCKED: ATOM     30  C16 UNL     1       8.395  -3.791  -3.438 +0.00 +0.00    +0.160 C  
DOCKED: BRANCH  30  31
DOCKED: ATOM     31  N4  UNL     1       7.615  -4.165  -4.607 +0.00 -0.00    -0.302 N  
DOCKED: ATOM     32  C20 UNL     1       8.212  -4.602  -5.768 +0.00 +0.00    +0.234 C  
DOCKED: ATOM     33  O5  UNL     1       9.430  -4.556  -5.945 +0.00 -0.00    -0.274 OA 
DOCKED: ATOM     34  H36 UNL     1       6.661  -4.457  -4.424 +0.00 +0.00    +0.150 HD 
DOCKED: BRANCH  32  35
DOCKED: ATOM     35  C21 UNL     1       7.234  -5.186  -6.812 +0.00 +0.00    +0.165 C  
DOCKED: BRANCH  35  36
DOCKED: ATOM     36  N5  UNL     1       6.993  -6.582  -6.482 +0.00 -0.00    -0.270 N  
DOCKED: ATOM     37  C22 UNL     1       6.063  -6.960  -5.564 +0.00 +0.00    +0.401 C  
DOCKED: ATOM     38  O6  UNL     1       5.495  -6.212  -4.785 +0.00 -0.00    -0.226 OA 
DOCKED: ATOM     39  H38 UNL     1       7.165  -7.270  -7.202 +0.00 +0.00    +0.153 HD 
DOCKED: BRANCH  37  40
DOCKED: ATOM     40  O7  UNL     1       5.881  -8.295  -5.664 +0.00 -0.00    -0.445 OA 
DOCKED: BRANCH  40  41
DOCKED: ATOM     41  C23 UNL     1       5.091  -8.855  -6.744 +0.00 +0.00    +0.107 C  
DOCKED: ATOM     42  C24 UNL     1       5.596  -8.384  -8.112 +0.00 +0.00    +0.055 C  
DOCKED: ATOM     43  C25 UNL     1       5.305 -10.375  -6.639 +0.00 +0.00    +0.055 C  
DOCKED: ATOM     44  C26 UNL     1       3.599  -8.559  -6.553 +0.00 +0.00    +0.055 C  
DOCKED: ENDBRANCH  40  41
DOCKED: ENDBRANCH  37  40
DOCKED: ENDBRANCH  35  36
DOCKED: BRANCH  35  45
DOCKED: ATOM     45  C27 UNL     1       5.933  -4.361  -6.871 +0.00 +0.00    +0.012 C  
DOCKED: ATOM     46  C28 UNL     1       4.915  -4.904  -7.881 +0.00 +0.00    +0.009 C  
DOCKED: ATOM     47  C29 UNL     1       6.231  -2.889  -7.171 +0.00 +0.00    +0.009 C  
DOCKED: ENDBRANCH  35  45
DOCKED: ENDBRANCH  32  35
DOCKED: ENDBRANCH  30  31
DOCKED: BRANCH  30  48
DOCKED: ATOM     48  C17 UNL     1       7.571  -3.017  -2.401 +0.00 +0.00    +0.042 C  
DOCKED: BRANCH  48  49
DOCKED: ATOM     49  C18 UNL     1       6.291  -3.742  -1.974 +0.00 +0.00    +0.071 C  
DOCKED: BRANCH  49  50
DOCKED: ATOM     50  S1  UNL     1       4.912  -3.429  -3.124 +0.00 -0.00    -0.164 S  
DOCKED: ATOM     51  C19 UNL     1       5.467  -1.845  -3.796 +0.00 +0.00    +0.084 C  
DOCKED: ENDBRANCH  49  50
DOCKED: ENDBRANCH  48  49
DOCKED: ENDBRANCH  30  48
DOCKED: ENDBRANCH   2  30
DOCKED: TORSDOF 23
DOCKED: TER
DOCKED: ENDMDL
________________________________________________________________________________


    FINAL DOCKED STATE:
    ________________________


Run:   13 / 20
Time taken for this run:   1.806s

DOCKED: MODEL        13
DOCKED: USER    Run = 13
DOCKED: USER
DOCKED: USER    Estimated Free Energy of Binding    =  +6.86 kcal/mol  [=(1)+(2)+(3)-(4)]
DOCKED: USER
DOCKED: USER    (1) Final Intermolecular Energy     =  +0.00 kcal/mol
DOCKED: USER        vdW + Hbond + desolv Energy     =  +0.00 kcal/mol
DOCKED: USER        Electrostatic Energy            =  +0.00 kcal/mol
DOCKED: USER        Moving Ligand-Fixed Receptor    =  +0.00 kcal/mol
DOCKED: USER        Moving Ligand-Moving Receptor   =  +0.00 kcal/mol
DOCKED: USER    (2) Final Total Internal Energy     = -13.68 kcal/mol
DOCKED: USER    (3) Torsional Free Energy           =  +6.86 kcal/mol
DOCKED: USER    (4) Unbound System's Energy         = -13.68 kcal/mol
DOCKED: USER
DOCKED: USER
DOCKED: REMARK  Name = ligands/ligand_44.pdb
DOCKED: REMARK  34 active torsions:
DOCKED: REMARK  status: ('A' for Active; 'I' for Inactive)
DOCKED: REMARK    1  A    between atoms: C1_1  and  C2_2
DOCKED: REMARK    2  A    between atoms: C2_2  and  C3_3
DOCKED: REMARK    3  A    between atoms: C3_3  and  C4_4
DOCKED: REMARK    4  A    between atoms: C4_4  and  N1_5
DOCKED: REMARK    5  A    between atoms: C5_6  and  C6_8
DOCKED: REMARK    6  A    between atoms: C6_8  and  N2_9
DOCKED: REMARK    7  A    between atoms: C6_8  and  C30_43
DOCKED: REMARK    8  A    between atoms: C7_10  and  C8_12
DOCKED: REMARK    9  A    between atoms: C8_12  and  C9_13
DOCKED: REMARK   10  A    between atoms: C9_13  and  O3_14
DOCKED: REMARK   11  A    between atoms: C9_13  and  C10_15
DOCKED: REMARK   12  A    between atoms: C10_15  and  C11_16
DOCKED: REMARK   13  A    between atoms: C10_15  and  N3_20
DOCKED: REMARK   14  A    between atoms: C11_16  and  C12_17
DOCKED: REMARK   15  A    between atoms: C12_17  and  C13_18
DOCKED: REMARK   16  A    between atoms: C12_17  and  C14_19
DOCKED: REMARK   17  A    between atoms: C15_21  and  C16_23
DOCKED: REMARK   18  A    between atoms: C16_23  and  C17_24
DOCKED: REMARK   19  A    between atoms: C16_23  and  N4_28
DOCKED: REMARK   20  A    between atoms: C17_24  and  C18_25
DOCKED: REMARK   21  A    between atoms: C18_25  and  S1_26
DOCKED: REMARK   22  A    between atoms: S1_26  and  C19_27
DOCKED: REMARK   23  A    between atoms: C20_29  and  C21_31
DOCKED: REMARK   24  A    between atoms: C21_31  and  N5_32
DOCKED: REMARK   25  A    between atoms: C21_31  and  C27_40
DOCKED: REMARK   26  A    between atoms: C22_33  and  O7_35
DOCKED: REMARK   27  A    between atoms: O7_35  and  C23_36
DOCKED: REMARK   28  A    between atoms: C23_36  and  C24_37
DOCKED: REMARK   29  A    between atoms: C23_36  and  C25_38
DOCKED: REMARK   30  A    between atoms: C23_36  and  C26_39
DOCKED: REMARK   31  A    between atoms: C27_40  and  C28_41
DOCKED: REMARK   32  A    between atoms: C27_40  and  C29_42
DOCKED: REMARK   33  A    between atoms: C30_43  and  C31_44
DOCKED: REMARK   34  A    between atoms: C30_43  and  C32_45
DOCKED: REMARK                            x       y       z     vdW  Elec       q    Type
DOCKED: REMARK                         _______ _______ _______ _____ _____    ______ ____
DOCKED: USER                              x       y       z     vdW  Elec       q    Type
DOCKED: USER                           _______ _______ _______ _____ _____    ______ ____
DOCKED: ROOT
DOCKED: ATOM      1  N3  UNL     1      13.092  -7.333   2.745 +0.00 -0.00    -0.308 N  
DOCKED: ATOM      2  C15 UNL     1      12.481  -6.487   3.648 +0.00 +0.00    +0.234 C  
DOCKED: ATOM      3  O4  UNL     1      11.309  -6.131   3.537 +0.00 -0.00    -0.274 OA 
DOCKED: ATOM      4  H27 UNL     1      14.095  -7.460   2.810 +0.00 +0.00    +0.149 HD 
DOCKED: ENDROOT
DOCKED: BRANCH   1   5
DOCKED: ATOM      5  C10 UNL     1      12.439  -7.723   1.484 +0.00 +0.00    +0.102 C  
DOCKED: BRANCH   5   6
DOCKED: ATOM      6  C11 UNL     1      11.924  -9.178   1.584 +0.00 +0.00    +0.028 C  
DOCKED: BRANCH   6   7
DOCKED: ATOM      7  C12 UNL     1      12.500 -10.066   2.711 +0.00 -0.00    -0.015 C  
DOCKED: ATOM      8  C13 UNL     1      12.566 -11.543   2.319 +0.00 +0.00    +0.007 C  
DOCKED: ATOM      9  C14 UNL     1      11.794  -9.904   4.054 +0.00 +0.00    +0.007 C  
DOCKED: ENDBRANCH   6   7
DOCKED: ENDBRANCH   5   6
DOCKED: BRANCH   5  10
DOCKED: ATOM     10  C9  UNL     1      13.448  -7.530   0.298 +0.00 +0.00    +0.143 C  
DOCKED: BRANCH  10  11
DOCKED: ATOM     11  O3  UNL     1      14.667  -6.874   0.656 +0.00 -0.00    -0.389 OA 
DOCKED: ATOM     12  H16 UNL     1      14.963  -7.216   1.516 +0.00 +0.00    +0.210 HD 
DOCKED: ENDBRANCH  10  11
DOCKED: BRANCH  10  13
DOCKED: ATOM     13  C8  UNL     1      13.796  -8.811  -0.470 +0.00 +0.00    +0.129 C  
DOCKED: BRANCH  13  15
DOCKED: ATOM     14  N2  UNL     1      16.173  -8.948  -0.069 +0.00 -0.00    -0.304 N  
DOCKED: ATOM     15  C7  UNL     1      15.201  -8.857  -1.052 +0.00 +0.00    +0.216 C  
DOCKED: ATOM     16  O2  UNL     1      15.462  -8.856  -2.250 +0.00 -0.00    -0.276 OA 
DOCKED: ATOM     17  H12 UNL     1      15.914  -8.568   0.835 +0.00 +0.00    +0.149 HD 
DOCKED: BRANCH  14  18
DOCKED: ATOM     18  C6  UNL     1      17.589  -8.798  -0.404 +0.00 +0.00    +0.161 C  
DOCKED: BRANCH  18  20
DOCKED: ATOM     19  N1  UNL     1      17.201  -6.788   0.972 +0.00 -0.00    -0.314 N  
DOCKED: ATOM     20  C5  UNL     1      17.997  -7.369   0.007 +0.00 +0.00    +0.234 C  
DOCKED: ATOM     21  O1  UNL     1      18.931  -6.778  -0.534 +0.00 -0.00    -0.274 OA 
DOCKED: ATOM     22  H10 UNL     1      16.610  -7.401   1.524 +0.00 +0.00    +0.149 HD 
DOCKED: BRANCH  19  23
DOCKED: ATOM     23  C4  UNL     1      17.510  -5.481   1.512 +0.00 +0.00    +0.104 C  
DOCKED: BRANCH  23  24
DOCKED: ATOM     24  C3  UNL     1      16.612  -4.393   0.926 +0.00 +0.00    +0.018 C  
DOCKED: BRANCH  24  26
DOCKED: ATOM     25  C1  UNL     1      15.534  -4.792  -1.313 +0.00 +0.00    +0.004 C  
DOCKED: ATOM     26  C2  UNL     1      16.775  -4.296  -0.589 +0.00 -0.00    -0.002 C  
DOCKED: ENDBRANCH  24  26
DOCKED: ENDBRANCH  23  24
DOCKED: ENDBRANCH  19  23
DOCKED: ENDBRANCH  18  20
DOCKED: BRANCH  18  27
DOCKED: ATOM     27  C30 UNL     1      18.438  -9.887   0.290 +0.00 +0.00    +0.012 C  
DOCKED: ATOM     28  C31 UNL     1      19.583  -9.329   1.144 +0.00 +0.00    +0.009 C  
DOCKED: ATOM     29  C32 UNL     1      18.985 -10.909  -0.710 +0.00 +0.00    +0.009 C  
DOCKED: ENDBRANCH  18  27
DOCKED: ENDBRANCH  14  18
DOCKED: ENDBRANCH  13  15
DOCKED: ENDBRANCH  10  13
DOCKED: ENDBRANCH   5  10
DOCKED: ENDBRANCH   1   5
DOCKED: BRANCH   2  30
DOCKED: ATOM     30  C16 UNL     1      13.368  -6.047   4.831 +0.00 +0.00    +0.160 C  
DOCKED: BRANCH  30  31
DOCKED: ATOM     31  N4  UNL     1      14.358  -7.093   5.028 +0.00 -0.00    -0.302 N  
DOCKED: ATOM     32  C20 UNL     1      15.518  -7.143   4.288 +0.00 +0.00    +0.234 C  
DOCKED: ATOM     33  O5  UNL     1      15.719  -6.409   3.320 +0.00 -0.00    -0.274 OA 
DOCKED: ATOM     34  H36 UNL     1      14.357  -7.533   5.941 +0.00 +0.00    +0.150 HD 
DOCKED: BRANCH  32  35
DOCKED: ATOM     35  C21 UNL     1      16.559  -8.167   4.794 +0.00 +0.00    +0.165 C  
DOCKED: BRANCH  35  36
DOCKED: ATOM     36  N5  UNL     1      16.057  -9.504   4.519 +0.00 -0.00    -0.270 N  
DOCKED: ATOM     37  C22 UNL     1      15.636  -9.881   3.282 +0.00 +0.00    +0.401 C  
DOCKED: ATOM     38  O6  UNL     1      15.432  -9.125   2.345 +0.00 -0.00    -0.226 OA 
DOCKED: ATOM     39  H38 UNL     1      16.416 -10.264   5.082 +0.00 +0.00    +0.153 HD 
DOCKED: BRANCH  37  40
DOCKED: ATOM     40  O7  UNL     1      15.484 -11.224   3.272 +0.00 -0.00    -0.445 OA 
DOCKED: BRANCH  40  41
DOCKED: ATOM     41  C23 UNL     1      16.332 -12.058   2.442 +0.00 +0.00    +0.107 C  
DOCKED: ATOM     42  C24 UNL     1      17.816 -11.812   2.731 +0.00 +0.00    +0.055 C  
DOCKED: ATOM     43  C25 UNL     1      15.984 -13.499   2.852 +0.00 +0.00    +0.055 C  
DOCKED: ATOM     44  C26 UNL     1      16.002 -11.882   0.955 +0.00 +0.00    +0.055 C  
DOCKED: ENDBRANCH  40  41
DOCKED: ENDBRANCH  37  40
DOCKED: ENDBRANCH  35  36
DOCKED: BRANCH  35  45
DOCKED: ATOM     45  C27 UNL     1      17.939  -7.912   4.155 +0.00 +0.00    +0.012 C  
DOCKED: ATOM     46  C28 UNL     1      18.954  -9.027   4.438 +0.00 +0.00    +0.009 C  
DOCKED: ATOM     47  C29 UNL     1      18.509  -6.562   4.601 +0.00 +0.00    +0.009 C  
DOCKED: ENDBRANCH  35  45
DOCKED: ENDBRANCH  32  35
DOCKED: ENDBRANCH  30  31
DOCKED: BRANCH  30  48
DOCKED: ATOM     48  C17 UNL     1      14.003  -4.680   4.541 +0.00 +0.00    +0.042 C  
DOCKED: BRANCH  48  49
DOCKED: ATOM     49  C18 UNL     1      13.081  -3.731   3.770 +0.00 +0.00    +0.071 C  
DOCKED: BRANCH  49  50
DOCKED: ATOM     50  S1  UNL     1      13.818  -3.192   2.193 +0.00 -0.00    -0.164 S  
DOCKED: ATOM     51  C19 UNL     1      12.831  -4.205   1.066 +0.00 +0.00    +0.084 C  
DOCKED: ENDBRANCH  49  50
DOCKED: ENDBRANCH  48  49
DOCKED: ENDBRANCH  30  48
DOCKED: ENDBRANCH   2  30
DOCKED: TORSDOF 23
DOCKED: TER
DOCKED: ENDMDL
________________________________________________________________________________


    FINAL DOCKED STATE:
    ________________________


Run:   14 / 20
Time taken for this run:   1.806s

DOCKED: MODEL        14
DOCKED: USER    Run = 14
DOCKED: USER
DOCKED: USER    Estimated Free Energy of Binding    =  +6.86 kcal/mol  [=(1)+(2)+(3)-(4)]
DOCKED: USER
DOCKED: USER    (1) Final Intermolecular Energy     =  +0.00 kcal/mol
DOCKED: USER        vdW + Hbond + desolv Energy     =  +0.00 kcal/mol
DOCKED: USER        Electrostatic Energy            =  +0.00 kcal/mol
DOCKED: USER        Moving Ligand-Fixed Receptor    =  +0.00 kcal/mol
DOCKED: USER        Moving Ligand-Moving Receptor   =  +0.00 kcal/mol
DOCKED: USER    (2) Final Total Internal Energy     = -13.85 kcal/mol
DOCKED: USER    (3) Torsional Free Energy           =  +6.86 kcal/mol
DOCKED: USER    (4) Unbound System's Energy         = -13.85 kcal/mol
DOCKED: USER
DOCKED: USER
DOCKED: REMARK  Name = ligands/ligand_44.pdb
DOCKED: REMARK  34 active torsions:
DOCKED: REMARK  status: ('A' for Active; 'I' for Inactive)
DOCKED: REMARK    1  A    between atoms: C1_1  and  C2_2
DOCKED: REMARK    2  A    between atoms: C2_2  and  C3_3
DOCKED: REMARK    3  A    between atoms: C3_3  and  C4_4
DOCKED: REMARK    4  A    between atoms: C4_4  and  N1_5
DOCKED: REMARK    5  A    between atoms: C5_6  and  C6_8
DOCKED: REMARK    6  A    between atoms: C6_8  and  N2_9
DOCKED: REMARK    7  A    between atoms: C6_8  and  C30_43
DOCKED: REMARK    8  A    between atoms: C7_10  and  C8_12
DOCKED: REMARK    9  A    between atoms: C8_12  and  C9_13
DOCKED: REMARK   10  A    between atoms: C9_13  and  O3_14
DOCKED: REMARK   11  A    between atoms: C9_13  and  C10_15
DOCKED: REMARK   12  A    between atoms: C10_15  and  C11_16
DOCKED: REMARK   13  A    between atoms: C10_15  and  N3_20
DOCKED: REMARK   14  A    between atoms: C11_16  and  C12_17
DOCKED: REMARK   15  A    between atoms: C12_17  and  C13_18
DOCKED: REMARK   16  A    between atoms: C12_17  and  C14_19
DOCKED: REMARK   17  A    between atoms: C15_21  and  C16_23
DOCKED: REMARK   18  A    between atoms: C16_23  and  C17_24
DOCKED: REMARK   19  A    between atoms: C16_23  and  N4_28
DOCKED: REMARK   20  A    between atoms: C17_24  and  C18_25
DOCKED: REMARK   21  A    between atoms: C18_25  and  S1_26
DOCKED: REMARK   22  A    between atoms: S1_26  and  C19_27
DOCKED: REMARK   23  A    between atoms: C20_29  and  C21_31
DOCKED: REMARK   24  A    between atoms: C21_31  and  N5_32
DOCKED: REMARK   25  A    between atoms: C21_31  and  C27_40
DOCKED: REMARK   26  A    between atoms: C22_33  and  O7_35
DOCKED: REMARK   27  A    between atoms: O7_35  and  C23_36
DOCKED: REMARK   28  A    between atoms: C23_36  and  C24_37
DOCKED: REMARK   29  A    between atoms: C23_36  and  C25_38
DOCKED: REMARK   30  A    between atoms: C23_36  and  C26_39
DOCKED: REMARK   31  A    between atoms: C27_40  and  C28_41
DOCKED: REMARK   32  A    between atoms: C27_40  and  C29_42
DOCKED: REMARK   33  A    between atoms: C30_43  and  C31_44
DOCKED: REMARK   34  A    between atoms: C30_43  and  C32_45
DOCKED: REMARK                            x       y       z     vdW  Elec       q    Type
DOCKED: REMARK                         _______ _______ _______ _____ _____    ______ ____
DOCKED: USER                              x       y       z     vdW  Elec       q    Type
DOCKED: USER                           _______ _______ _______ _____ _____    ______ ____
DOCKED: ROOT
DOCKED: ATOM      1  N3  UNL     1       8.381   1.321  -0.300 +0.00 -0.00    -0.308 N  
DOCKED: ATOM      2  C15 UNL     1       7.904   0.026  -0.252 +0.00 +0.00    +0.234 C  
DOCKED: ATOM      3  O4  UNL     1       7.619  -0.538   0.802 +0.00 -0.00    -0.274 OA 
DOCKED: ATOM      4  H27 UNL     1       8.741   1.666  -1.182 +0.00 +0.00    +0.149 HD 
DOCKED: ENDROOT
DOCKED: BRANCH   1   5
DOCKED: ATOM      5  C10 UNL     1       8.757   2.053   0.920 +0.00 +0.00    +0.102 C  
DOCKED: BRANCH   5   6
DOCKED: ATOM      6  C11 UNL     1       7.610   3.001   1.342 +0.00 +0.00    +0.028 C  
DOCKED: BRANCH   6   7
DOCKED: ATOM      7  C12 UNL     1       6.641   2.507   2.442 +0.00 -0.00    -0.015 C  
DOCKED: ATOM      8  C13 UNL     1       7.372   1.893   3.637 +0.00 +0.00    +0.007 C  
DOCKED: ATOM      9  C14 UNL     1       5.559   1.556   1.936 +0.00 +0.00    +0.007 C  
DOCKED: ENDBRANCH   6   7
DOCKED: ENDBRANCH   5   6
DOCKED: BRANCH   5  10
DOCKED: ATOM     10  C9  UNL     1      10.102   2.823   0.668 +0.00 +0.00    +0.143 C  
DOCKED: BRANCH  10  11
DOCKED: ATOM     11  O3  UNL     1      10.573   2.768  -0.680 +0.00 -0.00    -0.389 OA 
DOCKED: ATOM     12  H16 UNL     1       9.808   2.684  -1.273 +0.00 +0.00    +0.210 HD 
DOCKED: ENDBRANCH  10  11
DOCKED: BRANCH  10  13
DOCKED: ATOM     13  C8  UNL     1      10.103   4.287   1.121 +0.00 +0.00    +0.129 C  
DOCKED: BRANCH  13  15
DOCKED: ATOM     14  N2  UNL     1       9.686   5.254  -1.051 +0.00 -0.00    -0.304 N  
DOCKED: ATOM     15  C7  UNL     1      10.515   5.295   0.058 +0.00 +0.00    +0.216 C  
DOCKED: ATOM     16  O2  UNL     1      11.443   6.087   0.169 +0.00 -0.00    -0.276 OA 
DOCKED: ATOM     17  H12 UNL     1       9.225   4.366  -1.217 +0.00 +0.00    +0.149 HD 
DOCKED: BRANCH  14  18
DOCKED: ATOM     18  C6  UNL     1      10.028   5.993  -2.265 +0.00 +0.00    +0.161 C  
DOCKED: BRANCH  18  20
DOCKED: ATOM     19  N1  UNL     1      10.807   3.760  -2.964 +0.00 -0.00    -0.314 N  
DOCKED: ATOM     20  C5  UNL     1      11.023   5.119  -3.056 +0.00 +0.00    +0.234 C  
DOCKED: ATOM     21  O1  UNL     1      11.969   5.606  -3.674 +0.00 -0.00    -0.274 OA 
DOCKED: ATOM     22  H10 UNL     1       9.897   3.450  -2.640 +0.00 +0.00    +0.149 HD 
DOCKED: BRANCH  19  23
DOCKED: ATOM     23  C4  UNL     1      11.612   2.821  -3.716 +0.00 +0.00    +0.104 C  
DOCKED: BRANCH  23  24
DOCKED: ATOM     24  C3  UNL     1      12.611   2.083  -2.826 +0.00 +0.00    +0.018 C  
DOCKED: BRANCH  24  26
DOCKED: ATOM     25  C1  UNL     1      13.594   2.576  -0.561 +0.00 +0.00    +0.004 C  
DOCKED: ATOM     26  C2  UNL     1      13.438   3.060  -1.994 +0.00 -0.00    -0.002 C  
DOCKED: ENDBRANCH  24  26
DOCKED: ENDBRANCH  23  24
DOCKED: ENDBRANCH  19  23
DOCKED: ENDBRANCH  18  20
DOCKED: BRANCH  18  27
DOCKED: ATOM     27  C30 UNL     1       8.760   6.342  -3.076 +0.00 +0.00    +0.012 C  
DOCKED: ATOM     28  C31 UNL     1       9.001   6.456  -4.586 +0.00 +0.00    +0.009 C  
DOCKED: ATOM     29  C32 UNL     1       8.082   7.614  -2.560 +0.00 +0.00    +0.009 C  
DOCKED: ENDBRANCH  18  27
DOCKED: ENDBRANCH  14  18
DOCKED: ENDBRANCH  13  15
DOCKED: ENDBRANCH  10  13
DOCKED: ENDBRANCH   5  10
DOCKED: ENDBRANCH   1   5
DOCKED: BRANCH   2  30
DOCKED: ATOM     30  C16 UNL     1       7.720  -0.651  -1.626 +0.00 +0.00    +0.160 C  
DOCKED: BRANCH  30  31
DOCKED: ATOM     31  N4  UNL     1       7.221   0.369  -2.535 +0.00 -0.00    -0.302 N  
DOCKED: ATOM     32  C20 UNL     1       8.064   1.268  -3.149 +0.00 +0.00    +0.234 C  
DOCKED: ATOM     33  O5  UNL     1       9.255   1.368  -2.854 +0.00 -0.00    -0.274 OA 
DOCKED: ATOM     34  H36 UNL     1       6.336   0.162  -2.985 +0.00 +0.00    +0.150 HD 
DOCKED: BRANCH  32  35
DOCKED: ATOM     35  C21 UNL     1       7.401   2.112  -4.261 +0.00 +0.00    +0.165 C  
DOCKED: BRANCH  35  36
DOCKED: ATOM     36  N5  UNL     1       6.560   3.119  -3.632 +0.00 -0.00    -0.270 N  
DOCKED: ATOM     37  C22 UNL     1       6.962   3.818  -2.536 +0.00 +0.00    +0.401 C  
DOCKED: ATOM     38  O6  UNL     1       7.934   3.554  -1.847 +0.00 -0.00    -0.226 OA 
DOCKED: ATOM     39  H38 UNL     1       5.904   3.615  -4.221 +0.00 +0.00    +0.153 HD 
DOCKED: BRANCH  37  40
DOCKED: ATOM     40  O7  UNL     1       6.103   4.844  -2.346 +0.00 -0.00    -0.445 OA 
DOCKED: BRANCH  40  41
DOCKED: ATOM     41  C23 UNL     1       5.435   5.022  -1.070 +0.00 +0.00    +0.107 C  
DOCKED: ATOM     42  C24 UNL     1       6.348   5.711  -0.050 +0.00 +0.00    +0.055 C  
DOCKED: ATOM     43  C25 UNL     1       4.250   5.954  -1.375 +0.00 +0.00    +0.055 C  
DOCKED: ATOM     44  C26 UNL     1       4.886   3.693  -0.539 +0.00 +0.00    +0.055 C  
DOCKED: ENDBRANCH  40  41
DOCKED: ENDBRANCH  37  40
DOCKED: ENDBRANCH  35  36
DOCKED: BRANCH  35  45
DOCKED: ATOM     45  C27 UNL     1       8.465   2.730  -5.192 +0.00 +0.00    +0.012 C  
DOCKED: ATOM     46  C28 UNL     1       7.884   3.735  -6.194 +0.00 +0.00    +0.009 C  
DOCKED: ATOM     47  C29 UNL     1       9.241   1.640  -5.937 +0.00 +0.00    +0.009 C  
DOCKED: ENDBRANCH  35  45
DOCKED: ENDBRANCH  32  35
DOCKED: ENDBRANCH  30  31
DOCKED: BRANCH  30  48
DOCKED: ATOM     48  C17 UNL     1       9.044  -1.267  -2.098 +0.00 +0.00    +0.042 C  
DOCKED: BRANCH  48  49
DOCKED: ATOM     49  C18 UNL     1      10.012  -1.580  -0.954 +0.00 +0.00    +0.071 C  
DOCKED: BRANCH  49  50
DOCKED: ATOM     50  S1  UNL     1      11.355  -0.353  -0.841 +0.00 -0.00    -0.164 S  
DOCKED: ATOM     51  C19 UNL     1      11.505  -0.273   0.959 +0.00 +0.00    +0.084 C  
DOCKED: ENDBRANCH  49  50
DOCKED: ENDBRANCH  48  49
DOCKED: ENDBRANCH  30  48
DOCKED: ENDBRANCH   2  30
DOCKED: TORSDOF 23
DOCKED: TER
DOCKED: ENDMDL
________________________________________________________________________________


    FINAL DOCKED STATE:
    ________________________


Run:   15 / 20
Time taken for this run:   1.806s

DOCKED: MODEL        15
DOCKED: USER    Run = 15
DOCKED: USER
DOCKED: USER    Estimated Free Energy of Binding    =  +6.86 kcal/mol  [=(1)+(2)+(3)-(4)]
DOCKED: USER
DOCKED: USER    (1) Final Intermolecular Energy     =  +0.00 kcal/mol
DOCKED: USER        vdW + Hbond + desolv Energy     =  +0.00 kcal/mol
DOCKED: USER        Electrostatic Energy            =  +0.00 kcal/mol
DOCKED: USER        Moving Ligand-Fixed Receptor    =  +0.00 kcal/mol
DOCKED: USER        Moving Ligand-Moving Receptor   =  +0.00 kcal/mol
DOCKED: USER    (2) Final Total Internal Energy     = -13.84 kcal/mol
DOCKED: USER    (3) Torsional Free Energy           =  +6.86 kcal/mol
DOCKED: USER    (4) Unbound System's Energy         = -13.84 kcal/mol
DOCKED: USER
DOCKED: USER
DOCKED: REMARK  Name = ligands/ligand_44.pdb
DOCKED: REMARK  34 active torsions:
DOCKED: REMARK  status: ('A' for Active; 'I' for Inactive)
DOCKED: REMARK    1  A    between atoms: C1_1  and  C2_2
DOCKED: REMARK    2  A    between atoms: C2_2  and  C3_3
DOCKED: REMARK    3  A    between atoms: C3_3  and  C4_4
DOCKED: REMARK    4  A    between atoms: C4_4  and  N1_5
DOCKED: REMARK    5  A    between atoms: C5_6  and  C6_8
DOCKED: REMARK    6  A    between atoms: C6_8  and  N2_9
DOCKED: REMARK    7  A    between atoms: C6_8  and  C30_43
DOCKED: REMARK    8  A    between atoms: C7_10  and  C8_12
DOCKED: REMARK    9  A    between atoms: C8_12  and  C9_13
DOCKED: REMARK   10  A    between atoms: C9_13  and  O3_14
DOCKED: REMARK   11  A    between atoms: C9_13  and  C10_15
DOCKED: REMARK   12  A    between atoms: C10_15  and  C11_16
DOCKED: REMARK   13  A    between atoms: C10_15  and  N3_20
DOCKED: REMARK   14  A    between atoms: C11_16  and  C12_17
DOCKED: REMARK   15  A    between atoms: C12_17  and  C13_18
DOCKED: REMARK   16  A    between atoms: C12_17  and  C14_19
DOCKED: REMARK   17  A    between atoms: C15_21  and  C16_23
DOCKED: REMARK   18  A    between atoms: C16_23  and  C17_24
DOCKED: REMARK   19  A    between atoms: C16_23  and  N4_28
DOCKED: REMARK   20  A    between atoms: C17_24  and  C18_25
DOCKED: REMARK   21  A    between atoms: C18_25  and  S1_26
DOCKED: REMARK   22  A    between atoms: S1_26  and  C19_27
DOCKED: REMARK   23  A    between atoms: C20_29  and  C21_31
DOCKED: REMARK   24  A    between atoms: C21_31  and  N5_32
DOCKED: REMARK   25  A    between atoms: C21_31  and  C27_40
DOCKED: REMARK   26  A    between atoms: C22_33  and  O7_35
DOCKED: REMARK   27  A    between atoms: O7_35  and  C23_36
DOCKED: REMARK   28  A    between atoms: C23_36  and  C24_37
DOCKED: REMARK   29  A    between atoms: C23_36  and  C25_38
DOCKED: REMARK   30  A    between atoms: C23_36  and  C26_39
DOCKED: REMARK   31  A    between atoms: C27_40  and  C28_41
DOCKED: REMARK   32  A    between atoms: C27_40  and  C29_42
DOCKED: REMARK   33  A    between atoms: C30_43  and  C31_44
DOCKED: REMARK   34  A    between atoms: C30_43  and  C32_45
DOCKED: REMARK                            x       y       z     vdW  Elec       q    Type
DOCKED: REMARK                         _______ _______ _______ _____ _____    ______ ____
DOCKED: USER                              x       y       z     vdW  Elec       q    Type
DOCKED: USER                           _______ _______ _______ _____ _____    ______ ____
DOCKED: ROOT
DOCKED: ATOM      1  N3  UNL     1      10.936  -5.523   0.020 +0.00 -0.00    -0.308 N  
DOCKED: ATOM      2  C15 UNL     1       9.653  -5.258  -0.413 +0.00 +0.00    +0.234 C  
DOCKED: ATOM      3  O4  UNL     1       9.102  -4.173  -0.235 +0.00 -0.00    -0.274 OA 
DOCKED: ATOM      4  H27 UNL     1      11.268  -6.479  -0.021 +0.00 +0.00    +0.149 HD 
DOCKED: ENDROOT
DOCKED: BRANCH   1   5
DOCKED: ATOM      5  C10 UNL     1      11.669  -4.587   0.889 +0.00 +0.00    +0.102 C  
DOCKED: BRANCH   5   6
DOCKED: ATOM      6  C11 UNL     1      12.610  -3.702   0.038 +0.00 +0.00    +0.028 C  
DOCKED: BRANCH   6   7
DOCKED: ATOM      7  C12 UNL     1      12.122  -2.281  -0.327 +0.00 -0.00    -0.015 C  
DOCKED: ATOM      8  C13 UNL     1      11.397  -1.594   0.832 +0.00 +0.00    +0.007 C  
DOCKED: ATOM      9  C14 UNL     1      11.274  -2.221  -1.595 +0.00 +0.00    +0.007 C  
DOCKED: ENDBRANCH   6   7
DOCKED: ENDBRANCH   5   6
DOCKED: BRANCH   5  10
DOCKED: ATOM     10  C9  UNL     1      12.447  -5.399   1.985 +0.00 +0.00    +0.143 C  
DOCKED: BRANCH  10  11
DOCKED: ATOM     11  O3  UNL     1      12.366  -6.819   1.839 +0.00 -0.00    -0.389 OA 
DOCKED: ATOM     12  H16 UNL     1      12.262  -7.029   0.897 +0.00 +0.00    +0.210 HD 
DOCKED: ENDBRANCH  10  11
DOCKED: BRANCH  10  13
DOCKED: ATOM     13  C8  UNL     1      13.921  -5.012   2.151 +0.00 +0.00    +0.129 C  
DOCKED: BRANCH  13  15
DOCKED: ATOM     14  N2  UNL     1      14.855  -6.851   0.897 +0.00 -0.00    -0.304 N  
DOCKED: ATOM     15  C7  UNL     1      14.905  -6.172   2.103 +0.00 +0.00    +0.216 C  
DOCKED: ATOM     16  O2  UNL     1      15.688  -6.462   3.000 +0.00 -0.00    -0.276 OA 
DOCKED: ATOM     17  H12 UNL     1      13.970  -6.799   0.404 +0.00 +0.00    +0.149 HD 
DOCKED: BRANCH  14  18
DOCKED: ATOM     18  C6  UNL     1      15.569  -8.115   0.722 +0.00 +0.00    +0.161 C  
DOCKED: BRANCH  18  20
DOCKED: ATOM     19  N1  UNL     1      13.304  -9.014   1.107 +0.00 -0.00    -0.314 N  
DOCKED: ATOM     20  C5  UNL     1      14.656  -9.226   1.281 +0.00 +0.00    +0.234 C  
DOCKED: ATOM     21  O1  UNL     1      15.108 -10.198   1.887 +0.00 -0.00    -0.274 OA 
DOCKED: ATOM     22  H10 UNL     1      13.022  -8.329   0.414 +0.00 +0.00    +0.149 HD 
DOCKED: BRANCH  19  23
DOCKED: ATOM     23  C4  UNL     1      12.332 -10.007   1.509 +0.00 +0.00    +0.104 C  
DOCKED: BRANCH  23  24
DOCKED: ATOM     24  C3  UNL     1      11.657  -9.645   2.832 +0.00 +0.00    +0.018 C  
DOCKED: BRANCH  24  26
DOCKED: ATOM     25  C1  UNL     1      12.888  -8.185   4.473 +0.00 +0.00    +0.004 C  
DOCKED: ATOM     26  C2  UNL     1      12.668  -9.605   3.976 +0.00 -0.00    -0.002 C  
DOCKED: ENDBRANCH  24  26
DOCKED: ENDBRANCH  23  24
DOCKED: ENDBRANCH  19  23
DOCKED: ENDBRANCH  18  20
DOCKED: BRANCH  18  27
DOCKED: ATOM     27  C30 UNL     1      15.945  -8.338  -0.760 +0.00 +0.00    +0.012 C  
DOCKED: ATOM     28  C31 UNL     1      16.425  -9.760  -1.071 +0.00 +0.00    +0.009 C  
DOCKED: ATOM     29  C32 UNL     1      16.981  -7.321  -1.246 +0.00 +0.00    +0.009 C  
DOCKED: ENDBRANCH  18  27
DOCKED: ENDBRANCH  14  18
DOCKED: ENDBRANCH  13  15
DOCKED: ENDBRANCH  10  13
DOCKED: ENDBRANCH   5  10
DOCKED: ENDBRANCH   1   5
DOCKED: BRANCH   2  30
DOCKED: ATOM     30  C16 UNL     1       8.970  -6.414  -1.172 +0.00 +0.00    +0.160 C  
DOCKED: BRANCH  30  31
DOCKED: ATOM     31  N4  UNL     1       9.996  -7.049  -1.984 +0.00 -0.00    -0.302 N  
DOCKED: ATOM     32  C20 UNL     1      10.866  -7.977  -1.459 +0.00 +0.00    +0.234 C  
DOCKED: ATOM     33  O5  UNL     1      10.935  -8.212  -0.252 +0.00 -0.00    -0.274 OA 
DOCKED: ATOM     34  H36 UNL     1       9.810  -7.081  -2.981 +0.00 +0.00    +0.150 HD 
DOCKED: BRANCH  32  35
DOCKED: ATOM     35  C21 UNL     1      11.719  -8.723  -2.509 +0.00 +0.00    +0.165 C  
DOCKED: BRANCH  35  36
DOCKED: ATOM     36  N5  UNL     1      12.722  -7.803  -3.023 +0.00 -0.00    -0.270 N  
DOCKED: ATOM     37  C22 UNL     1      13.422  -6.966  -2.211 +0.00 +0.00    +0.401 C  
DOCKED: ATOM     38  O6  UNL     1      13.163  -6.737  -1.040 +0.00 -0.00    -0.226 OA 
DOCKED: ATOM     39  H38 UNL     1      13.214  -8.070  -3.865 +0.00 +0.00    +0.153 HD 
DOCKED: BRANCH  37  40
DOCKED: ATOM     40  O7  UNL     1      14.444  -6.438  -2.920 +0.00 -0.00    -0.445 OA 
DOCKED: BRANCH  40  41
DOCKED: ATOM     41  C23 UNL     1      14.535  -5.006  -3.133 +0.00 +0.00    +0.107 C  
DOCKED: ATOM     42  C24 UNL     1      15.271  -4.678  -4.436 +0.00 +0.00    +0.055 C  
DOCKED: ATOM     43  C25 UNL     1      13.076  -4.537  -3.262 +0.00 +0.00    +0.055 C  
DOCKED: ATOM     44  C26 UNL     1      15.168  -4.303  -1.926 +0.00 +0.00    +0.055 C  
DOCKED: ENDBRANCH  40  41
DOCKED: ENDBRANCH  37  40
DOCKED: ENDBRANCH  35  36
DOCKED: BRANCH  35  45
DOCKED: ATOM     45  C27 UNL     1      12.343  -9.999  -1.907 +0.00 +0.00    +0.012 C  
DOCKED: ATOM     46  C28 UNL     1      13.545 -10.520  -2.703 +0.00 +0.00    +0.009 C  
DOCKED: ATOM     47  C29 UNL     1      11.294 -11.106  -1.762 +0.00 +0.00    +0.009 C  
DOCKED: ENDBRANCH  35  45
DOCKED: ENDBRANCH  32  35
DOCKED: ENDBRANCH  30  31
DOCKED: BRANCH  30  48
DOCKED: ATOM     48  C17 UNL     1       8.314  -7.387  -0.183 +0.00 +0.00    +0.042 C  
DOCKED: BRANCH  48  49
DOCKED: ATOM     49  C18 UNL     1       8.118  -6.794   1.216 +0.00 +0.00    +0.071 C  
DOCKED: BRANCH  49  50
DOCKED: ATOM     50  S1  UNL     1       8.992  -7.754   2.495 +0.00 -0.00    -0.164 S  
DOCKED: ATOM     51  C19 UNL     1       9.605  -6.382   3.499 +0.00 +0.00    +0.084 C  
DOCKED: ENDBRANCH  49  50
DOCKED: ENDBRANCH  48  49
DOCKED: ENDBRANCH  30  48
DOCKED: ENDBRANCH   2  30
DOCKED: TORSDOF 23
DOCKED: TER
DOCKED: ENDMDL
________________________________________________________________________________


    FINAL DOCKED STATE:
    ________________________


Run:   16 / 20
Time taken for this run:   1.806s

DOCKED: MODEL        16
DOCKED: USER    Run = 16
DOCKED: USER
DOCKED: USER    Estimated Free Energy of Binding    =  +6.86 kcal/mol  [=(1)+(2)+(3)-(4)]
DOCKED: USER
DOCKED: USER    (1) Final Intermolecular Energy     =  +0.00 kcal/mol
DOCKED: USER        vdW + Hbond + desolv Energy     =  +0.00 kcal/mol
DOCKED: USER        Electrostatic Energy            =  +0.00 kcal/mol
DOCKED: USER        Moving Ligand-Fixed Receptor    =  +0.00 kcal/mol
DOCKED: USER        Moving Ligand-Moving Receptor   =  +0.00 kcal/mol
DOCKED: USER    (2) Final Total Internal Energy     = -13.06 kcal/mol
DOCKED: USER    (3) Torsional Free Energy           =  +6.86 kcal/mol
DOCKED: USER    (4) Unbound System's Energy         = -13.06 kcal/mol
DOCKED: USER
DOCKED: USER
DOCKED: REMARK  Name = ligands/ligand_44.pdb
DOCKED: REMARK  34 active torsions:
DOCKED: REMARK  status: ('A' for Active; 'I' for Inactive)
DOCKED: REMARK    1  A    between atoms: C1_1  and  C2_2
DOCKED: REMARK    2  A    between atoms: C2_2  and  C3_3
DOCKED: REMARK    3  A    between atoms: C3_3  and  C4_4
DOCKED: REMARK    4  A    between atoms: C4_4  and  N1_5
DOCKED: REMARK    5  A    between atoms: C5_6  and  C6_8
DOCKED: REMARK    6  A    between atoms: C6_8  and  N2_9
DOCKED: REMARK    7  A    between atoms: C6_8  and  C30_43
DOCKED: REMARK    8  A    between atoms: C7_10  and  C8_12
DOCKED: REMARK    9  A    between atoms: C8_12  and  C9_13
DOCKED: REMARK   10  A    between atoms: C9_13  and  O3_14
DOCKED: REMARK   11  A    between atoms: C9_13  and  C10_15
DOCKED: REMARK   12  A    between atoms: C10_15  and  C11_16
DOCKED: REMARK   13  A    between atoms: C10_15  and  N3_20
DOCKED: REMARK   14  A    between atoms: C11_16  and  C12_17
DOCKED: REMARK   15  A    between atoms: C12_17  and  C13_18
DOCKED: REMARK   16  A    between atoms: C12_17  and  C14_19
DOCKED: REMARK   17  A    between atoms: C15_21  and  C16_23
DOCKED: REMARK   18  A    between atoms: C16_23  and  C17_24
DOCKED: REMARK   19  A    between atoms: C16_23  and  N4_28
DOCKED: REMARK   20  A    between atoms: C17_24  and  C18_25
DOCKED: REMARK   21  A    between atoms: C18_25  and  S1_26
DOCKED: REMARK   22  A    between atoms: S1_26  and  C19_27
DOCKED: REMARK   23  A    between atoms: C20_29  and  C21_31
DOCKED: REMARK   24  A    between atoms: C21_31  and  N5_32
DOCKED: REMARK   25  A    between atoms: C21_31  and  C27_40
DOCKED: REMARK   26  A    between atoms: C22_33  and  O7_35
DOCKED: REMARK   27  A    between atoms: O7_35  and  C23_36
DOCKED: REMARK   28  A    between atoms: C23_36  and  C24_37
DOCKED: REMARK   29  A    between atoms: C23_36  and  C25_38
DOCKED: REMARK   30  A    between atoms: C23_36  and  C26_39
DOCKED: REMARK   31  A    between atoms: C27_40  and  C28_41
DOCKED: REMARK   32  A    between atoms: C27_40  and  C29_42
DOCKED: REMARK   33  A    between atoms: C30_43  and  C31_44
DOCKED: REMARK   34  A    between atoms: C30_43  and  C32_45
DOCKED: REMARK                            x       y       z     vdW  Elec       q    Type
DOCKED: REMARK                         _______ _______ _______ _____ _____    ______ ____
DOCKED: USER                              x       y       z     vdW  Elec       q    Type
DOCKED: USER                           _______ _______ _______ _____ _____    ______ ____
DOCKED: ROOT
DOCKED: ATOM      1  N3  UNL     1      11.814  -9.043  -1.782 +0.00 -0.00    -0.308 N  
DOCKED: ATOM      2  C15 UNL     1      10.543  -9.533  -2.003 +0.00 +0.00    +0.234 C  
DOCKED: ATOM      3  O4  UNL     1      10.013 -10.363  -1.267 +0.00 -0.00    -0.274 OA 
DOCKED: ATOM      4  H27 UNL     1      12.246  -8.484  -2.508 +0.00 +0.00    +0.149 HD 
DOCKED: ENDROOT
DOCKED: BRANCH   1   5
DOCKED: ATOM      5  C10 UNL     1      12.697  -9.618  -0.753 +0.00 +0.00    +0.102 C  
DOCKED: BRANCH   5   6
DOCKED: ATOM      6  C11 UNL     1      12.583  -8.802   0.557 +0.00 +0.00    +0.028 C  
DOCKED: BRANCH   6   7
DOCKED: ATOM      7  C12 UNL     1      12.029  -7.362   0.457 +0.00 -0.00    -0.015 C  
DOCKED: ATOM      8  C13 UNL     1      12.771  -6.383   1.369 +0.00 +0.00    +0.007 C  
DOCKED: ATOM      9  C14 UNL     1      10.522  -7.257   0.681 +0.00 +0.00    +0.007 C  
DOCKED: ENDBRANCH   6   7
DOCKED: ENDBRANCH   5   6
DOCKED: BRANCH   5  10
DOCKED: ATOM     10  C9  UNL     1      14.168  -9.661  -1.299 +0.00 +0.00    +0.143 C  
DOCKED: BRANCH  10  11
DOCKED: ATOM     11  O3  UNL     1      14.284  -9.448  -2.707 +0.00 -0.00    -0.389 OA 
DOCKED: ATOM     12  H16 UNL     1      13.821  -8.626  -2.937 +0.00 +0.00    +0.210 HD 
DOCKED: ENDBRANCH  10  11
DOCKED: BRANCH  10  13
DOCKED: ATOM     13  C8  UNL     1      15.151  -8.726  -0.585 +0.00 +0.00    +0.129 C  
DOCKED: BRANCH  13  15
DOCKED: ATOM     14  N2  UNL     1      14.166  -6.893  -1.810 +0.00 -0.00    -0.304 N  
DOCKED: ATOM     15  C7  UNL     1      15.336  -7.362  -1.235 +0.00 +0.00    +0.216 C  
DOCKED: ATOM     16  O2  UNL     1      16.380  -6.720  -1.226 +0.00 -0.00    -0.276 OA 
DOCKED: ATOM     17  H12 UNL     1      13.507  -7.607  -2.100 +0.00 +0.00    +0.149 HD 
DOCKED: BRANCH  14  18
DOCKED: ATOM     18  C6  UNL     1      14.178  -5.702  -2.659 +0.00 +0.00    +0.161 C  
DOCKED: BRANCH  18  20
DOCKED: ATOM     19  N1  UNL     1      14.061  -5.277  -5.086 +0.00 -0.00    -0.314 N  
DOCKED: ATOM     20  C5  UNL     1      14.403  -6.187  -4.106 +0.00 +0.00    +0.234 C  
DOCKED: ATOM     21  O1  UNL     1      14.803  -7.323  -4.358 +0.00 -0.00    -0.274 OA 
DOCKED: ATOM     22  H10 UNL     1      13.963  -4.306  -4.811 +0.00 +0.00    +0.149 HD 
DOCKED: BRANCH  19  23
DOCKED: ATOM     23  C4  UNL     1      14.291  -5.563  -6.486 +0.00 +0.00    +0.104 C  
DOCKED: BRANCH  23  24
DOCKED: ATOM     24  C3  UNL     1      13.091  -6.252  -7.134 +0.00 +0.00    +0.018 C  
DOCKED: BRANCH  24  26
DOCKED: ATOM     25  C1  UNL     1      10.640  -6.776  -6.895 +0.00 +0.00    +0.004 C  
DOCKED: ATOM     26  C2  UNL     1      11.800  -5.936  -6.383 +0.00 -0.00    -0.002 C  
DOCKED: ENDBRANCH  24  26
DOCKED: ENDBRANCH  23  24
DOCKED: ENDBRANCH  19  23
DOCKED: ENDBRANCH  18  20
DOCKED: BRANCH  18  27
DOCKED: ATOM     27  C30 UNL     1      12.873  -4.892  -2.493 +0.00 +0.00    +0.012 C  
DOCKED: ATOM     28  C31 UNL     1      12.855  -3.993  -1.252 +0.00 +0.00    +0.009 C  
DOCKED: ATOM     29  C32 UNL     1      11.635  -5.794  -2.501 +0.00 +0.00    +0.009 C  
DOCKED: ENDBRANCH  18  27
DOCKED: ENDBRANCH  14  18
DOCKED: ENDBRANCH  13  15
DOCKED: ENDBRANCH  10  13
DOCKED: ENDBRANCH   5  10
DOCKED: ENDBRANCH   1   5
DOCKED: BRANCH   2  30
DOCKED: ATOM     30  C16 UNL     1       9.818  -8.933  -3.226 +0.00 +0.00    +0.160 C  
DOCKED: BRANCH  30  31
DOCKED: ATOM     31  N4  UNL     1      10.538  -9.384  -4.406 +0.00 -0.00    -0.302 N  
DOCKED: ATOM     32  C20 UNL     1      11.814  -8.949  -4.689 +0.00 +0.00    +0.234 C  
DOCKED: ATOM     33  O5  UNL     1      12.360  -8.045  -4.057 +0.00 -0.00    -0.274 OA 
DOCKED: ATOM     34  H36 UNL     1      10.246 -10.279  -4.783 +0.00 +0.00    +0.150 HD 
DOCKED: BRANCH  32  35
DOCKED: ATOM     35  C21 UNL     1      12.513  -9.713  -5.835 +0.00 +0.00    +0.165 C  
DOCKED: BRANCH  35  36
DOCKED: ATOM     36  N5  UNL     1      13.948  -9.503  -5.717 +0.00 -0.00    -0.270 N  
DOCKED: ATOM     37  C22 UNL     1      14.740  -9.279  -6.800 +0.00 +0.00    +0.401 C  
DOCKED: ATOM     38  O6  UNL     1      14.405  -9.432  -7.963 +0.00 -0.00    -0.226 OA 
DOCKED: ATOM     39  H38 UNL     1      14.291  -9.088  -4.861 +0.00 +0.00    +0.153 HD 
DOCKED: BRANCH  37  40
DOCKED: ATOM     40  O7  UNL     1      15.950  -8.863  -6.366 +0.00 -0.00    -0.445 OA 
DOCKED: BRANCH  40  41
DOCKED: ATOM     41  C23 UNL     1      16.849  -9.779  -5.689 +0.00 +0.00    +0.107 C  
DOCKED: ATOM     42  C24 UNL     1      16.487 -11.239  -5.983 +0.00 +0.00    +0.055 C  
DOCKED: ATOM     43  C25 UNL     1      18.233  -9.486  -6.292 +0.00 +0.00    +0.055 C  
DOCKED: ATOM     44  C26 UNL     1      16.903  -9.496  -4.183 +0.00 +0.00    +0.055 C  
DOCKED: ENDBRANCH  40  41
DOCKED: ENDBRANCH  37  40
DOCKED: ENDBRANCH  35  36
DOCKED: BRANCH  35  45
DOCKED: ATOM     45  C27 UNL     1      12.133 -11.208  -5.814 +0.00 +0.00    +0.012 C  
DOCKED: ATOM     46  C28 UNL     1      12.708 -11.964  -4.611 +0.00 +0.00    +0.009 C  
DOCKED: ATOM     47  C29 UNL     1      12.554 -11.898  -7.115 +0.00 +0.00    +0.009 C  
DOCKED: ENDBRANCH  35  45
DOCKED: ENDBRANCH  32  35
DOCKED: ENDBRANCH  30  31
DOCKED: BRANCH  30  48
DOCKED: ATOM     48  C17 UNL     1       8.344  -9.360  -3.234 +0.00 +0.00    +0.042 C  
DOCKED: BRANCH  48  49
DOCKED: ATOM     49  C18 UNL     1       7.377  -8.219  -2.907 +0.00 +0.00    +0.071 C  
DOCKED: BRANCH  49  50
DOCKED: ATOM     50  S1  UNL     1       8.249  -6.733  -2.313 +0.00 -0.00    -0.164 S  
DOCKED: ATOM     51  C19 UNL     1       8.488  -5.900  -3.900 +0.00 +0.00    +0.084 C  
DOCKED: ENDBRANCH  49  50
DOCKED: ENDBRANCH  48  49
DOCKED: ENDBRANCH  30  48
DOCKED: ENDBRANCH   2  30
DOCKED: TORSDOF 23
DOCKED: TER
DOCKED: ENDMDL
________________________________________________________________________________


    FINAL DOCKED STATE:
    ________________________


Run:   17 / 20
Time taken for this run:   1.806s

DOCKED: MODEL        17
DOCKED: USER    Run = 17
DOCKED: USER
DOCKED: USER    Estimated Free Energy of Binding    =  +6.86 kcal/mol  [=(1)+(2)+(3)-(4)]
DOCKED: USER
DOCKED: USER    (1) Final Intermolecular Energy     =  +0.00 kcal/mol
DOCKED: USER        vdW + Hbond + desolv Energy     =  +0.00 kcal/mol
DOCKED: USER        Electrostatic Energy            =  +0.00 kcal/mol
DOCKED: USER        Moving Ligand-Fixed Receptor    =  +0.00 kcal/mol
DOCKED: USER        Moving Ligand-Moving Receptor   =  +0.00 kcal/mol
DOCKED: USER    (2) Final Total Internal Energy     = -13.28 kcal/mol
DOCKED: USER    (3) Torsional Free Energy           =  +6.86 kcal/mol
DOCKED: USER    (4) Unbound System's Energy         = -13.28 kcal/mol
DOCKED: USER
DOCKED: USER
DOCKED: REMARK  Name = ligands/ligand_44.pdb
DOCKED: REMARK  34 active torsions:
DOCKED: REMARK  status: ('A' for Active; 'I' for Inactive)
DOCKED: REMARK    1  A    between atoms: C1_1  and  C2_2
DOCKED: REMARK    2  A    between atoms: C2_2  and  C3_3
DOCKED: REMARK    3  A    between atoms: C3_3  and  C4_4
DOCKED: REMARK    4  A    between atoms: C4_4  and  N1_5
DOCKED: REMARK    5  A    between atoms: C5_6  and  C6_8
DOCKED: REMARK    6  A    between atoms: C6_8  and  N2_9
DOCKED: REMARK    7  A    between atoms: C6_8  and  C30_43
DOCKED: REMARK    8  A    between atoms: C7_10  and  C8_12
DOCKED: REMARK    9  A    between atoms: C8_12  and  C9_13
DOCKED: REMARK   10  A    between atoms: C9_13  and  O3_14
DOCKED: REMARK   11  A    between atoms: C9_13  and  C10_15
DOCKED: REMARK   12  A    between atoms: C10_15  and  C11_16
DOCKED: REMARK   13  A    between atoms: C10_15  and  N3_20
DOCKED: REMARK   14  A    between atoms: C11_16  and  C12_17
DOCKED: REMARK   15  A    between atoms: C12_17  and  C13_18
DOCKED: REMARK   16  A    between atoms: C12_17  and  C14_19
DOCKED: REMARK   17  A    between atoms: C15_21  and  C16_23
DOCKED: REMARK   18  A    between atoms: C16_23  and  C17_24
DOCKED: REMARK   19  A    between atoms: C16_23  and  N4_28
DOCKED: REMARK   20  A    between atoms: C17_24  and  C18_25
DOCKED: REMARK   21  A    between atoms: C18_25  and  S1_26
DOCKED: REMARK   22  A    between atoms: S1_26  and  C19_27
DOCKED: REMARK   23  A    between atoms: C20_29  and  C21_31
DOCKED: REMARK   24  A    between atoms: C21_31  and  N5_32
DOCKED: REMARK   25  A    between atoms: C21_31  and  C27_40
DOCKED: REMARK   26  A    between atoms: C22_33  and  O7_35
DOCKED: REMARK   27  A    between atoms: O7_35  and  C23_36
DOCKED: REMARK   28  A    between atoms: C23_36  and  C24_37
DOCKED: REMARK   29  A    between atoms: C23_36  and  C25_38
DOCKED: REMARK   30  A    between atoms: C23_36  and  C26_39
DOCKED: REMARK   31  A    between atoms: C27_40  and  C28_41
DOCKED: REMARK   32  A    between atoms: C27_40  and  C29_42
DOCKED: REMARK   33  A    between atoms: C30_43  and  C31_44
DOCKED: REMARK   34  A    between atoms: C30_43  and  C32_45
DOCKED: REMARK                            x       y       z     vdW  Elec       q    Type
DOCKED: REMARK                         _______ _______ _______ _____ _____    ______ ____
DOCKED: USER                              x       y       z     vdW  Elec       q    Type
DOCKED: USER                           _______ _______ _______ _____ _____    ______ ____
DOCKED: ROOT
DOCKED: ATOM      1  N3  UNL     1      11.967  -3.033   3.161 +0.00 -0.00    -0.308 N  
DOCKED: ATOM      2  C15 UNL     1      11.003  -2.530   2.311 +0.00 +0.00    +0.234 C  
DOCKED: ATOM      3  O4  UNL     1      10.700  -1.339   2.280 +0.00 -0.00    -0.274 OA 
DOCKED: ATOM      4  H27 UNL     1      12.055  -4.039   3.245 +0.00 +0.00    +0.149 HD 
DOCKED: ENDROOT
DOCKED: BRANCH   1   5
DOCKED: ATOM      5  C10 UNL     1      12.570  -2.209   4.221 +0.00 +0.00    +0.102 C  
DOCKED: BRANCH   5   6
DOCKED: ATOM      6  C11 UNL     1      13.821  -2.917   4.794 +0.00 +0.00    +0.028 C  
DOCKED: BRANCH   6   7
DOCKED: ATOM      7  C12 UNL     1      14.262  -4.241   4.127 +0.00 -0.00    -0.015 C  
DOCKED: ATOM      8  C13 UNL     1      14.730  -5.283   5.144 +0.00 +0.00    +0.007 C  
DOCKED: ATOM      9  C14 UNL     1      15.307  -4.066   3.027 +0.00 +0.00    +0.007 C  
DOCKED: ENDBRANCH   6   7
DOCKED: ENDBRANCH   5   6
DOCKED: BRANCH   5  10
DOCKED: ATOM     10  C9  UNL     1      11.494  -1.919   5.327 +0.00 +0.00    +0.143 C  
DOCKED: BRANCH  10  11
DOCKED: ATOM     11  O3  UNL     1      11.869  -2.332   6.642 +0.00 -0.00    -0.389 OA 
DOCKED: ATOM     12  H16 UNL     1      11.748  -3.293   6.713 +0.00 +0.00    +0.210 HD 
DOCKED: ENDBRANCH  10  11
DOCKED: BRANCH  10  13
DOCKED: ATOM     13  C8  UNL     1      11.014  -0.464   5.395 +0.00 +0.00    +0.129 C  
DOCKED: BRANCH  13  15
DOCKED: ATOM     14  N2  UNL     1       8.778  -1.372   5.453 +0.00 -0.00    -0.304 N  
DOCKED: ATOM     15  C7  UNL     1       9.531  -0.257   5.123 +0.00 +0.00    +0.216 C  
DOCKED: ATOM     16  O2  UNL     1       9.037   0.781   4.699 +0.00 -0.00    -0.276 OA 
DOCKED: ATOM     17  H12 UNL     1       9.272  -2.257   5.421 +0.00 +0.00    +0.149 HD 
DOCKED: BRANCH  14  18
DOCKED: ATOM     18  C6  UNL     1       7.366  -1.455   5.079 +0.00 +0.00    +0.161 C  
DOCKED: BRANCH  18  20
DOCKED: ATOM     19  N1  UNL     1       5.901  -3.036   3.881 +0.00 -0.00    -0.314 N  
DOCKED: ATOM     20  C5  UNL     1       7.196  -2.751   4.261 +0.00 +0.00    +0.234 C  
DOCKED: ATOM     21  O1  UNL     1       8.143  -3.499   4.019 +0.00 -0.00    -0.274 OA 
DOCKED: ATOM     22  H10 UNL     1       5.225  -2.280   3.911 +0.00 +0.00    +0.149 HD 
DOCKED: BRANCH  19  23
DOCKED: ATOM     23  C4  UNL     1       5.599  -4.177   3.042 +0.00 +0.00    +0.104 C  
DOCKED: BRANCH  23  24
DOCKED: ATOM     24  C3  UNL     1       5.099  -5.369   3.857 +0.00 +0.00    +0.018 C  
DOCKED: BRANCH  24  26
DOCKED: ATOM     25  C1  UNL     1       5.416  -6.250   6.194 +0.00 +0.00    +0.004 C  
DOCKED: ATOM     26  C2  UNL     1       6.109  -5.771   4.928 +0.00 -0.00    -0.002 C  
DOCKED: ENDBRANCH  24  26
DOCKED: ENDBRANCH  23  24
DOCKED: ENDBRANCH  19  23
DOCKED: ENDBRANCH  18  20
DOCKED: BRANCH  18  27
DOCKED: ATOM     27  C30 UNL     1       6.460  -1.411   6.329 +0.00 +0.00    +0.012 C  
DOCKED: ATOM     28  C31 UNL     1       6.970  -0.476   7.432 +0.00 +0.00    +0.009 C  
DOCKED: ATOM     29  C32 UNL     1       6.212  -2.808   6.905 +0.00 +0.00    +0.009 C  
DOCKED: ENDBRANCH  18  27
DOCKED: ENDBRANCH  14  18
DOCKED: ENDBRANCH  13  15
DOCKED: ENDBRANCH  10  13
DOCKED: ENDBRANCH   5  10
DOCKED: ENDBRANCH   1   5
DOCKED: BRANCH   2  30
DOCKED: ATOM     30  C16 UNL     1      10.356  -3.570   1.373 +0.00 +0.00    +0.160 C  
DOCKED: BRANCH  30  31
DOCKED: ATOM     31  N4  UNL     1       9.768  -4.595   2.221 +0.00 -0.00    -0.302 N  
DOCKED: ATOM     32  C20 UNL     1      10.498  -5.673   2.669 +0.00 +0.00    +0.234 C  
DOCKED: ATOM     33  O5  UNL     1      11.633  -5.920   2.260 +0.00 -0.00    -0.274 OA 
DOCKED: ATOM     34  H36 UNL     1       8.963  -4.306   2.766 +0.00 +0.00    +0.150 HD 
DOCKED: BRANCH  32  35
DOCKED: ATOM     35  C21 UNL     1       9.792  -6.522   3.750 +0.00 +0.00    +0.165 C  
DOCKED: BRANCH  35  36
DOCKED: ATOM     36  N5  UNL     1       9.470  -5.656   4.873 +0.00 -0.00    -0.270 N  
DOCKED: ATOM     37  C22 UNL     1      10.391  -4.832   5.442 +0.00 +0.00    +0.401 C  
DOCKED: ATOM     38  O6  UNL     1      11.593  -4.868   5.236 +0.00 -0.00    -0.226 OA 
DOCKED: ATOM     39  H38 UNL     1       8.516  -5.327   4.952 +0.00 +0.00    +0.153 HD 
DOCKED: BRANCH  37  40
DOCKED: ATOM     40  O7  UNL     1       9.747  -3.976   6.266 +0.00 -0.00    -0.445 OA 
DOCKED: BRANCH  40  41
DOCKED: ATOM     41  C23 UNL     1       9.488  -4.333   7.648 +0.00 +0.00    +0.107 C  
DOCKED: ATOM     42  C24 UNL     1       8.298  -5.290   7.767 +0.00 +0.00    +0.055 C  
DOCKED: ATOM     43  C25 UNL     1      10.758  -5.070   8.106 +0.00 +0.00    +0.055 C  
DOCKED: ATOM     44  C26 UNL     1       9.308  -3.085   8.521 +0.00 +0.00    +0.055 C  
DOCKED: ENDBRANCH  40  41
DOCKED: ENDBRANCH  37  40
DOCKED: ENDBRANCH  35  36
DOCKED: BRANCH  35  45
DOCKED: ATOM     45  C27 UNL     1       8.547  -7.226   3.172 +0.00 +0.00    +0.012 C  
DOCKED: ATOM     46  C28 UNL     1       8.164  -8.501   3.933 +0.00 +0.00    +0.009 C  
DOCKED: ATOM     47  C29 UNL     1       8.737  -7.542   1.686 +0.00 +0.00    +0.009 C  
DOCKED: ENDBRANCH  35  45
DOCKED: ENDBRANCH  32  35
DOCKED: ENDBRANCH  30  31
DOCKED: BRANCH  30  48
DOCKED: ATOM     48  C17 UNL     1       9.323  -2.895   0.460 +0.00 +0.00    +0.042 C  
DOCKED: BRANCH  48  49
DOCKED: ATOM     49  C18 UNL     1       7.876  -3.264   0.800 +0.00 +0.00    +0.071 C  
DOCKED: BRANCH  49  50
DOCKED: ATOM     50  S1  UNL     1       6.771  -1.815   0.752 +0.00 -0.00    -0.164 S  
DOCKED: ATOM     51  C19 UNL     1       7.824  -0.636   1.629 +0.00 +0.00    +0.084 C  
DOCKED: ENDBRANCH  49  50
DOCKED: ENDBRANCH  48  49
DOCKED: ENDBRANCH  30  48
DOCKED: ENDBRANCH   2  30
DOCKED: TORSDOF 23
DOCKED: TER
DOCKED: ENDMDL
________________________________________________________________________________


    FINAL DOCKED STATE:
    ________________________


Run:   18 / 20
Time taken for this run:   1.806s

DOCKED: MODEL        18
DOCKED: USER    Run = 18
DOCKED: USER
DOCKED: USER    Estimated Free Energy of Binding    =  +6.86 kcal/mol  [=(1)+(2)+(3)-(4)]
DOCKED: USER
DOCKED: USER    (1) Final Intermolecular Energy     =  +0.00 kcal/mol
DOCKED: USER        vdW + Hbond + desolv Energy     =  +0.00 kcal/mol
DOCKED: USER        Electrostatic Energy            =  +0.00 kcal/mol
DOCKED: USER        Moving Ligand-Fixed Receptor    =  +0.00 kcal/mol
DOCKED: USER        Moving Ligand-Moving Receptor   =  +0.00 kcal/mol
DOCKED: USER    (2) Final Total Internal Energy     = -13.26 kcal/mol
DOCKED: USER    (3) Torsional Free Energy           =  +6.86 kcal/mol
DOCKED: USER    (4) Unbound System's Energy         = -13.26 kcal/mol
DOCKED: USER
DOCKED: USER
DOCKED: REMARK  Name = ligands/ligand_44.pdb
DOCKED: REMARK  34 active torsions:
DOCKED: REMARK  status: ('A' for Active; 'I' for Inactive)
DOCKED: REMARK    1  A    between atoms: C1_1  and  C2_2
DOCKED: REMARK    2  A    between atoms: C2_2  and  C3_3
DOCKED: REMARK    3  A    between atoms: C3_3  and  C4_4
DOCKED: REMARK    4  A    between atoms: C4_4  and  N1_5
DOCKED: REMARK    5  A    between atoms: C5_6  and  C6_8
DOCKED: REMARK    6  A    between atoms: C6_8  and  N2_9
DOCKED: REMARK    7  A    between atoms: C6_8  and  C30_43
DOCKED: REMARK    8  A    between atoms: C7_10  and  C8_12
DOCKED: REMARK    9  A    between atoms: C8_12  and  C9_13
DOCKED: REMARK   10  A    between atoms: C9_13  and  O3_14
DOCKED: REMARK   11  A    between atoms: C9_13  and  C10_15
DOCKED: REMARK   12  A    between atoms: C10_15  and  C11_16
DOCKED: REMARK   13  A    between atoms: C10_15  and  N3_20
DOCKED: REMARK   14  A    between atoms: C11_16  and  C12_17
DOCKED: REMARK   15  A    between atoms: C12_17  and  C13_18
DOCKED: REMARK   16  A    between atoms: C12_17  and  C14_19
DOCKED: REMARK   17  A    between atoms: C15_21  and  C16_23
DOCKED: REMARK   18  A    between atoms: C16_23  and  C17_24
DOCKED: REMARK   19  A    between atoms: C16_23  and  N4_28
DOCKED: REMARK   20  A    between atoms: C17_24  and  C18_25
DOCKED: REMARK   21  A    between atoms: C18_25  and  S1_26
DOCKED: REMARK   22  A    between atoms: S1_26  and  C19_27
DOCKED: REMARK   23  A    between atoms: C20_29  and  C21_31
DOCKED: REMARK   24  A    between atoms: C21_31  and  N5_32
DOCKED: REMARK   25  A    between atoms: C21_31  and  C27_40
DOCKED: REMARK   26  A    between atoms: C22_33  and  O7_35
DOCKED: REMARK   27  A    between atoms: O7_35  and  C23_36
DOCKED: REMARK   28  A    between atoms: C23_36  and  C24_37
DOCKED: REMARK   29  A    between atoms: C23_36  and  C25_38
DOCKED: REMARK   30  A    between atoms: C23_36  and  C26_39
DOCKED: REMARK   31  A    between atoms: C27_40  and  C28_41
DOCKED: REMARK   32  A    between atoms: C27_40  and  C29_42
DOCKED: REMARK   33  A    between atoms: C30_43  and  C31_44
DOCKED: REMARK   34  A    between atoms: C30_43  and  C32_45
DOCKED: REMARK                            x       y       z     vdW  Elec       q    Type
DOCKED: REMARK                         _______ _______ _______ _____ _____    ______ ____
DOCKED: USER                              x       y       z     vdW  Elec       q    Type
DOCKED: USER                           _______ _______ _______ _____ _____    ______ ____
DOCKED: ROOT
DOCKED: ATOM      1  N3  UNL     1      12.787  -6.496  -0.783 +0.00 -0.00    -0.308 N  
DOCKED: ATOM      2  C15 UNL     1      12.113  -5.330  -1.085 +0.00 +0.00    +0.234 C  
DOCKED: ATOM      3  O4  UNL     1      11.644  -4.590  -0.223 +0.00 -0.00    -0.274 OA 
DOCKED: ATOM      4  H27 UNL     1      13.009  -7.132  -1.539 +0.00 +0.00    +0.149 HD 
DOCKED: ENDROOT
DOCKED: BRANCH   1   5
DOCKED: ATOM      5  C10 UNL     1      12.830  -7.032   0.588 +0.00 +0.00    +0.102 C  
DOCKED: BRANCH   5   6
DOCKED: ATOM      6  C11 UNL     1      14.210  -6.743   1.225 +0.00 +0.00    +0.028 C  
DOCKED: BRANCH   6   7
DOCKED: ATOM      7  C12 UNL     1      14.232  -5.974   2.567 +0.00 -0.00    -0.015 C  
DOCKED: ATOM      8  C13 UNL     1      13.938  -6.877   3.766 +0.00 +0.00    +0.007 C  
DOCKED: ATOM      9  C14 UNL     1      13.328  -4.744   2.594 +0.00 +0.00    +0.007 C  
DOCKED: ENDBRANCH   6   7
DOCKED: ENDBRANCH   5   6
DOCKED: BRANCH   5  10
DOCKED: ATOM     10  C9  UNL     1      12.501  -8.567   0.555 +0.00 +0.00    +0.143 C  
DOCKED: BRANCH  10  11
DOCKED: ATOM     11  O3  UNL     1      12.116  -9.063  -0.729 +0.00 -0.00    -0.389 OA 
DOCKED: ATOM     12  H16 UNL     1      12.703  -8.677  -1.400 +0.00 +0.00    +0.210 HD 
DOCKED: ENDBRANCH  10  11
DOCKED: BRANCH  10  13
DOCKED: ATOM     13  C8  UNL     1      13.601  -9.476   1.114 +0.00 +0.00    +0.129 C  
DOCKED: BRANCH  13  15
DOCKED: ATOM     14  N2  UNL     1      14.877  -9.120  -0.904 +0.00 -0.00    -0.304 N  
DOCKED: ATOM     15  C7  UNL     1      14.563 -10.043   0.080 +0.00 +0.00    +0.216 C  
DOCKED: ATOM     16  O2  UNL     1      15.047 -11.168   0.119 +0.00 -0.00    -0.276 OA 
DOCKED: ATOM     17  H12 UNL     1      14.177  -8.404  -1.069 +0.00 +0.00    +0.149 HD 
DOCKED: BRANCH  14  18
DOCKED: ATOM     18  C6  UNL     1      15.619  -9.525  -2.097 +0.00 +0.00    +0.161 C  
DOCKED: BRANCH  18  20
DOCKED: ATOM     19  N1  UNL     1      15.288  -9.447  -4.540 +0.00 -0.00    -0.314 N  
DOCKED: ATOM     20  C5  UNL     1      14.817  -9.024  -3.315 +0.00 +0.00    +0.234 C  
DOCKED: ATOM     21  O1  UNL     1      13.862  -8.256  -3.195 +0.00 -0.00    -0.274 OA 
DOCKED: ATOM     22  H10 UNL     1      15.918 -10.243  -4.551 +0.00 +0.00    +0.149 HD 
DOCKED: BRANCH  19  23
DOCKED: ATOM     23  C4  UNL     1      14.591  -9.120  -5.765 +0.00 +0.00    +0.104 C  
DOCKED: BRANCH  23  24
DOCKED: ATOM     24  C3  UNL     1      13.188  -9.726  -5.805 +0.00 +0.00    +0.018 C  
DOCKED: BRANCH  24  26
DOCKED: ATOM     25  C1  UNL     1      11.195  -9.057  -4.420 +0.00 +0.00    +0.004 C  
DOCKED: ATOM     26  C2  UNL     1      12.120  -8.663  -5.561 +0.00 -0.00    -0.002 C  
DOCKED: ENDBRANCH  24  26
DOCKED: ENDBRANCH  23  24
DOCKED: ENDBRANCH  19  23
DOCKED: ENDBRANCH  18  20
DOCKED: BRANCH  18  27
DOCKED: ATOM     27  C30 UNL     1      17.063  -8.977  -2.063 +0.00 +0.00    +0.012 C  
DOCKED: ATOM     28  C31 UNL     1      18.019  -9.691  -3.025 +0.00 +0.00    +0.009 C  
DOCKED: ATOM     29  C32 UNL     1      17.646  -8.988  -0.647 +0.00 +0.00    +0.009 C  
DOCKED: ENDBRANCH  18  27
DOCKED: ENDBRANCH  14  18
DOCKED: ENDBRANCH  13  15
DOCKED: ENDBRANCH  10  13
DOCKED: ENDBRANCH   5  10
DOCKED: ENDBRANCH   1   5
DOCKED: BRANCH   2  30
DOCKED: ATOM     30  C16 UNL     1      12.024  -5.002  -2.590 +0.00 +0.00    +0.160 C  
DOCKED: BRANCH  30  31
DOCKED: ATOM     31  N4  UNL     1      13.343  -5.243  -3.153 +0.00 -0.00    -0.302 N  
DOCKED: ATOM     32  C20 UNL     1      14.245  -4.222  -3.350 +0.00 +0.00    +0.234 C  
DOCKED: ATOM     33  O5  UNL     1      13.945  -3.036  -3.210 +0.00 -0.00    -0.274 OA 
DOCKED: ATOM     34  H36 UNL     1      13.705  -6.183  -3.037 +0.00 +0.00    +0.150 HD 
DOCKED: BRANCH  32  35
DOCKED: ATOM     35  C21 UNL     1      15.671  -4.688  -3.720 +0.00 +0.00    +0.165 C  
DOCKED: BRANCH  35  36
DOCKED: ATOM     36  N5  UNL     1      16.426  -4.874  -2.491 +0.00 -0.00    -0.270 N  
DOCKED: ATOM     37  C22 UNL     1      16.137  -5.867  -1.606 +0.00 +0.00    +0.401 C  
DOCKED: ATOM     38  O6  UNL     1      15.130  -6.555  -1.621 +0.00 -0.00    -0.226 OA 
DOCKED: ATOM     39  H38 UNL     1      17.396  -4.589  -2.489 +0.00 +0.00    +0.153 HD 
DOCKED: BRANCH  37  40
DOCKED: ATOM     40  O7  UNL     1      17.151  -5.955  -0.717 +0.00 -0.00    -0.445 OA 
DOCKED: BRANCH  40  41
DOCKED: ATOM     41  C23 UNL     1      17.334  -4.936   0.300 +0.00 +0.00    +0.107 C  
DOCKED: ATOM     42  C24 UNL     1      16.089  -4.054   0.441 +0.00 +0.00    +0.055 C  
DOCKED: ATOM     43  C25 UNL     1      17.531  -5.720   1.608 +0.00 +0.00    +0.055 C  
DOCKED: ATOM     44  C26 UNL     1      18.596  -4.105   0.035 +0.00 +0.00    +0.055 C  
DOCKED: ENDBRANCH  40  41
DOCKED: ENDBRANCH  37  40
DOCKED: ENDBRANCH  35  36
DOCKED: BRANCH  35  45
DOCKED: ATOM     45  C27 UNL     1      15.626  -5.965  -4.584 +0.00 +0.00    +0.012 C  
DOCKED: ATOM     46  C28 UNL     1      17.011  -6.569  -4.846 +0.00 +0.00    +0.009 C  
DOCKED: ATOM     47  C29 UNL     1      14.912  -5.702  -5.914 +0.00 +0.00    +0.009 C  
DOCKED: ENDBRANCH  35  45
DOCKED: ENDBRANCH  32  35
DOCKED: ENDBRANCH  30  31
DOCKED: BRANCH  30  48
DOCKED: ATOM     48  C17 UNL     1      10.933  -5.852  -3.257 +0.00 +0.00    +0.042 C  
DOCKED: BRANCH  48  49
DOCKED: ATOM     49  C18 UNL     1       9.672  -6.005  -2.401 +0.00 +0.00    +0.071 C  
DOCKED: BRANCH  49  50
DOCKED: ATOM     50  S1  UNL     1       9.517  -7.682  -1.705 +0.00 -0.00    -0.164 S  
DOCKED: ATOM     51  C19 UNL     1       9.306  -7.240   0.036 +0.00 +0.00    +0.084 C  
DOCKED: ENDBRANCH  49  50
DOCKED: ENDBRANCH  48  49
DOCKED: ENDBRANCH  30  48
DOCKED: ENDBRANCH   2  30
DOCKED: TORSDOF 23
DOCKED: TER
DOCKED: ENDMDL
________________________________________________________________________________


    FINAL DOCKED STATE:
    ________________________


Run:   19 / 20
Time taken for this run:   1.806s

DOCKED: MODEL        19
DOCKED: USER    Run = 19
DOCKED: USER
DOCKED: USER    Estimated Free Energy of Binding    =  +6.86 kcal/mol  [=(1)+(2)+(3)-(4)]
DOCKED: USER
DOCKED: USER    (1) Final Intermolecular Energy     =  +0.00 kcal/mol
DOCKED: USER        vdW + Hbond + desolv Energy     =  +0.00 kcal/mol
DOCKED: USER        Electrostatic Energy            =  +0.00 kcal/mol
DOCKED: USER        Moving Ligand-Fixed Receptor    =  +0.00 kcal/mol
DOCKED: USER        Moving Ligand-Moving Receptor   =  +0.00 kcal/mol
DOCKED: USER    (2) Final Total Internal Energy     = -13.88 kcal/mol
DOCKED: USER    (3) Torsional Free Energy           =  +6.86 kcal/mol
DOCKED: USER    (4) Unbound System's Energy         = -13.88 kcal/mol
DOCKED: USER
DOCKED: USER
DOCKED: REMARK  Name = ligands/ligand_44.pdb
DOCKED: REMARK  34 active torsions:
DOCKED: REMARK  status: ('A' for Active; 'I' for Inactive)
DOCKED: REMARK    1  A    between atoms: C1_1  and  C2_2
DOCKED: REMARK    2  A    between atoms: C2_2  and  C3_3
DOCKED: REMARK    3  A    between atoms: C3_3  and  C4_4
DOCKED: REMARK    4  A    between atoms: C4_4  and  N1_5
DOCKED: REMARK    5  A    between atoms: C5_6  and  C6_8
DOCKED: REMARK    6  A    between atoms: C6_8  and  N2_9
DOCKED: REMARK    7  A    between atoms: C6_8  and  C30_43
DOCKED: REMARK    8  A    between atoms: C7_10  and  C8_12
DOCKED: REMARK    9  A    between atoms: C8_12  and  C9_13
DOCKED: REMARK   10  A    between atoms: C9_13  and  O3_14
DOCKED: REMARK   11  A    between atoms: C9_13  and  C10_15
DOCKED: REMARK   12  A    between atoms: C10_15  and  C11_16
DOCKED: REMARK   13  A    between atoms: C10_15  and  N3_20
DOCKED: REMARK   14  A    between atoms: C11_16  and  C12_17
DOCKED: REMARK   15  A    between atoms: C12_17  and  C13_18
DOCKED: REMARK   16  A    between atoms: C12_17  and  C14_19
DOCKED: REMARK   17  A    between atoms: C15_21  and  C16_23
DOCKED: REMARK   18  A    between atoms: C16_23  and  C17_24
DOCKED: REMARK   19  A    between atoms: C16_23  and  N4_28
DOCKED: REMARK   20  A    between atoms: C17_24  and  C18_25
DOCKED: REMARK   21  A    between atoms: C18_25  and  S1_26
DOCKED: REMARK   22  A    between atoms: S1_26  and  C19_27
DOCKED: REMARK   23  A    between atoms: C20_29  and  C21_31
DOCKED: REMARK   24  A    between atoms: C21_31  and  N5_32
DOCKED: REMARK   25  A    between atoms: C21_31  and  C27_40
DOCKED: REMARK   26  A    between atoms: C22_33  and  O7_35
DOCKED: REMARK   27  A    between atoms: O7_35  and  C23_36
DOCKED: REMARK   28  A    between atoms: C23_36  and  C24_37
DOCKED: REMARK   29  A    between atoms: C23_36  and  C25_38
DOCKED: REMARK   30  A    between atoms: C23_36  and  C26_39
DOCKED: REMARK   31  A    between atoms: C27_40  and  C28_41
DOCKED: REMARK   32  A    between atoms: C27_40  and  C29_42
DOCKED: REMARK   33  A    between atoms: C30_43  and  C31_44
DOCKED: REMARK   34  A    between atoms: C30_43  and  C32_45
DOCKED: REMARK                            x       y       z     vdW  Elec       q    Type
DOCKED: REMARK                         _______ _______ _______ _____ _____    ______ ____
DOCKED: USER                              x       y       z     vdW  Elec       q    Type
DOCKED: USER                           _______ _______ _______ _____ _____    ______ ____
DOCKED: ROOT
DOCKED: ATOM      1  N3  UNL     1       7.546  -3.539  -4.055 +0.00 -0.00    -0.308 N  
DOCKED: ATOM      2  C15 UNL     1       8.098  -4.804  -4.009 +0.00 +0.00    +0.234 C  
DOCKED: ATOM      3  O4  UNL     1       7.457  -5.796  -3.668 +0.00 -0.00    -0.274 OA 
DOCKED: ATOM      4  H27 UNL     1       8.167  -2.750  -4.192 +0.00 +0.00    +0.149 HD 
DOCKED: ENDROOT
DOCKED: BRANCH   1   5
DOCKED: ATOM      5  C10 UNL     1       6.203  -3.260  -3.521 +0.00 +0.00    +0.102 C  
DOCKED: BRANCH   5   6
DOCKED: ATOM      6  C11 UNL     1       5.156  -3.345  -4.657 +0.00 +0.00    +0.028 C  
DOCKED: BRANCH   6   7
DOCKED: ATOM      7  C12 UNL     1       4.377  -4.671  -4.816 +0.00 -0.00    -0.015 C  
DOCKED: ATOM      8  C13 UNL     1       4.046  -5.323  -3.472 +0.00 +0.00    +0.007 C  
DOCKED: ATOM      9  C14 UNL     1       5.049  -5.680  -5.744 +0.00 +0.00    +0.007 C  
DOCKED: ENDBRANCH   6   7
DOCKED: ENDBRANCH   5   6
DOCKED: BRANCH   5  10
DOCKED: ATOM     10  C9  UNL     1       6.206  -1.856  -2.819 +0.00 +0.00    +0.143 C  
DOCKED: BRANCH  10  11
DOCKED: ATOM     11  O3  UNL     1       7.449  -1.155  -2.901 +0.00 -0.00    -0.389 OA 
DOCKED: ATOM     12  H16 UNL     1       7.893  -1.405  -3.727 +0.00 +0.00    +0.210 HD 
DOCKED: ENDBRANCH  10  11
DOCKED: BRANCH  10  13
DOCKED: ATOM     13  C8  UNL     1       5.086  -0.908  -3.265 +0.00 +0.00    +0.129 C  
DOCKED: BRANCH  13  15
DOCKED: ATOM     14  N2  UNL     1       6.408   0.496  -4.716 +0.00 -0.00    -0.304 N  
DOCKED: ATOM     15  C7  UNL     1       5.536   0.496  -3.640 +0.00 +0.00    +0.216 C  
DOCKED: ATOM     16  O2  UNL     1       5.152   1.523  -3.092 +0.00 -0.00    -0.276 OA 
DOCKED: ATOM     17  H12 UNL     1       6.944  -0.355  -4.843 +0.00 +0.00    +0.149 HD 
DOCKED: BRANCH  14  18
DOCKED: ATOM     18  C6  UNL     1       7.115   1.717  -5.103 +0.00 +0.00    +0.161 C  
DOCKED: BRANCH  18  20
DOCKED: ATOM     19  N1  UNL     1       8.944   0.579  -3.902 +0.00 -0.00    -0.314 N  
DOCKED: ATOM     20  C5  UNL     1       8.383   1.796  -4.229 +0.00 +0.00    +0.234 C  
DOCKED: ATOM     21  O1  UNL     1       8.822   2.868  -3.813 +0.00 -0.00    -0.274 OA 
DOCKED: ATOM     22  H10 UNL     1       8.675  -0.226  -4.456 +0.00 +0.00    +0.149 HD 
DOCKED: BRANCH  19  23
DOCKED: ATOM     23  C4  UNL     1      10.181   0.501  -3.154 +0.00 +0.00    +0.104 C  
DOCKED: BRANCH  23  24
DOCKED: ATOM     24  C3  UNL     1       9.945   0.100  -1.698 +0.00 +0.00    +0.018 C  
DOCKED: BRANCH  24  26
DOCKED: ATOM     25  C1  UNL     1       7.900   0.167  -0.231 +0.00 +0.00    +0.004 C  
DOCKED: ATOM     26  C2  UNL     1       8.889   0.988  -1.044 +0.00 -0.00    -0.002 C  
DOCKED: ENDBRANCH  24  26
DOCKED: ENDBRANCH  23  24
DOCKED: ENDBRANCH  19  23
DOCKED: ENDBRANCH  18  20
DOCKED: BRANCH  18  27
DOCKED: ATOM     27  C30 UNL     1       7.428   1.718  -6.616 +0.00 +0.00    +0.012 C  
DOCKED: ATOM     28  C31 UNL     1       8.446   2.784  -7.037 +0.00 +0.00    +0.009 C  
DOCKED: ATOM     29  C32 UNL     1       6.159   1.847  -7.463 +0.00 +0.00    +0.009 C  
DOCKED: ENDBRANCH  18  27
DOCKED: ENDBRANCH  14  18
DOCKED: ENDBRANCH  13  15
DOCKED: ENDBRANCH  10  13
DOCKED: ENDBRANCH   5  10
DOCKED: ENDBRANCH   1   5
DOCKED: BRANCH   2  30
DOCKED: ATOM     30  C16 UNL     1       9.573  -4.887  -4.453 +0.00 +0.00    +0.160 C  
DOCKED: BRANCH  30  31
DOCKED: ATOM     31  N4  UNL     1       9.722  -3.992  -5.590 +0.00 -0.00    -0.302 N  
DOCKED: ATOM     32  C20 UNL     1       9.919  -2.639  -5.427 +0.00 +0.00    +0.234 C  
DOCKED: ATOM     33  O5  UNL     1       9.827  -2.084  -4.332 +0.00 -0.00    -0.274 OA 
DOCKED: ATOM     34  H36 UNL     1      10.052  -4.422  -6.447 +0.00 +0.00    +0.150 HD 
DOCKED: BRANCH  32  35
DOCKED: ATOM     35  C21 UNL     1      10.301  -1.886  -6.721 +0.00 +0.00    +0.165 C  
DOCKED: BRANCH  35  36
DOCKED: ATOM     36  N5  UNL     1       9.114  -1.780  -7.556 +0.00 -0.00    -0.270 N  
DOCKED: ATOM     37  C22 UNL     1       7.891  -1.475  -7.043 +0.00 +0.00    +0.401 C  
DOCKED: ATOM     38  O6  UNL     1       7.606  -1.465  -5.857 +0.00 -0.00    -0.226 OA 
DOCKED: ATOM     39  H38 UNL     1       9.242  -1.493  -8.517 +0.00 +0.00    +0.153 HD 
DOCKED: BRANCH  37  40
DOCKED: ATOM     40  O7  UNL     1       7.058  -1.188  -8.068 +0.00 -0.00    -0.445 OA 
DOCKED: BRANCH  40  41
DOCKED: ATOM     41  C23 UNL     1       5.792  -1.883  -8.207 +0.00 +0.00    +0.107 C  
DOCKED: ATOM     42  C24 UNL     1       5.264  -1.804  -9.643 +0.00 +0.00    +0.055 C  
DOCKED: ATOM     43  C25 UNL     1       6.113  -3.351  -7.882 +0.00 +0.00    +0.055 C  
DOCKED: ATOM     44  C26 UNL     1       4.762  -1.373  -7.191 +0.00 +0.00    +0.055 C  
DOCKED: ENDBRANCH  40  41
DOCKED: ENDBRANCH  37  40
DOCKED: ENDBRANCH  35  36
DOCKED: BRANCH  35  45
DOCKED: ATOM     45  C27 UNL     1      10.919  -0.511  -6.397 +0.00 +0.00    +0.012 C  
DOCKED: ATOM     46  C28 UNL     1      10.890   0.462  -7.581 +0.00 +0.00    +0.009 C  
DOCKED: ATOM     47  C29 UNL     1      12.353  -0.663  -5.881 +0.00 +0.00    +0.009 C  
DOCKED: ENDBRANCH  35  45
DOCKED: ENDBRANCH  32  35
DOCKED: ENDBRANCH  30  31
DOCKED: BRANCH  30  48
DOCKED: ATOM     48  C17 UNL     1      10.502  -4.522  -3.288 +0.00 +0.00    +0.042 C  
DOCKED: BRANCH  48  49
DOCKED: ATOM     49  C18 UNL     1       9.867  -4.739  -1.911 +0.00 +0.00    +0.071 C  
DOCKED: BRANCH  49  50
DOCKED: ATOM     50  S1  UNL     1       9.338  -3.171  -1.147 +0.00 -0.00    -0.164 S  
DOCKED: ATOM     51  C19 UNL     1       7.780  -3.731  -0.420 +0.00 +0.00    +0.084 C  
DOCKED: ENDBRANCH  49  50
DOCKED: ENDBRANCH  48  49
DOCKED: ENDBRANCH  30  48
DOCKED: ENDBRANCH   2  30
DOCKED: TORSDOF 23
DOCKED: TER
DOCKED: ENDMDL
________________________________________________________________________________


    FINAL DOCKED STATE:
    ________________________


Run:   20 / 20
Time taken for this run:   1.806s

DOCKED: MODEL        20
DOCKED: USER    Run = 20
DOCKED: USER
DOCKED: USER    Estimated Free Energy of Binding    =  +6.86 kcal/mol  [=(1)+(2)+(3)-(4)]
DOCKED: USER
DOCKED: USER    (1) Final Intermolecular Energy     =  +0.00 kcal/mol
DOCKED: USER        vdW + Hbond + desolv Energy     =  +0.00 kcal/mol
DOCKED: USER        Electrostatic Energy            =  +0.00 kcal/mol
DOCKED: USER        Moving Ligand-Fixed Receptor    =  +0.00 kcal/mol
DOCKED: USER        Moving Ligand-Moving Receptor   =  +0.00 kcal/mol
DOCKED: USER    (2) Final Total Internal Energy     = -13.88 kcal/mol
DOCKED: USER    (3) Torsional Free Energy           =  +6.86 kcal/mol
DOCKED: USER    (4) Unbound System's Energy         = -13.88 kcal/mol
DOCKED: USER
DOCKED: USER
DOCKED: REMARK  Name = ligands/ligand_44.pdb
DOCKED: REMARK  34 active torsions:
DOCKED: REMARK  status: ('A' for Active; 'I' for Inactive)
DOCKED: REMARK    1  A    between atoms: C1_1  and  C2_2
DOCKED: REMARK    2  A    between atoms: C2_2  and  C3_3
DOCKED: REMARK    3  A    between atoms: C3_3  and  C4_4
DOCKED: REMARK    4  A    between atoms: C4_4  and  N1_5
DOCKED: REMARK    5  A    between atoms: C5_6  and  C6_8
DOCKED: REMARK    6  A    between atoms: C6_8  and  N2_9
DOCKED: REMARK    7  A    between atoms: C6_8  and  C30_43
DOCKED: REMARK    8  A    between atoms: C7_10  and  C8_12
DOCKED: REMARK    9  A    between atoms: C8_12  and  C9_13
DOCKED: REMARK   10  A    between atoms: C9_13  and  O3_14
DOCKED: REMARK   11  A    between atoms: C9_13  and  C10_15
DOCKED: REMARK   12  A    between atoms: C10_15  and  C11_16
DOCKED: REMARK   13  A    between atoms: C10_15  and  N3_20
DOCKED: REMARK   14  A    between atoms: C11_16  and  C12_17
DOCKED: REMARK   15  A    between atoms: C12_17  and  C13_18
DOCKED: REMARK   16  A    between atoms: C12_17  and  C14_19
DOCKED: REMARK   17  A    between atoms: C15_21  and  C16_23
DOCKED: REMARK   18  A    between atoms: C16_23  and  C17_24
DOCKED: REMARK   19  A    between atoms: C16_23  and  N4_28
DOCKED: REMARK   20  A    between atoms: C17_24  and  C18_25
DOCKED: REMARK   21  A    between atoms: C18_25  and  S1_26
DOCKED: REMARK   22  A    between atoms: S1_26  and  C19_27
DOCKED: REMARK   23  A    between atoms: C20_29  and  C21_31
DOCKED: REMARK   24  A    between atoms: C21_31  and  N5_32
DOCKED: REMARK   25  A    between atoms: C21_31  and  C27_40
DOCKED: REMARK   26  A    between atoms: C22_33  and  O7_35
DOCKED: REMARK   27  A    between atoms: O7_35  and  C23_36
DOCKED: REMARK   28  A    between atoms: C23_36  and  C24_37
DOCKED: REMARK   29  A    between atoms: C23_36  and  C25_38
DOCKED: REMARK   30  A    between atoms: C23_36  and  C26_39
DOCKED: REMARK   31  A    between atoms: C27_40  and  C28_41
DOCKED: REMARK   32  A    between atoms: C27_40  and  C29_42
DOCKED: REMARK   33  A    between atoms: C30_43  and  C31_44
DOCKED: REMARK   34  A    between atoms: C30_43  and  C32_45
DOCKED: REMARK                            x       y       z     vdW  Elec       q    Type
DOCKED: REMARK                         _______ _______ _______ _____ _____    ______ ____
DOCKED: USER                              x       y       z     vdW  Elec       q    Type
DOCKED: USER                           _______ _______ _______ _____ _____    ______ ____
DOCKED: ROOT
DOCKED: ATOM      1  N3  UNL     1      15.643  -7.011   1.134 +0.00 -0.00    -0.308 N  
DOCKED: ATOM      2  C15 UNL     1      15.109  -6.993  -0.139 +0.00 +0.00    +0.234 C  
DOCKED: ATOM      3  O4  UNL     1      14.784  -8.016  -0.738 +0.00 -0.00    -0.274 OA 
DOCKED: ATOM      4  H27 UNL     1      16.030  -6.151   1.504 +0.00 +0.00    +0.149 HD 
DOCKED: ENDROOT
DOCKED: BRANCH   1   5
DOCKED: ATOM      5  C10 UNL     1      16.035  -8.269   1.791 +0.00 +0.00    +0.102 C  
DOCKED: BRANCH   5   6
DOCKED: ATOM      6  C11 UNL     1      14.886  -8.773   2.695 +0.00 +0.00    +0.028 C  
DOCKED: BRANCH   6   7
DOCKED: ATOM      7  C12 UNL     1      13.971  -9.888   2.137 +0.00 -0.00    -0.015 C  
DOCKED: ATOM      8  C13 UNL     1      14.740 -10.917   1.307 +0.00 +0.00    +0.007 C  
DOCKED: ATOM      9  C14 UNL     1      12.764  -9.372   1.359 +0.00 +0.00    +0.007 C  
DOCKED: ENDBRANCH   6   7
DOCKED: ENDBRANCH   5   6
DOCKED: BRANCH   5  10
DOCKED: ATOM     10  C9  UNL     1      17.366  -8.042   2.592 +0.00 +0.00    +0.143 C  
DOCKED: BRANCH  10  11
DOCKED: ATOM     11  O3  UNL     1      17.846  -6.696   2.574 +0.00 -0.00    -0.389 OA 
DOCKED: ATOM     12  H16 UNL     1      17.085  -6.095   2.525 +0.00 +0.00    +0.210 HD 
DOCKED: ENDBRANCH  10  11
DOCKED: BRANCH  10  13
DOCKED: ATOM     13  C8  UNL     1      17.335  -8.526   4.047 +0.00 +0.00    +0.129 C  
DOCKED: BRANCH  13  15
DOCKED: ATOM     14  N2  UNL     1      17.013  -6.370   5.085 +0.00 -0.00    -0.304 N  
DOCKED: ATOM     15  C7  UNL     1      17.802  -7.509   5.078 +0.00 +0.00    +0.216 C  
DOCKED: ATOM     16  O2  UNL     1      18.739  -7.676   5.850 +0.00 -0.00    -0.276 OA 
DOCKED: ATOM     17  H12 UNL     1      16.543  -6.160   4.211 +0.00 +0.00    +0.149 HD 
DOCKED: BRANCH  14  18
DOCKED: ATOM     18  C6  UNL     1      17.411  -5.191   5.853 +0.00 +0.00    +0.161 C  
DOCKED: BRANCH  18  20
DOCKED: ATOM     19  N1  UNL     1      18.118  -4.440   3.614 +0.00 -0.00    -0.314 N  
DOCKED: ATOM     20  C5  UNL     1      18.381  -4.385   4.966 +0.00 +0.00    +0.234 C  
DOCKED: ATOM     21  O1  UNL     1      19.349  -3.786   5.436 +0.00 -0.00    -0.274 OA 
DOCKED: ATOM     22  H10 UNL     1      17.196  -4.750   3.326 +0.00 +0.00    +0.149 HD 
DOCKED: BRANCH  19  23
DOCKED: ATOM     23  C4  UNL     1      18.897  -3.670   2.667 +0.00 +0.00    +0.104 C  
DOCKED: BRANCH  23  24
DOCKED: ATOM     24  C3  UNL     1      19.886  -4.542   1.896 +0.00 +0.00    +0.018 C  
DOCKED: BRANCH  24  26
DOCKED: ATOM     25  C1  UNL     1      20.867  -6.823   2.311 +0.00 +0.00    +0.004 C  
DOCKED: ATOM     26  C2  UNL     1      20.716  -5.406   2.842 +0.00 -0.00    -0.002 C  
DOCKED: ENDBRANCH  24  26
DOCKED: ENDBRANCH  23  24
DOCKED: ENDBRANCH  19  23
DOCKED: ENDBRANCH  18  20
DOCKED: BRANCH  18  27
DOCKED: ATOM     27  C30 UNL     1      16.175  -4.372   6.289 +0.00 +0.00    +0.012 C  
DOCKED: ATOM     28  C31 UNL     1      16.509  -2.955   6.769 +0.00 +0.00    +0.009 C  
DOCKED: ATOM     29  C32 UNL     1      15.352  -5.102   7.354 +0.00 +0.00    +0.009 C  
DOCKED: ENDBRANCH  18  27
DOCKED: ENDBRANCH  14  18
DOCKED: ENDBRANCH  13  15
DOCKED: ENDBRANCH  10  13
DOCKED: ENDBRANCH   5  10
DOCKED: ENDBRANCH   1   5
DOCKED: BRANCH   2  30
DOCKED: ATOM     30  C16 UNL     1      14.913  -5.586  -0.742 +0.00 +0.00    +0.160 C  
DOCKED: BRANCH  30  31
DOCKED: ATOM     31  N4  UNL     1      14.458  -4.725   0.337 +0.00 -0.00    -0.302 N  
DOCKED: ATOM     32  C20 UNL     1      15.337  -4.148   1.226 +0.00 +0.00    +0.234 C  
DOCKED: ATOM     33  O5  UNL     1      16.532  -4.444   1.262 +0.00 -0.00    -0.274 OA 
DOCKED: ATOM     34  H36 UNL     1      13.564  -4.268   0.187 +0.00 +0.00    +0.150 HD 
DOCKED: BRANCH  32  35
DOCKED: ATOM     35  C21 UNL     1      14.710  -3.076   2.145 +0.00 +0.00    +0.165 C  
DOCKED: BRANCH  35  36
DOCKED: ATOM     36  N5  UNL     1      13.875  -3.748   3.129 +0.00 -0.00    -0.270 N  
DOCKED: ATOM     37  C22 UNL     1      14.267  -4.891   3.754 +0.00 +0.00    +0.401 C  
DOCKED: ATOM     38  O6  UNL     1      15.221  -5.580   3.432 +0.00 -0.00    -0.226 OA 
DOCKED: ATOM     39  H38 UNL     1      13.239  -3.178   3.671 +0.00 +0.00    +0.153 HD 
DOCKED: BRANCH  37  40
DOCKED: ATOM     40  O7  UNL     1      13.424  -5.126   4.783 +0.00 -0.00    -0.445 OA 
DOCKED: BRANCH  40  41
DOCKED: ATOM     41  C23 UNL     1      12.694  -6.377   4.871 +0.00 +0.00    +0.107 C  
DOCKED: ATOM     42  C24 UNL     1      11.408  -6.221   5.689 +0.00 +0.00    +0.055 C  
DOCKED: ATOM     43  C25 UNL     1      12.314  -6.710   3.418 +0.00 +0.00    +0.055 C  
DOCKED: ATOM     44  C26 UNL     1      13.583  -7.503   5.412 +0.00 +0.00    +0.055 C  
DOCKED: ENDBRANCH  40  41
DOCKED: ENDBRANCH  37  40
DOCKED: ENDBRANCH  35  36
DOCKED: BRANCH  35  45
DOCKED: ATOM     45  C27 UNL     1      15.801  -2.202   2.796 +0.00 +0.00    +0.012 C  
DOCKED: ATOM     46  C28 UNL     1      15.295  -1.396   3.999 +0.00 +0.00    +0.009 C  
DOCKED: ATOM     47  C29 UNL     1      16.435  -1.261   1.768 +0.00 +0.00    +0.009 C  
DOCKED: ENDBRANCH  35  45
DOCKED: ENDBRANCH  32  35
DOCKED: ENDBRANCH  30  31
DOCKED: BRANCH  30  48
DOCKED: ATOM     48  C17 UNL     1      16.219  -5.094  -1.380 +0.00 +0.00    +0.042 C  
DOCKED: BRANCH  48  49
DOCKED: ATOM     49  C18 UNL     1      17.178  -6.227  -1.758 +0.00 +0.00    +0.071 C  
DOCKED: BRANCH  49  50
DOCKED: ATOM     50  S1  UNL     1      18.553  -6.384  -0.572 +0.00 -0.00    -0.164 S  
DOCKED: ATOM     51  C19 UNL     1      18.710  -8.185  -0.568 +0.00 +0.00    +0.084 C  
DOCKED: ENDBRANCH  49  50
DOCKED: ENDBRANCH  48  49
DOCKED: ENDBRANCH  30  48
DOCKED: ENDBRANCH   2  30
DOCKED: TORSDOF 23
DOCKED: TER
DOCKED: ENDMDL
________________________________________________________________________________


    CLUSTERING HISTOGRAM
    ____________________


________________________________________________________________________________
     |           |     |           |     |
Clus | Lowest    | Run | Mean      | Num | Histogram
-ter | Binding   |     | Binding   | in  |
Rank | Energy    |     | Energy    | Clus|    5    10   15   20   25   30   35
_____|___________|_____|___________|_____|____:____|____:____|____:____|____:___
   1 |     +6.86 |   1 |     +6.86 |   2 |##
   2 |     +6.86 |   2 |     +6.86 |   1 |#
   3 |     +6.86 |   3 |     +6.86 |   1 |#
   4 |     +6.86 |   4 |     +6.86 |   1 |#
   5 |     +6.86 |   5 |     +6.86 |   1 |#
   6 |     +6.86 |   6 |     +6.86 |   1 |#
   7 |     +6.86 |   7 |     +6.86 |   1 |#
   8 |     +6.86 |   8 |     +6.86 |   1 |#
   9 |     +6.86 |   9 |     +6.86 |   1 |#
  10 |     +6.86 |  10 |     +6.86 |   1 |#
  11 |     +6.86 |  12 |     +6.86 |   1 |#
  12 |     +6.86 |  13 |     +6.86 |   1 |#
  13 |     +6.86 |  14 |     +6.86 |   1 |#
  14 |     +6.86 |  15 |     +6.86 |   1 |#
  15 |     +6.86 |  16 |     +6.86 |   1 |#
  16 |     +6.86 |  17 |     +6.86 |   1 |#
  17 |     +6.86 |  18 |     +6.86 |   1 |#
  18 |     +6.86 |  19 |     +6.86 |   1 |#
  19 |     +6.86 |  20 |     +6.86 |   1 |#
_____|___________|_____|___________|_____|______________________________________


    RMSD TABLE
    __________


_______________________________________________________________________
     |      |      |           |         |                 |
Rank | Sub- | Run  | Binding   | Cluster | Reference       | Grep
     | Rank |      | Energy    | RMSD    | RMSD            | Pattern
_____|______|______|___________|_________|_________________|___________
   1      1      1       +6.86      0.00      8.50           RANKING
   1      2     11       +6.86      1.60      9.27           RANKING
   2      1      2       +6.86      0.00      4.19           RANKING
   3      1      3       +6.86      0.00     11.67           RANKING
   4      1      4       +6.86      0.00     12.31           RANKING
   5      1      5       +6.86      0.00     14.37           RANKING
   6      1      6       +6.86      0.00      5.12           RANKING
   7      1      7       +6.86      0.00     10.31           RANKING
   8      1      8       +6.86      0.00     10.20           RANKING
   9      1      9       +6.86      0.00     10.09           RANKING
  10      1     10       +6.86      0.00     11.78           RANKING
  11      1     12       +6.86      0.00      7.48           RANKING
  12      1     13       +6.86      0.00     13.73           RANKING
  13      1     14       +6.86      0.00      8.14           RANKING
  14      1     15       +6.86      0.00     11.14           RANKING
  15      1     16       +6.86      0.00     12.83           RANKING
  16      1     17       +6.86      0.00      7.59           RANKING
  17      1     18       +6.86      0.00     12.96           RANKING
  18      1     19       +6.86      0.00      7.58           RANKING
  19      1     20       +6.86      0.00     13.77           RANKING

Run time 36.480 sec
Idle time 0.293 sec
