REMARK  Name = ligands/ligand_30.pdb
REMARK  30 active torsions:
REMARK  status: ('A' for Active; 'I' for Inactive)
REMARK    1  A    between atoms: C1_1  and  C2_2
REMARK    2  A    between atoms: C2_2  and  C3_3
REMARK    3  A    between atoms: C2_2  and  C4_4
REMARK    4  A    between atoms: C4_4  and  C5_5
REMARK    5  A    between atoms: C5_5  and  N1_6
REMARK    6  A    between atoms: C5_5  and  C14_18
REMARK    7  A    between atoms: C6_7  and  C7_9
REMARK    8  A    between atoms: C7_9  and  C8_10
REMARK    9  A    between atoms: C14_18  and  O2_19
REMARK   10  A    between atoms: C14_18  and  C15_20
REMARK   11  A    between atoms: C15_20  and  C16_21
REMARK   12  A    between atoms: N2_23  and  C17_24
REMARK   13  A    between atoms: C17_24  and  C18_25
REMARK   14  A    between atoms: C17_24  and  C36_53
REMARK   15  A    between atoms: N3_27  and  C19_28
REMARK   16  A    between atoms: C19_28  and  C20_29
REMARK   17  A    between atoms: C19_28  and  C21_30
REMARK   18  A    between atoms: N4_32  and  C22_33
REMARK   19  A    between atoms: C22_33  and  C23_34
REMARK   20  A    between atoms: C22_33  and  C26_39
REMARK   21  A    between atoms: C23_34  and  C24_35
REMARK   22  A    between atoms: C24_35  and  C25_36
REMARK   23  A    between atoms: C25_36  and  O7_38
REMARK   24  A    between atoms: N5_41  and  C27_42
REMARK   25  A    between atoms: C27_42  and  C28_43
REMARK   26  A    between atoms: C27_42  and  C35_50
REMARK   27  A    between atoms: C28_43  and  C29_44
REMARK   28  A    between atoms: C35_50  and  O10_52
REMARK   29  A    between atoms: C36_53  and  C37_54
REMARK   30  A    between atoms: C36_53  and  C38_55
REMARK                            x       y       z     vdW  Elec       q    Type
REMARK                         _______ _______ _______ _____ _____    ______ ____
ROOT
ATOM      1  C18 UNL     1       3.416   2.319  -0.122  0.00  0.00    +0.234 C 
ATOM      2  O4  UNL     1       4.061   1.275  -0.022  0.00  0.00    -0.274 OA
ATOM      3  N3  UNL     1       3.200   3.192   0.921  0.00  0.00    -0.303 N 
ATOM      4  H23 UNL     1       2.416   3.825   0.786  0.00  0.00    +0.149 HD
ENDROOT
BRANCH   3   5
ATOM      5  C19 UNL     1       3.395   2.856   2.339  0.00  0.00    +0.156 C 
ATOM      6  C20 UNL     1       4.541   1.905   2.643  0.00  0.00    +0.038 C 
BRANCH   5   7
ATOM      7  C21 UNL     1       2.004   2.455   2.881  0.00  0.00    +0.234 C 
ATOM      8  O5  UNL     1       0.977   2.923   2.376  0.00  0.00    -0.274 OA
ATOM      9  N4  UNL     1       1.965   1.683   4.020  0.00  0.00    -0.302 N 
ATOM     10  H28 UNL     1       2.739   1.028   4.141  0.00  0.00    +0.150 HD
BRANCH   9  11
ATOM     11  C22 UNL     1       0.674   1.239   4.534  0.00  0.00    +0.159 C 
BRANCH  11  12
ATOM     12  C26 UNL     1       0.164   0.017   3.742  0.00  0.00    +0.234 C 
ATOM     13  O8  UNL     1       0.919  -0.770   3.176  0.00  0.00    -0.274 OA
ATOM     14  N5  UNL     1      -1.205  -0.146   3.780  0.00  0.00    -0.301 N 
ATOM     15  H35 UNL     1      -1.716   0.353   4.497  0.00  0.00    +0.150 HD
BRANCH  14  16
ATOM     16  C27 UNL     1      -1.841  -1.368   3.269  0.00  0.00    +0.186 C 
BRANCH  16  17
ATOM     17  C35 UNL     1      -1.918  -2.334   4.454  0.00  0.00    +0.326 C 
ATOM     18  O9  UNL     1      -1.926  -2.011   5.638  0.00  0.00    -0.249 OA
BRANCH  17  19
ATOM     19  O10 UNL     1      -2.012  -3.628   4.100  0.00  0.00    -0.479 OA
ATOM     20  H44 UNL     1      -2.007  -4.123   4.947  0.00  0.00    +0.295 HD
ENDBRANCH  17  19
ENDBRANCH  16  17
BRANCH  16  21
ATOM     21  C28 UNL     1      -3.247  -1.043   2.752  0.00  0.00    +0.069 C 
BRANCH  21  22
ATOM     22  C29 UNL     1      -3.808  -2.086   1.816  0.00  0.00    -0.045 A 
ATOM     23  C30 UNL     1      -3.312  -2.198   0.510  0.00  0.00    +0.004 A 
ATOM     24  C31 UNL     1      -3.842  -3.140  -0.373  0.00  0.00    +0.000 A 
ATOM     25  C32 UNL     1      -4.864  -3.989   0.042  0.00  0.00    +0.000 A 
ATOM     26  C33 UNL     1      -5.363  -3.890   1.342  0.00  0.00    +0.000 A 
ATOM     27  C34 UNL     1      -4.840  -2.942   2.224  0.00  0.00    +0.004 A 
ENDBRANCH  21  22
ENDBRANCH  16  21
ENDBRANCH  14  16
ENDBRANCH  11  12
BRANCH  11  28
ATOM     28  C23 UNL     1       0.709   0.948   6.044  0.00  0.00    +0.043 C 
BRANCH  28  29
ATOM     29  C24 UNL     1       1.528  -0.268   6.480  0.00  0.00    +0.123 C 
BRANCH  29  30
ATOM     30  C25 UNL     1       3.004   0.013   6.478  0.00  0.00    +0.305 C 
ATOM     31  O6  UNL     1       3.715   0.100   5.489  0.00  0.00    -0.251 OA
BRANCH  30  32
ATOM     32  O7  UNL     1       3.504   0.216   7.710  0.00  0.00    -0.481 OA
ATOM     33  H34 UNL     1       4.459   0.376   7.564  0.00  0.00    +0.295 HD
ENDBRANCH  30  32
ENDBRANCH  29  30
ENDBRANCH  28  29
ENDBRANCH  11  28
ENDBRANCH   9  11
ENDBRANCH   5   7
ENDBRANCH   3   5
BRANCH   1  34
ATOM     34  C17 UNL     1       2.811   2.752  -1.482  0.00  0.00    +0.161 C 
BRANCH  34  37
ATOM     35  C16 UNL     1       2.114   1.384  -3.441  0.00  0.00    +0.216 C 
ATOM     36  O3  UNL     1       1.194   2.139  -3.747  0.00  0.00    -0.276 OA
ATOM     37  N2  UNL     1       2.954   1.604  -2.381  0.00  0.00    -0.304 N 
ATOM     38  H21 UNL     1       3.575   0.864  -2.059  0.00  0.00    +0.149 HD
BRANCH  35  39
ATOM     39  C15 UNL     1       2.481   0.169  -4.267  0.00  0.00    +0.129 C 
BRANCH  39  40
ATOM     40  C14 UNL     1       1.370  -0.256  -5.240  0.00  0.00    +0.143 C 
BRANCH  40  41
ATOM     41  O2  UNL     1       1.058   0.819  -6.117  0.00  0.00    -0.389 OA
ATOM     42  H18 UNL     1       0.785   1.576  -5.552  0.00  0.00    +0.210 HD
ENDBRANCH  40  41
BRANCH  40  43
ATOM     43  C5  UNL     1       0.124  -0.844  -4.520  0.00  0.00    +0.102 C 
BRANCH  43  44
ATOM     44  N1  UNL     1       0.520  -2.086  -3.829  0.00  0.00    -0.310 N 
ATOM     45  C6  UNL     1      -0.135  -2.537  -2.700  0.00  0.00    +0.218 C 
ATOM     46  O1  UNL     1      -1.023  -1.900  -2.142  0.00  0.00    -0.275 OA
ATOM     47  H11 UNL     1       1.061  -2.756  -4.358  0.00  0.00    +0.149 HD
BRANCH  45  48
ATOM     48  C7  UNL     1       0.321  -3.911  -2.233  0.00  0.00    +0.133 C 
BRANCH  48  49
ATOM     49  C8  UNL     1       0.465  -4.012  -0.738  0.00  0.00    -0.003 A 
ATOM     50  C9  UNL     1      -0.453  -4.738   0.033  0.00  0.00    +0.010 A 
ATOM     51  C10 UNL     1      -0.295  -4.819   1.418  0.00  0.00    +0.039 A 
ATOM     52  C11 UNL     1       0.777  -4.173   2.028  0.00  0.00    +0.126 A 
ATOM     53  F1  UNL     1       0.924  -4.264   3.357  0.00  0.00    -0.205 F 
ATOM     54  C12 UNL     1       1.692  -3.443   1.284  0.00  0.00    +0.077 A 
ATOM     55  C13 UNL     1       1.528  -3.369  -0.094  0.00  0.00    +0.130 A 
ATOM     56  F2  UNL     1       2.420  -2.680  -0.822  0.00  0.00    -0.205 F 
ENDBRANCH  48  49
ENDBRANCH  45  48
ENDBRANCH  43  44
BRANCH  43  57
ATOM     57  C4  UNL     1      -1.056  -1.185  -5.469  0.00  0.00    +0.028 C 
BRANCH  57  59
ATOM     58  C1  UNL     1      -2.356   0.923  -4.716  0.00  0.00    +0.007 C 
ATOM     59  C2  UNL     1      -2.103  -0.100  -5.819  0.00  0.00    -0.015 C 
ATOM     60  C3  UNL     1      -1.847   0.596  -7.156  0.00  0.00    +0.007 C 
ENDBRANCH  57  59
ENDBRANCH  43  57
ENDBRANCH  40  43
ENDBRANCH  39  40
ENDBRANCH  35  39
ENDBRANCH  34  37
BRANCH  34  61
ATOM     61  C36 UNL     1       3.461   4.006  -2.116  0.00  0.00    +0.012 C 
ATOM     62  C37 UNL     1       4.993   3.946  -2.129  0.00  0.00    +0.009 C 
ATOM     63  C38 UNL     1       2.987   5.310  -1.471  0.00  0.00    +0.009 C 
ENDBRANCH  34  61
ENDBRANCH   1  34
TORSDOF 25
