REMARK  Name = ligands/ligand_41.pdb
REMARK  36 active torsions:
REMARK  status: ('A' for Active; 'I' for Inactive)
REMARK    1  A    between atoms: C1_1  and  S1_2
REMARK    2  A    between atoms: S1_2  and  C2_3
REMARK    3  A    between atoms: C2_3  and  C3_4
REMARK    4  A    between atoms: C3_4  and  C4_5
REMARK    5  A    between atoms: C4_5  and  N1_6
REMARK    6  A    between atoms: C4_5  and  C12_17
REMARK    7  A    between atoms: C5_7  and  C6_9
REMARK    8  A    between atoms: C6_9  and  N2_10
REMARK    9  A    between atoms: C6_9  and  C9_14
REMARK   10  A    between atoms: C7_11  and  C8_12
REMARK   11  A    between atoms: C9_14  and  C10_15
REMARK   12  A    between atoms: C9_14  and  C11_16
REMARK   13  A    between atoms: N3_19  and  C13_20
REMARK   14  A    between atoms: C13_20  and  C14_21
REMARK   15  A    between atoms: C13_20  and  C18_25
REMARK   16  A    between atoms: C14_21  and  C15_22
REMARK   17  A    between atoms: C15_22  and  C16_23
REMARK   18  A    between atoms: C15_22  and  C17_24
REMARK   19  A    between atoms: C18_25  and  O4_26
REMARK   20  A    between atoms: C18_25  and  C19_27
REMARK   21  A    between atoms: C19_27  and  C20_28
REMARK   22  A    between atoms: C24_34  and  C25_35
REMARK   23  A    between atoms: N5_37  and  C26_38
REMARK   24  A    between atoms: C26_38  and  C27_39
REMARK   25  A    between atoms: C26_38  and  C28_40
REMARK   26  A    between atoms: N6_42  and  C29_43
REMARK   27  A    between atoms: C29_43  and  C30_44
REMARK   28  A    between atoms: C29_43  and  C33_49
REMARK   29  A    between atoms: C30_44  and  C31_45
REMARK   30  A    between atoms: C31_45  and  C32_46
REMARK   31  A    between atoms: C32_46  and  O9_48
REMARK   32  A    between atoms: N7_51  and  C34_52
REMARK   33  A    between atoms: C34_52  and  C35_53
REMARK   34  A    between atoms: C34_52  and  C42_60
REMARK   35  A    between atoms: C35_53  and  C36_54
REMARK   36  A    between atoms: C42_60  and  O12_62
REMARK                            x       y       z     vdW  Elec       q    Type
REMARK                         _______ _______ _______ _____ _____    ______ ____
ROOT
ATOM      1  C20 UNL     1      -0.692   1.646   0.564  0.00  0.00    +0.219 C 
ATOM      2  O5  UNL     1      -1.640   1.110  -0.014  0.00  0.00    -0.275 OA
ATOM      3  N4  UNL     1      -0.306   2.929   0.212  0.00  0.00    -0.290 N 
ATOM      4  C21 UNL     1       0.803   3.644   0.831  0.00  0.00    +0.108 C 
ATOM      5  C22 UNL     1       1.287   4.660  -0.195  0.00  0.00    +0.021 C 
ATOM      6  C23 UNL     1       0.128   4.793  -1.157  0.00  0.00    +0.033 C 
ATOM      7  C24 UNL     1      -0.536   3.414  -1.156  0.00  0.00    +0.162 C 
ENDROOT
BRANCH   7   8
ATOM      8  C25 UNL     1      -1.945   3.613  -1.794  0.00  0.00    +0.234 C 
ATOM      9  O6  UNL     1      -2.070   4.196  -2.873  0.00  0.00    -0.274 OA
ATOM     10  N5  UNL     1      -3.006   3.041  -1.130  0.00  0.00    -0.303 N 
ATOM     11  H44 UNL     1      -2.697   2.272  -0.528  0.00  0.00    +0.149 HD
BRANCH  10  12
ATOM     12  C26 UNL     1      -4.270   2.724  -1.803  0.00  0.00    +0.156 C 
ATOM     13  C27 UNL     1      -4.889   3.872  -2.591  0.00  0.00    +0.038 C 
BRANCH  12  14
ATOM     14  C28 UNL     1      -4.090   1.411  -2.609  0.00  0.00    +0.234 C 
ATOM     15  O7  UNL     1      -3.067   0.728  -2.564  0.00  0.00    -0.274 OA
ATOM     16  N6  UNL     1      -5.208   0.973  -3.296  0.00  0.00    -0.302 N 
ATOM     17  H49 UNL     1      -5.738   1.704  -3.758  0.00  0.00    +0.150 HD
BRANCH  16  18
ATOM     18  C29 UNL     1      -5.101  -0.286  -4.030  0.00  0.00    +0.159 C 
BRANCH  18  19
ATOM     19  C33 UNL     1      -4.402  -0.045  -5.375  0.00  0.00    +0.234 C 
ATOM     20  O10 UNL     1      -4.593   0.969  -6.048  0.00  0.00    -0.274 OA
ATOM     21  N7  UNL     1      -3.593  -1.074  -5.788  0.00  0.00    -0.301 N 
ATOM     22  H56 UNL     1      -3.650  -1.954  -5.288  0.00  0.00    +0.150 HD
BRANCH  21  23
ATOM     23  C34 UNL     1      -3.060  -1.138  -7.148  0.00  0.00    +0.186 C 
BRANCH  23  24
ATOM     24  C42 UNL     1      -4.053  -1.910  -8.021  0.00  0.00    +0.326 C 
ATOM     25  O11 UNL     1      -5.039  -2.519  -7.634  0.00  0.00    -0.249 OA
BRANCH  24  26
ATOM     26  O12 UNL     1      -3.749  -1.878  -9.332  0.00  0.00    -0.479 OA
ATOM     27  H65 UNL     1      -4.480  -2.379  -9.751  0.00  0.00    +0.295 HD
ENDBRANCH  24  26
ENDBRANCH  23  24
BRANCH  23  28
ATOM     28  C35 UNL     1      -1.657  -1.749  -7.199  0.00  0.00    +0.069 C 
BRANCH  28  29
ATOM     29  C36 UNL     1      -1.540  -3.119  -6.572  0.00  0.00    -0.045 A 
ATOM     30  C37 UNL     1      -1.884  -4.272  -7.293  0.00  0.00    +0.004 A 
ATOM     31  C38 UNL     1      -1.797  -5.529  -6.694  0.00  0.00    +0.000 A 
ATOM     32  C39 UNL     1      -1.354  -5.650  -5.381  0.00  0.00    +0.000 A 
ATOM     33  C40 UNL     1      -0.987  -4.514  -4.661  0.00  0.00    +0.000 A 
ATOM     34  C41 UNL     1      -1.081  -3.256  -5.254  0.00  0.00    +0.004 A 
ENDBRANCH  28  29
ENDBRANCH  23  28
ENDBRANCH  21  23
ENDBRANCH  18  19
BRANCH  18  35
ATOM     35  C30 UNL     1      -6.472  -0.955  -4.221  0.00  0.00    +0.043 C 
BRANCH  35  36
ATOM     36  C31 UNL     1      -7.418  -0.187  -5.142  0.00  0.00    +0.123 C 
BRANCH  36  37
ATOM     37  C32 UNL     1      -8.802  -0.740  -5.039  0.00  0.00    +0.305 C 
ATOM     38  O8  UNL     1      -9.646  -0.398  -4.230  0.00  0.00    -0.251 OA
BRANCH  37  39
ATOM     39  O9  UNL     1      -9.039  -1.726  -5.923  0.00  0.00    -0.481 OA
ATOM     40  H55 UNL     1      -9.962  -1.994  -5.756  0.00  0.00    +0.295 HD
ENDBRANCH  37  39
ENDBRANCH  36  37
ENDBRANCH  35  36
ENDBRANCH  18  35
ENDBRANCH  16  18
ENDBRANCH  12  14
ENDBRANCH  10  12
ENDBRANCH   7   8
BRANCH   1  41
ATOM     41  C19 UNL     1      -0.015   0.930   1.723  0.00  0.00    +0.129 C 
BRANCH  41  42
ATOM     42  C18 UNL     1       0.030  -0.589   1.460  0.00  0.00    +0.143 C 
BRANCH  42  43
ATOM     43  O4  UNL     1       1.129  -0.857   0.556  0.00  0.00    -0.389 OA
ATOM     44  H34 UNL     1       1.962  -0.755   1.075  0.00  0.00    +0.210 HD
ENDBRANCH  42  43
BRANCH  42  45
ATOM     45  C13 UNL     1       0.191  -1.471   2.732  0.00  0.00    +0.102 C 
BRANCH  45  48
ATOM     46  C12 UNL     1       2.344  -0.518   3.594  0.00  0.00    +0.234 C 
ATOM     47  O3  UNL     1       2.857  -0.484   2.473  0.00  0.00    -0.274 OA
ATOM     48  N3  UNL     1       1.019  -0.847   3.779  0.00  0.00    -0.308 N 
ATOM     49  H22 UNL     1       0.747  -1.044   4.748  0.00  0.00    +0.149 HD
BRANCH  46  50
ATOM     50  C4  UNL     1       3.125  -0.173   4.890  0.00  0.00    +0.160 C 
BRANCH  50  51
ATOM     51  N1  UNL     1       4.535   0.032   4.533  0.00  0.00    -0.302 N 
ATOM     52  C5  UNL     1       5.378  -1.052   4.457  0.00  0.00    +0.234 C 
ATOM     53  O1  UNL     1       5.015  -2.173   4.834  0.00  0.00    -0.274 OA
ATOM     54  H9  UNL     1       4.737   0.815   3.936  0.00  0.00    +0.150 HD
BRANCH  52  55
ATOM     55  C6  UNL     1       6.839  -0.798   3.993  0.00  0.00    +0.161 C 
BRANCH  55  56
ATOM     56  N2  UNL     1       7.449  -2.133   4.005  0.00  0.00    -0.304 N 
ATOM     57  C7  UNL     1       8.800  -2.335   4.111  0.00  0.00    +0.211 C 
ATOM     58  C8  UNL     1       9.199  -3.781   4.248  0.00  0.00    +0.109 C 
ATOM     59  O2  UNL     1       9.625  -1.432   4.044  0.00  0.00    -0.276 OA
ATOM     60  H11 UNL     1       6.825  -2.888   4.283  0.00  0.00    +0.149 HD
ENDBRANCH  55  56
BRANCH  55  61
ATOM     61  C9  UNL     1       7.063  -0.106   2.626  0.00  0.00    +0.012 C 
ATOM     62  C10 UNL     1       6.016  -0.424   1.564  0.00  0.00    +0.009 C 
ATOM     63  C11 UNL     1       7.225   1.410   2.781  0.00  0.00    +0.009 C 
ENDBRANCH  55  61
ENDBRANCH  52  55
ENDBRANCH  50  51
BRANCH  50  64
ATOM     64  C3  UNL     1       2.554   1.065   5.605  0.00  0.00    +0.042 C 
BRANCH  64  65
ATOM     65  C2  UNL     1       1.869   0.734   6.939  0.00  0.00    +0.071 C 
BRANCH  65  67
ATOM     66  C1  UNL     1      -0.795   1.101   6.239  0.00  0.00    +0.084 C 
ATOM     67  S1  UNL     1       0.316  -0.216   6.801  0.00  0.00    -0.164 S 
ENDBRANCH  65  67
ENDBRANCH  64  65
ENDBRANCH  50  64
ENDBRANCH  46  50
ENDBRANCH  45  48
BRANCH  45  68
ATOM     68  C14 UNL     1      -1.178  -1.884   3.335  0.00  0.00    +0.028 C 
BRANCH  68  69
ATOM     69  C15 UNL     1      -1.804  -3.139   2.692  0.00  0.00    -0.015 C 
ATOM     70  C16 UNL     1      -2.746  -2.824   1.523  0.00  0.00    +0.007 C 
ATOM     71  C17 UNL     1      -2.582  -3.942   3.754  0.00  0.00    +0.007 C 
ENDBRANCH  68  69
ENDBRANCH  45  68
ENDBRANCH  42  45
ENDBRANCH  41  42
ENDBRANCH   1  41
TORSDOF 29
