REMARK  Name = ligands/ligand_31.pdb
REMARK  24 active torsions:
REMARK  status: ('A' for Active; 'I' for Inactive)
REMARK    1  A    between atoms: C1_1  and  O1_2
REMARK    2  A    between atoms: O1_2  and  C2_3
REMARK    3  A    between atoms: C2_3  and  C3_5
REMARK    4  A    between atoms: C5_7  and  N1_8
REMARK    5  A    between atoms: C6_9  and  C7_11
REMARK    6  A    between atoms: C7_11  and  N2_12
REMARK    7  A    between atoms: C7_11  and  C28_38
REMARK    8  A    between atoms: C8_13  and  C9_15
REMARK    9  A    between atoms: C9_15  and  C10_16
REMARK   10  A    between atoms: C10_16  and  O5_17
REMARK   11  A    between atoms: C10_16  and  C11_18
REMARK   12  A    between atoms: C11_18  and  C12_19
REMARK   13  A    between atoms: C11_18  and  N3_23
REMARK   14  A    between atoms: C12_19  and  C13_20
REMARK   15  A    between atoms: C13_20  and  C14_21
REMARK   16  A    between atoms: C13_20  and  C15_22
REMARK   17  A    between atoms: C16_24  and  C17_26
REMARK   18  A    between atoms: C17_26  and  O7_27
REMARK   19  A    between atoms: C17_26  and  C18_28
REMARK   20  A    between atoms: C28_38  and  C29_39
REMARK   21  A    between atoms: C28_38  and  C30_40
REMARK   22  A    between atoms: C32_42  and  C33_43
REMARK   23  A    between atoms: C33_43  and  O9_45
REMARK   24  A    between atoms: O9_45  and  C34_46
REMARK                            x       y       z     vdW  Elec       q    Type
REMARK                         _______ _______ _______ _____ _____    ______ ____
ROOT
ATOM      1  N2  UNL     1      -0.376  -0.392  -0.946  0.00  0.00    -0.304 N 
ATOM      2  C8  UNL     1      -1.178  -1.196  -0.172  0.00  0.00    +0.216 C 
ATOM      3  O4  UNL     1      -2.200  -0.807   0.382  0.00  0.00    -0.276 OA
ATOM      4  H10 UNL     1       0.365  -0.836  -1.481  0.00  0.00    +0.149 HD
ENDROOT
BRANCH   2   5
ATOM      5  C9  UNL     1      -0.654  -2.595   0.043  0.00  0.00    +0.129 C 
BRANCH   5   6
ATOM      6  C10 UNL     1      -1.678  -3.653  -0.385  0.00  0.00    +0.143 C 
BRANCH   6   7
ATOM      7  O5  UNL     1      -1.308  -4.895   0.240  0.00  0.00    -0.389 OA
ATOM      8  H14 UNL     1      -1.526  -4.810   1.187  0.00  0.00    +0.210 HD
ENDBRANCH   6   7
BRANCH   6   9
ATOM      9  C11 UNL     1      -1.716  -3.862  -1.925  0.00  0.00    +0.102 C 
BRANCH   9  10
ATOM     10  N3  UNL     1      -0.379  -4.293  -2.353  0.00  0.00    -0.308 N 
ATOM     11  C16 UNL     1       0.130  -4.072  -3.610  0.00  0.00    +0.246 C 
ATOM     12  O6  UNL     1      -0.505  -3.522  -4.509  0.00  0.00    -0.273 OA
ATOM     13  H25 UNL     1       0.112  -4.911  -1.713  0.00  0.00    +0.149 HD
BRANCH  11  14
ATOM     14  C17 UNL     1       1.581  -4.573  -3.829  0.00  0.00    +0.230 C 
BRANCH  14  15
ATOM     15  C18 UNL     1       2.532  -4.009  -2.778  0.00  0.00    -0.003 A 
ATOM     16  C19 UNL     1       3.143  -4.922  -1.896  0.00  0.00    +0.007 A 
ATOM     17  C20 UNL     1       3.939  -4.476  -0.846  0.00  0.00    +0.001 A 
ATOM     18  C21 UNL     1       4.131  -3.111  -0.653  0.00  0.00    +0.008 A 
ATOM     19  C22 UNL     1       3.557  -2.171  -1.521  0.00  0.00    -0.018 A 
ATOM     20  C23 UNL     1       3.772  -0.800  -1.308  0.00  0.00    +0.008 A 
ATOM     21  C24 UNL     1       3.235   0.156  -2.168  0.00  0.00    +0.001 A 
ATOM     22  C25 UNL     1       2.482  -0.253  -3.258  0.00  0.00    +0.001 A 
ATOM     23  C26 UNL     1       2.246  -1.612  -3.475  0.00  0.00    +0.009 A 
ATOM     24  C27 UNL     1       2.763  -2.609  -2.614  0.00  0.00    -0.012 A 
ENDBRANCH  14  15
BRANCH  14  25
ATOM     25  O7  UNL     1       2.075  -4.274  -5.128  0.00  0.00    -0.378 OA
ATOM     26  H27 UNL     1       1.285  -4.170  -5.694  0.00  0.00    +0.211 HD
ENDBRANCH  14  25
ENDBRANCH  11  14
ENDBRANCH   9  10
BRANCH   9  27
ATOM     27  C12 UNL     1      -2.740  -4.919  -2.394  0.00  0.00    +0.028 C 
BRANCH  27  28
ATOM     28  C13 UNL     1      -4.219  -4.502  -2.524  0.00  0.00    -0.015 C 
ATOM     29  C14 UNL     1      -4.952  -4.389  -1.191  0.00  0.00    +0.007 C 
ATOM     30  C15 UNL     1      -4.411  -3.232  -3.347  0.00  0.00    +0.007 C 
ENDBRANCH  27  28
ENDBRANCH   9  27
ENDBRANCH   6   9
ENDBRANCH   5   6
ENDBRANCH   2   5
BRANCH   1  31
ATOM     31  C7  UNL     1      -0.746   0.972  -1.369  0.00  0.00    +0.161 C 
BRANCH  31  33
ATOM     32  N1  UNL     1      -0.095   1.685   0.884  0.00  0.00    -0.311 N 
ATOM     33  C6  UNL     1      -0.947   1.949  -0.178  0.00  0.00    +0.234 C 
ATOM     34  O3  UNL     1      -1.677   2.935  -0.221  0.00  0.00    -0.274 OA
ATOM     35  H8  UNL     1       0.234   0.729   0.895  0.00  0.00    +0.149 HD
BRANCH  32  38
ATOM     36  C3  UNL     1       0.396   2.218   4.622  0.00  0.00    +0.100 C 
ATOM     37  C4  UNL     1       0.504   1.564   3.242  0.00  0.00    +0.037 C 
ATOM     38  C5  UNL     1      -0.246   2.357   2.167  0.00  0.00    +0.075 C 
ATOM     39  C31 UNL     1       0.250   3.810   2.119  0.00  0.00    +0.037 C 
ATOM     40  C32 UNL     1       0.131   4.477   3.490  0.00  0.00    +0.100 C 
ATOM     41  C35 UNL     1       0.865   3.677   4.570  0.00  0.00    +0.029 C 
BRANCH  36  42
ATOM     42  C2  UNL     1       1.204   1.428   5.642  0.00  0.00    +0.310 C 
ATOM     43  O2  UNL     1       2.124   1.875   6.308  0.00  0.00    -0.251 OA
BRANCH  42  45
ATOM     44  C1  UNL     1       1.465  -0.685   6.627  0.00  0.00    +0.280 C 
ATOM     45  O1  UNL     1       0.742   0.147   5.716  0.00  0.00    -0.468 OA
ENDBRANCH  42  45
ENDBRANCH  36  42
BRANCH  40  46
ATOM     46  C33 UNL     1       0.690   5.884   3.417  0.00  0.00    +0.310 C 
ATOM     47  O8  UNL     1       1.882   6.156   3.376  0.00  0.00    -0.251 OA
BRANCH  46  48
ATOM     48  O9  UNL     1      -0.321   6.796   3.400  0.00  0.00    -0.468 OA
ATOM     49  C34 UNL     1       0.120   8.152   3.346  0.00  0.00    +0.280 C 
ENDBRANCH  46  48
ENDBRANCH  40  46
ENDBRANCH  32  38
ENDBRANCH  31  33
BRANCH  31  50
ATOM     50  C28 UNL     1      -1.844   1.074  -2.455  0.00  0.00    +0.012 C 
ATOM     51  C29 UNL     1      -1.457   0.295  -3.715  0.00  0.00    +0.009 C 
ATOM     52  C30 UNL     1      -3.245   0.664  -2.000  0.00  0.00    +0.009 C 
ENDBRANCH  31  50
ENDBRANCH   1  31
TORSDOF 18
