REMARK  Name = ligands/ligand_27.pdb
REMARK  40 active torsions:
REMARK  status: ('A' for Active; 'I' for Inactive)
REMARK    1  A    between atoms: C1_1  and  S1_2
REMARK    2  A    between atoms: S1_2  and  C2_3
REMARK    3  A    between atoms: C2_3  and  C3_4
REMARK    4  A    between atoms: C3_4  and  C4_5
REMARK    5  A    between atoms: C4_5  and  N1_6
REMARK    6  A    between atoms: C4_5  and  C12_17
REMARK    7  A    between atoms: C5_7  and  C6_9
REMARK    8  A    between atoms: C6_9  and  N2_10
REMARK    9  A    between atoms: C6_9  and  C9_14
REMARK   10  A    between atoms: C7_11  and  C8_12
REMARK   11  A    between atoms: C9_14  and  C10_15
REMARK   12  A    between atoms: C9_14  and  C11_16
REMARK   13  A    between atoms: N3_19  and  C13_20
REMARK   14  A    between atoms: C13_20  and  C14_21
REMARK   15  A    between atoms: C13_20  and  C18_25
REMARK   16  A    between atoms: C14_21  and  C15_22
REMARK   17  A    between atoms: C15_22  and  C16_23
REMARK   18  A    between atoms: C15_22  and  C17_24
REMARK   19  A    between atoms: C18_25  and  O4_26
REMARK   20  A    between atoms: C18_25  and  C19_27
REMARK   21  A    between atoms: C19_27  and  C20_28
REMARK   22  A    between atoms: N4_30  and  C21_31
REMARK   23  A    between atoms: C21_31  and  C22_32
REMARK   24  A    between atoms: C21_31  and  C40_60
REMARK   25  A    between atoms: N5_34  and  C23_35
REMARK   26  A    between atoms: C23_35  and  C24_36
REMARK   27  A    between atoms: C23_35  and  C25_37
REMARK   28  A    between atoms: N6_39  and  C26_40
REMARK   29  A    between atoms: C26_40  and  C27_41
REMARK   30  A    between atoms: C26_40  and  C30_46
REMARK   31  A    between atoms: C27_41  and  C28_42
REMARK   32  A    between atoms: C28_42  and  C29_43
REMARK   33  A    between atoms: C29_43  and  O9_45
REMARK   34  A    between atoms: N7_48  and  C31_49
REMARK   35  A    between atoms: C31_49  and  C32_50
REMARK   36  A    between atoms: C31_49  and  C39_57
REMARK   37  A    between atoms: C32_50  and  C33_51
REMARK   38  A    between atoms: C39_57  and  O12_59
REMARK   39  A    between atoms: C40_60  and  C41_61
REMARK   40  A    between atoms: C40_60  and  O13_62
REMARK                            x       y       z     vdW  Elec       q    Type
REMARK                         _______ _______ _______ _____ _____    ______ ____
ROOT
ATOM      1  C21 UNL     1      -4.683   1.642   1.050  0.00  0.00    +0.187 C 
ENDROOT
BRANCH   1   2
ATOM      2  C22 UNL     1      -3.862   2.524   0.091  0.00  0.00    +0.236 C 
ATOM      3  O6  UNL     1      -3.758   2.272  -1.115  0.00  0.00    -0.274 OA
ATOM      4  N5  UNL     1      -3.097   3.511   0.680  0.00  0.00    -0.303 N 
ATOM      5  H39 UNL     1      -3.191   3.654   1.688  0.00  0.00    +0.149 HD
BRANCH   4   6
ATOM      6  C23 UNL     1      -2.238   4.380  -0.121  0.00  0.00    +0.156 C 
ATOM      7  C24 UNL     1      -2.004   5.710   0.584  0.00  0.00    +0.038 C 
BRANCH   6   8
ATOM      8  C25 UNL     1      -0.888   3.694  -0.380  0.00  0.00    +0.234 C 
ATOM      9  O7  UNL     1      -0.180   3.956  -1.350  0.00  0.00    -0.274 OA
ATOM     10  N6  UNL     1      -0.459   2.852   0.618  0.00  0.00    -0.302 N 
ATOM     11  H44 UNL     1      -1.113   2.663   1.373  0.00  0.00    +0.150 HD
BRANCH  10  12
ATOM     12  C26 UNL     1       0.824   2.173   0.550  0.00  0.00    +0.159 C 
BRANCH  12  13
ATOM     13  C30 UNL     1       0.771   0.996  -0.466  0.00  0.00    +0.234 C 
ATOM     14  O10 UNL     1       0.792  -0.190  -0.127  0.00  0.00    -0.274 OA
ATOM     15  N7  UNL     1       0.747   1.387  -1.777  0.00  0.00    -0.301 N 
ATOM     16  H51 UNL     1       0.582   2.377  -1.991  0.00  0.00    +0.150 HD
BRANCH  15  17
ATOM     17  C31 UNL     1       0.813   0.458  -2.912  0.00  0.00    +0.186 C 
BRANCH  17  18
ATOM     18  C39 UNL     1       1.659   1.122  -3.999  0.00  0.00    +0.326 C 
ATOM     19  O11 UNL     1       1.692   2.315  -4.261  0.00  0.00    -0.249 OA
BRANCH  18  20
ATOM     20  O12 UNL     1       2.440   0.246  -4.658  0.00  0.00    -0.479 OA
ATOM     21  H60 UNL     1       2.965   0.774  -5.295  0.00  0.00    +0.295 HD
ENDBRANCH  18  20
ENDBRANCH  17  18
BRANCH  17  22
ATOM     22  C32 UNL     1      -0.586   0.133  -3.436  0.00  0.00    +0.069 C 
BRANCH  22  23
ATOM     23  C33 UNL     1      -0.589  -0.917  -4.518  0.00  0.00    -0.045 A 
ATOM     24  C34 UNL     1      -1.014  -0.595  -5.817  0.00  0.00    +0.004 A 
ATOM     25  C35 UNL     1      -1.015  -1.566  -6.824  0.00  0.00    +0.000 A 
ATOM     26  C36 UNL     1      -0.586  -2.863  -6.545  0.00  0.00    +0.000 A 
ATOM     27  C37 UNL     1      -0.160  -3.192  -5.262  0.00  0.00    +0.000 A 
ATOM     28  C38 UNL     1      -0.160  -2.226  -4.250  0.00  0.00    +0.004 A 
ENDBRANCH  22  23
ENDBRANCH  17  22
ENDBRANCH  15  17
ENDBRANCH  12  13
BRANCH  12  29
ATOM     29  C27 UNL     1       1.283   1.649   1.918  0.00  0.00    +0.043 C 
BRANCH  29  30
ATOM     30  C28 UNL     1       1.530   2.764   2.928  0.00  0.00    +0.123 C 
BRANCH  30  31
ATOM     31  C29 UNL     1       0.353   2.914   3.848  0.00  0.00    +0.305 C 
ATOM     32  O8  UNL     1      -0.691   3.505   3.615  0.00  0.00    -0.251 OA
BRANCH  31  33
ATOM     33  O9  UNL     1       0.522   2.240   5.003  0.00  0.00    -0.481 OA
ATOM     34  H50 UNL     1      -0.283   2.442   5.527  0.00  0.00    +0.295 HD
ENDBRANCH  31  33
ENDBRANCH  30  31
ENDBRANCH  29  30
ENDBRANCH  12  29
ENDBRANCH  10  12
ENDBRANCH   6   8
ENDBRANCH   4   6
ENDBRANCH   1   2
BRANCH   1  37
ATOM     35  C20 UNL     1      -4.362  -0.609   1.998  0.00  0.00    +0.216 C 
ATOM     36  O5  UNL     1      -5.555  -0.720   2.271  0.00  0.00    -0.276 OA
ATOM     37  N4  UNL     1      -3.823   0.530   1.463  0.00  0.00    -0.302 N 
ATOM     38  H37 UNL     1      -2.821   0.605   1.337  0.00  0.00    +0.150 HD
BRANCH  35  39
ATOM     39  C19 UNL     1      -3.396  -1.756   2.178  0.00  0.00    +0.129 C 
BRANCH  39  40
ATOM     40  C18 UNL     1      -3.423  -2.723   0.982  0.00  0.00    +0.143 C 
BRANCH  40  41
ATOM     41  O4  UNL     1      -4.768  -3.023   0.616  0.00  0.00    -0.389 OA
ATOM     42  H34 UNL     1      -5.269  -3.245   1.422  0.00  0.00    +0.210 HD
ENDBRANCH  40  41
BRANCH  40  43
ATOM     43  C13 UNL     1      -2.569  -2.221  -0.232  0.00  0.00    +0.102 C 
BRANCH  43  46
ATOM     44  C12 UNL     1      -0.519  -3.589   0.261  0.00  0.00    +0.234 C 
ATOM     45  O3  UNL     1      -1.163  -4.639   0.218  0.00  0.00    -0.274 OA
ATOM     46  N3  UNL     1      -1.118  -2.364   0.052  0.00  0.00    -0.308 N 
ATOM     47  H22 UNL     1      -0.518  -1.545  -0.044  0.00  0.00    +0.149 HD
BRANCH  44  48
ATOM     48  C4  UNL     1       0.919  -3.581   0.809  0.00  0.00    +0.160 C 
BRANCH  48  49
ATOM     49  N1  UNL     1       1.893  -2.753   0.086  0.00  0.00    -0.302 N 
ATOM     50  C5  UNL     1       3.147  -3.258  -0.185  0.00  0.00    +0.234 C 
ATOM     51  O1  UNL     1       3.397  -4.456  -0.022  0.00  0.00    -0.274 OA
ATOM     52  H9  UNL     1       1.676  -1.787  -0.127  0.00  0.00    +0.150 HD
BRANCH  50  53
ATOM     53  C6  UNL     1       4.245  -2.278  -0.677  0.00  0.00    +0.161 C 
BRANCH  53  54
ATOM     54  N2  UNL     1       3.836  -0.873  -0.738  0.00  0.00    -0.304 N 
ATOM     55  C7  UNL     1       4.438  -0.020  -1.639  0.00  0.00    +0.211 C 
ATOM     56  C8  UNL     1       4.264   1.443  -1.327  0.00  0.00    +0.109 C 
ATOM     57  O2  UNL     1       5.100  -0.396  -2.605  0.00  0.00    -0.276 OA
ATOM     58  H11 UNL     1       3.407  -0.484   0.091  0.00  0.00    +0.149 HD
ENDBRANCH  53  54
BRANCH  53  59
ATOM     59  C9  UNL     1       5.514  -2.472   0.217  0.00  0.00    +0.012 C 
ATOM     60  C10 UNL     1       6.813  -2.146  -0.525  0.00  0.00    +0.009 C 
ATOM     61  C11 UNL     1       5.452  -1.676   1.527  0.00  0.00    +0.009 C 
ENDBRANCH  53  59
ENDBRANCH  50  53
ENDBRANCH  48  49
BRANCH  48  62
ATOM     62  C3  UNL     1       0.873  -3.177   2.294  0.00  0.00    +0.042 C 
BRANCH  62  63
ATOM     63  C2  UNL     1       2.033  -3.785   3.073  0.00  0.00    +0.071 C 
BRANCH  63  65
ATOM     64  C1  UNL     1       3.432  -4.144   5.411  0.00  0.00    +0.084 C 
ATOM     65  S1  UNL     1       1.975  -3.245   4.810  0.00  0.00    -0.164 S 
ENDBRANCH  63  65
ENDBRANCH  62  63
ENDBRANCH  48  62
ENDBRANCH  44  48
ENDBRANCH  43  46
BRANCH  43  66
ATOM     66  C14 UNL     1      -2.932  -2.877  -1.588  0.00  0.00    +0.028 C 
BRANCH  66  67
ATOM     67  C15 UNL     1      -4.240  -2.414  -2.270  0.00  0.00    -0.015 C 
ATOM     68  C16 UNL     1      -4.431  -3.183  -3.581  0.00  0.00    +0.007 C 
ATOM     69  C17 UNL     1      -4.292  -0.915  -2.549  0.00  0.00    +0.007 C 
ENDBRANCH  66  67
ENDBRANCH  43  66
ENDBRANCH  40  43
ENDBRANCH  39  40
ENDBRANCH  35  39
ENDBRANCH   1  37
BRANCH   1  70
ATOM     70  C40 UNL     1      -5.313   2.405   2.243  0.00  0.00    +0.141 C 
ATOM     71  C41 UNL     1      -6.325   3.445   1.790  0.00  0.00    +0.040 C 
BRANCH  70  72
ATOM     72  O13 UNL     1      -4.303   3.049   3.037  0.00  0.00    -0.390 OA
ATOM     73  H65 UNL     1      -4.735   3.312   3.873  0.00  0.00    +0.210 HD
ENDBRANCH  70  72
ENDBRANCH   1  70
TORSDOF 32
