REMARK  Name = ligands/ligand_15.pdb
REMARK  43 active torsions:
REMARK  status: ('A' for Active; 'I' for Inactive)
REMARK    1  A    between atoms: C1_1  and  C2_2
REMARK    2  A    between atoms: C2_2  and  C3_3
REMARK    3  A    between atoms: C2_2  and  C4_4
REMARK    4  A    between atoms: C4_4  and  C5_5
REMARK    5  A    between atoms: C5_5  and  N1_6
REMARK    6  A    between atoms: C5_5  and  C20_31
REMARK    7  A    between atoms: C6_7  and  C7_9
REMARK    8  A    between atoms: C7_9  and  C8_10
REMARK    9  A    between atoms: C7_9  and  N3_14
REMARK   10  A    between atoms: C8_10  and  C9_11
REMARK   11  A    between atoms: C10_15  and  C11_17
REMARK   12  A    between atoms: C11_17  and  N4_18
REMARK   13  A    between atoms: C11_17  and  C17_28
REMARK   14  A    between atoms: C12_19  and  C13_21
REMARK   15  A    between atoms: C13_21  and  N5_22
REMARK   16  A    between atoms: C13_21  and  C14_23
REMARK   17  A    between atoms: C14_23  and  C15_24
REMARK   18  A    between atoms: C15_24  and  C16_25
REMARK   19  A    between atoms: C16_25  and  O6_27
REMARK   20  A    between atoms: C17_28  and  C18_29
REMARK   21  A    between atoms: C17_28  and  C19_30
REMARK   22  A    between atoms: C20_31  and  O7_32
REMARK   23  A    between atoms: C20_31  and  C21_33
REMARK   24  A    between atoms: C21_33  and  C22_34
REMARK   25  A    between atoms: N6_36  and  C23_37
REMARK   26  A    between atoms: C23_37  and  C24_38
REMARK   27  A    between atoms: C23_37  and  C42_66
REMARK   28  A    between atoms: N7_40  and  C25_41
REMARK   29  A    between atoms: C25_41  and  C26_42
REMARK   30  A    between atoms: C25_41  and  C27_43
REMARK   31  A    between atoms: N8_45  and  C28_46
REMARK   32  A    between atoms: C28_46  and  C29_47
REMARK   33  A    between atoms: C28_46  and  C32_52
REMARK   34  A    between atoms: C29_47  and  C30_48
REMARK   35  A    between atoms: C30_48  and  C31_49
REMARK   36  A    between atoms: C31_49  and  O12_51
REMARK   37  A    between atoms: N9_54  and  C33_55
REMARK   38  A    between atoms: C33_55  and  C34_56
REMARK   39  A    between atoms: C33_55  and  C41_63
REMARK   40  A    between atoms: C34_56  and  C35_57
REMARK   41  A    between atoms: C41_63  and  O15_65
REMARK   42  A    between atoms: C42_66  and  C43_67
REMARK   43  A    between atoms: C42_66  and  C44_68
REMARK                            x       y       z     vdW  Elec       q    Type
REMARK                         _______ _______ _______ _____ _____    ______ ____
ROOT
ATOM      1  C21 UNL     1       2.226  -0.705   2.279  0.00  0.00    +0.129 C 
ENDROOT
BRANCH   1   2
ATOM      2  C22 UNL     1       1.162  -1.582   2.898  0.00  0.00    +0.216 C 
ATOM      3  O8  UNL     1       1.405  -2.424   3.760  0.00  0.00    -0.276 OA
ATOM      4  N6  UNL     1      -0.092  -1.323   2.412  0.00  0.00    -0.304 N 
ATOM      5  H39 UNL     1      -0.209  -0.646   1.658  0.00  0.00    +0.149 HD
BRANCH   4   6
ATOM      6  C23 UNL     1      -1.263  -2.161   2.680  0.00  0.00    +0.161 C 
BRANCH   6   7
ATOM      7  C24 UNL     1      -2.097  -2.088   1.382  0.00  0.00    +0.234 C 
ATOM      8  O9  UNL     1      -1.900  -1.203   0.544  0.00  0.00    -0.274 OA
ATOM      9  N7  UNL     1      -3.053  -3.056   1.209  0.00  0.00    -0.303 N 
ATOM     10  H41 UNL     1      -3.275  -3.700   1.960  0.00  0.00    +0.149 HD
BRANCH   9  11
ATOM     11  C25 UNL     1      -3.988  -3.019   0.090  0.00  0.00    +0.156 C 
ATOM     12  C26 UNL     1      -3.638  -4.082  -0.943  0.00  0.00    +0.038 C 
BRANCH  11  13
ATOM     13  C27 UNL     1      -5.411  -3.231   0.630  0.00  0.00    +0.234 C 
ATOM     14  O10 UNL     1      -5.630  -3.730   1.735  0.00  0.00    -0.274 OA
ATOM     15  N8  UNL     1      -6.410  -2.840  -0.229  0.00  0.00    -0.302 N 
ATOM     16  H46 UNL     1      -6.189  -2.455  -1.144  0.00  0.00    +0.150 HD
BRANCH  15  17
ATOM     17  C28 UNL     1      -7.831  -2.949   0.103  0.00  0.00    +0.159 C 
BRANCH  17  18
ATOM     18  C32 UNL     1      -8.583  -2.913  -1.242  0.00  0.00    +0.234 C 
ATOM     19  O13 UNL     1      -8.050  -2.480  -2.268  0.00  0.00    -0.274 OA
ATOM     20  N9  UNL     1      -9.877  -3.373  -1.215  0.00  0.00    -0.301 N 
ATOM     21  H53 UNL     1     -10.222  -3.865  -0.388  0.00  0.00    +0.150 HD
BRANCH  20  22
ATOM     22  C33 UNL     1     -10.686  -3.463  -2.438  0.00  0.00    +0.186 C 
BRANCH  22  23
ATOM     23  C41 UNL     1     -12.151  -3.339  -2.035  0.00  0.00    +0.326 C 
ATOM     24  O14 UNL     1     -12.631  -3.649  -0.953  0.00  0.00    -0.249 OA
BRANCH  23  25
ATOM     25  O15 UNL     1     -12.939  -2.837  -3.005  0.00  0.00    -0.479 OA
ATOM     26  H62 UNL     1     -13.838  -2.809  -2.614  0.00  0.00    +0.295 HD
ENDBRANCH  23  25
ENDBRANCH  22  23
BRANCH  22  27
ATOM     27  C34 UNL     1     -10.437  -4.798  -3.153  0.00  0.00    +0.069 C 
BRANCH  27  28
ATOM     28  C35 UNL     1     -10.717  -4.748  -4.636  0.00  0.00    -0.045 A 
ATOM     29  C36 UNL     1      -9.816  -4.104  -5.497  0.00  0.00    +0.004 A 
ATOM     30  C37 UNL     1     -10.055  -4.062  -6.870  0.00  0.00    +0.000 A 
ATOM     31  C38 UNL     1     -11.196  -4.662  -7.398  0.00  0.00    +0.000 A 
ATOM     32  C39 UNL     1     -12.102  -5.299  -6.551  0.00  0.00    +0.000 A 
ATOM     33  C40 UNL     1     -11.865  -5.341  -5.176  0.00  0.00    +0.004 A 
ENDBRANCH  27  28
ENDBRANCH  22  27
ENDBRANCH  20  22
ENDBRANCH  17  18
BRANCH  17  34
ATOM     34  C29 UNL     1      -8.242  -1.801   1.044  0.00  0.00    +0.043 C 
BRANCH  34  35
ATOM     35  C30 UNL     1      -9.674  -1.839   1.573  0.00  0.00    +0.123 C 
BRANCH  35  36
ATOM     36  C31 UNL     1     -10.001  -3.163   2.201  0.00  0.00    +0.305 C 
ATOM     37  O11 UNL     1     -10.251  -4.182   1.573  0.00  0.00    -0.251 OA
BRANCH  36  38
ATOM     38  O12 UNL     1      -9.933  -3.150   3.541  0.00  0.00    -0.481 OA
ATOM     39  H52 UNL     1     -10.121  -4.072   3.818  0.00  0.00    +0.295 HD
ENDBRANCH  36  38
ENDBRANCH  35  36
ENDBRANCH  34  35
ENDBRANCH  17  34
ENDBRANCH  15  17
ENDBRANCH  11  13
ENDBRANCH   9  11
ENDBRANCH   6   7
BRANCH   6  40
ATOM     40  C42 UNL     1      -1.997  -1.690   3.955  0.00  0.00    +0.012 C 
ATOM     41  C43 UNL     1      -2.967  -2.743   4.500  0.00  0.00    +0.009 C 
ATOM     42  C44 UNL     1      -2.726  -0.357   3.768  0.00  0.00    +0.009 C 
ENDBRANCH   6  40
ENDBRANCH   4   6
ENDBRANCH   1   2
BRANCH   1  43
ATOM     43  C20 UNL     1       3.608  -1.365   2.363  0.00  0.00    +0.143 C 
BRANCH  43  44
ATOM     44  O7  UNL     1       4.155  -1.176   3.683  0.00  0.00    -0.389 OA
ATOM     45  H36 UNL     1       3.521  -1.621   4.284  0.00  0.00    +0.210 HD
ENDBRANCH  43  44
BRANCH  43  46
ATOM     46  C5  UNL     1       4.548  -0.782   1.260  0.00  0.00    +0.102 C 
BRANCH  46  47
ATOM     47  N1  UNL     1       5.794  -0.266   1.802  0.00  0.00    -0.308 N 
ATOM     48  C6  UNL     1       5.936   1.074   2.097  0.00  0.00    +0.234 C 
ATOM     49  O1  UNL     1       5.033   1.896   1.935  0.00  0.00    -0.274 OA
ATOM     50  H11 UNL     1       6.425  -0.927   2.229  0.00  0.00    +0.149 HD
BRANCH  48  51
ATOM     51  C7  UNL     1       7.331   1.456   2.631  0.00  0.00    +0.168 C 
BRANCH  51  52
ATOM     52  N3  UNL     1       7.599   2.857   2.316  0.00  0.00    -0.302 N 
ATOM     53  C10 UNL     1       7.853   3.211   1.005  0.00  0.00    +0.234 C 
ATOM     54  O3  UNL     1       8.133   2.376   0.142  0.00  0.00    -0.274 OA
ATOM     55  H17 UNL     1       7.082   3.521   2.893  0.00  0.00    +0.150 HD
BRANCH  53  56
ATOM     56  C11 UNL     1       7.761   4.724   0.680  0.00  0.00    +0.161 C 
BRANCH  56  57
ATOM     57  N4  UNL     1       8.107   4.869  -0.739  0.00  0.00    -0.302 N 
ATOM     58  C12 UNL     1       9.342   5.321  -1.152  0.00  0.00    +0.230 C 
ATOM     59  O4  UNL     1      10.168   5.822  -0.394  0.00  0.00    -0.274 OA
ATOM     60  H19 UNL     1       7.688   4.162  -1.331  0.00  0.00    +0.150 HD
BRANCH  58  61
ATOM     61  C13 UNL     1       9.617   5.123  -2.661  0.00  0.00    +0.138 C 
BRANCH  61  62
ATOM     62  N5  UNL     1       9.792   3.688  -2.943  0.00  0.00    -0.320 NA
ATOM     63  H21 UNL     1      10.482   3.312  -2.289  0.00  0.00    +0.119 HD
ATOM     64  H22 UNL     1       8.931   3.173  -2.749  0.00  0.00    +0.119 HD
ENDBRANCH  61  62
BRANCH  61  65
ATOM     65  C14 UNL     1       8.507   5.755  -3.520  0.00  0.00    +0.039 C 
BRANCH  65  66
ATOM     66  C15 UNL     1       8.772   5.663  -5.023  0.00  0.00    +0.122 C 
BRANCH  66  67
ATOM     67  C16 UNL     1       8.429   4.308  -5.580  0.00  0.00    +0.305 C 
ATOM     68  O5  UNL     1       7.528   3.569  -5.216  0.00  0.00    -0.251 OA
BRANCH  67  69
ATOM     69  O6  UNL     1       9.203   3.976  -6.634  0.00  0.00    -0.481 OA
ATOM     70  H27 UNL     1       8.888   3.082  -6.879  0.00  0.00    +0.295 HD
ENDBRANCH  67  69
ENDBRANCH  66  67
ENDBRANCH  65  66
ENDBRANCH  61  65
ENDBRANCH  58  61
ENDBRANCH  56  57
BRANCH  56  71
ATOM     71  C17 UNL     1       6.367   5.327   0.965  0.00  0.00    +0.012 C 
ATOM     72  C18 UNL     1       5.273   4.789   0.036  0.00  0.00    +0.009 C 
ATOM     73  C19 UNL     1       6.414   6.857   0.873  0.00  0.00    +0.009 C 
ENDBRANCH  56  71
ENDBRANCH  53  56
ENDBRANCH  51  52
BRANCH  51  74
ATOM     74  C8  UNL     1       7.425   1.128   4.120  0.00  0.00    +0.127 C 
BRANCH  74  75
ATOM     75  C9  UNL     1       6.501   1.989   4.955  0.00  0.00    +0.213 C 
ATOM     76  N2  UNL     1       5.983   1.383   6.064  0.00  0.00    -0.329 N 
ATOM     77  O2  UNL     1       6.288   3.176   4.730  0.00  0.00    -0.276 OA
ATOM     78  H15 UNL     1       5.896   0.370   6.115  0.00  0.00    +0.145 HD
ATOM     79  H16 UNL     1       5.288   1.919   6.565  0.00  0.00    +0.145 HD
ENDBRANCH  74  75
ENDBRANCH  51  74
ENDBRANCH  48  51
ENDBRANCH  46  47
BRANCH  46  80
ATOM     80  C4  UNL     1       4.831  -1.837   0.176  0.00  0.00    +0.028 C 
BRANCH  80  82
ATOM     81  C1  UNL     1       5.978  -2.496  -1.962  0.00  0.00    +0.007 C 
ATOM     82  C2  UNL     1       5.693  -1.337  -1.005  0.00  0.00    -0.015 C 
ATOM     83  C3  UNL     1       5.035  -0.189  -1.771  0.00  0.00    +0.007 C 
ENDBRANCH  80  82
ENDBRANCH  46  80
ENDBRANCH  43  46
ENDBRANCH   1  43
TORSDOF 36
