REMARK  Name = ligands/ligand_25.pdb
REMARK  32 active torsions:
REMARK  status: ('A' for Active; 'I' for Inactive)
REMARK    1  A    between atoms: C1_1  and  S1_2
REMARK    2  A    between atoms: S1_2  and  C2_3
REMARK    3  A    between atoms: C2_3  and  C3_4
REMARK    4  A    between atoms: C3_4  and  C4_5
REMARK    5  A    between atoms: C4_5  and  N1_6
REMARK    6  A    between atoms: C4_5  and  C15_21
REMARK    7  A    between atoms: C5_7  and  C6_9
REMARK    8  A    between atoms: C6_9  and  N2_10
REMARK    9  A    between atoms: C6_9  and  C12_18
REMARK   10  A    between atoms: C7_11  and  O3_13
REMARK   11  A    between atoms: O3_13  and  C8_14
REMARK   12  A    between atoms: C8_14  and  C9_15
REMARK   13  A    between atoms: C8_14  and  C10_16
REMARK   14  A    between atoms: C8_14  and  C11_17
REMARK   15  A    between atoms: C12_18  and  C13_19
REMARK   16  A    between atoms: C12_18  and  C14_20
REMARK   17  A    between atoms: N3_23  and  C16_24
REMARK   18  A    between atoms: C16_24  and  C17_25
REMARK   19  A    between atoms: C16_24  and  C21_29
REMARK   20  A    between atoms: C17_25  and  C18_26
REMARK   21  A    between atoms: C18_26  and  C19_27
REMARK   22  A    between atoms: C18_26  and  C20_28
REMARK   23  A    between atoms: C21_29  and  O5_30
REMARK   24  A    between atoms: C21_29  and  C22_31
REMARK   25  A    between atoms: C22_31  and  C23_32
REMARK   26  A    between atoms: N4_34  and  C24_35
REMARK   27  A    between atoms: C24_35  and  C25_36
REMARK   28  A    between atoms: C24_35  and  C34_49
REMARK   29  A    between atoms: N5_38  and  C26_39
REMARK   30  A    between atoms: C26_39  and  C27_40
REMARK   31  A    between atoms: C34_49  and  C35_50
REMARK   32  A    between atoms: C34_49  and  C36_51
REMARK                            x       y       z     vdW  Elec       q    Type
REMARK                         _______ _______ _______ _____ _____    ______ ____
ROOT
ATOM      1  C16 UNL     1      -2.665  -0.573  -1.362  0.00  0.00    +0.102 C 
ENDROOT
BRANCH   1   4
ATOM      2  C15 UNL     1      -0.360  -0.067  -2.142  0.00  0.00    +0.234 C 
ATOM      3  O4  UNL     1      -0.759   0.527  -3.145  0.00  0.00    -0.274 OA
ATOM      4  N3  UNL     1      -1.213  -0.661  -1.239  0.00  0.00    -0.308 N 
ATOM      5  H28 UNL     1      -0.825  -1.049  -0.380  0.00  0.00    +0.149 HD
BRANCH   2   6
ATOM      6  C4  UNL     1       1.145  -0.187  -1.810  0.00  0.00    +0.160 C 
BRANCH   6   7
ATOM      7  N1  UNL     1       1.868   0.359  -2.956  0.00  0.00    -0.302 N 
ATOM      8  C5  UNL     1       3.234   0.287  -3.086  0.00  0.00    +0.234 C 
ATOM      9  O1  UNL     1       3.956  -0.213  -2.223  0.00  0.00    -0.274 OA
ATOM     10  H9  UNL     1       1.310   0.879  -3.632  0.00  0.00    +0.150 HD
BRANCH   8  11
ATOM     11  C6  UNL     1       3.788   0.895  -4.392  0.00  0.00    +0.165 C 
BRANCH  11  12
ATOM     12  N2  UNL     1       4.862   1.809  -4.027  0.00  0.00    -0.270 N 
ATOM     13  C7  UNL     1       4.592   3.109  -3.720  0.00  0.00    +0.401 C 
ATOM     14  O2  UNL     1       3.532   3.671  -3.928  0.00  0.00    -0.226 OA
ATOM     15  H11 UNL     1       5.664   1.433  -3.537  0.00  0.00    +0.153 HD
BRANCH  13  16
ATOM     16  O3  UNL     1       5.679   3.655  -3.130  0.00  0.00    -0.445 OA
BRANCH  16  17
ATOM     17  C8  UNL     1       5.668   5.044  -2.707  0.00  0.00    +0.107 C 
ATOM     18  C9  UNL     1       4.594   5.306  -1.643  0.00  0.00    +0.055 C 
ATOM     19  C10 UNL     1       5.522   5.985  -3.909  0.00  0.00    +0.055 C 
ATOM     20  C11 UNL     1       7.047   5.265  -2.071  0.00  0.00    +0.055 C 
ENDBRANCH  16  17
ENDBRANCH  13  16
ENDBRANCH  11  12
BRANCH  11  21
ATOM     21  C12 UNL     1       4.271  -0.170  -5.402  0.00  0.00    +0.012 C 
ATOM     22  C13 UNL     1       5.351  -1.115  -4.863  0.00  0.00    +0.009 C 
ATOM     23  C14 UNL     1       3.097  -0.985  -5.950  0.00  0.00    +0.009 C 
ENDBRANCH  11  21
ENDBRANCH   8  11
ENDBRANCH   6   7
BRANCH   6  24
ATOM     24  C3  UNL     1       1.494   0.552  -0.505  0.00  0.00    +0.042 C 
BRANCH  24  25
ATOM     25  C2  UNL     1       2.035  -0.384   0.577  0.00  0.00    +0.071 C 
BRANCH  25  27
ATOM     26  C1  UNL     1       1.727  -2.477   2.352  0.00  0.00    +0.084 C 
ATOM     27  S1  UNL     1       0.727  -1.485   1.209  0.00  0.00    -0.164 S 
ENDBRANCH  25  27
ENDBRANCH  24  25
ENDBRANCH   6  24
ENDBRANCH   2   6
ENDBRANCH   1   4
BRANCH   1  28
ATOM     28  C21 UNL     1      -3.175   0.835  -0.926  0.00  0.00    +0.143 C 
BRANCH  28  29
ATOM     29  O5  UNL     1      -4.543   1.046  -1.277  0.00  0.00    -0.389 OA
ATOM     30  H40 UNL     1      -4.654   0.790  -2.210  0.00  0.00    +0.210 HD
ENDBRANCH  28  29
BRANCH  28  31
ATOM     31  C22 UNL     1      -2.917   1.251   0.526  0.00  0.00    +0.129 C 
BRANCH  31  32
ATOM     32  C23 UNL     1      -3.781   0.626   1.608  0.00  0.00    +0.216 C 
ATOM     33  O6  UNL     1      -4.700  -0.159   1.418  0.00  0.00    -0.276 OA
ATOM     34  N4  UNL     1      -3.430   1.057   2.880  0.00  0.00    -0.304 N 
ATOM     35  H43 UNL     1      -2.466   1.350   2.985  0.00  0.00    +0.149 HD
BRANCH  34  36
ATOM     36  C24 UNL     1      -4.009   0.393   4.044  0.00  0.00    +0.161 C 
BRANCH  36  37
ATOM     37  C25 UNL     1      -3.101  -0.802   4.400  0.00  0.00    +0.234 C 
ATOM     38  O7  UNL     1      -1.897  -0.817   4.131  0.00  0.00    -0.274 OA
ATOM     39  N5  UNL     1      -3.737  -1.818   5.083  0.00  0.00    -0.310 N 
ATOM     40  H45 UNL     1      -4.748  -1.827   5.112  0.00  0.00    +0.149 HD
BRANCH  39  41
ATOM     41  C26 UNL     1      -3.057  -3.057   5.386  0.00  0.00    +0.139 C 
BRANCH  41  42
ATOM     42  C27 UNL     1      -3.298  -4.170   4.392  0.00  0.00    -0.027 A 
ATOM     43  C28 UNL     1      -2.744  -5.445   4.681  0.00  0.00    +0.009 A 
ATOM     44  C29 UNL     1      -2.916  -6.527   3.810  0.00  0.00    +0.050 A 
ATOM     45  C30 UNL     1      -3.644  -6.316   2.661  0.00  0.00    +0.166 A 
ATOM     46  C31 UNL     1      -4.187  -5.087   2.371  0.00  0.00    +0.167 A 
ATOM     47  C32 UNL     1      -4.028  -3.997   3.203  0.00  0.00    +0.054 A 
ATOM     48  O8  UNL     1      -4.889  -5.096   1.207  0.00  0.00    -0.453 OA
ATOM     49  C33 UNL     1      -4.694  -6.458   0.780  0.00  0.00    +0.466 C 
ATOM     50  O9  UNL     1      -3.923  -7.246   1.711  0.00  0.00    -0.453 OA
ENDBRANCH  41  42
ENDBRANCH  39  41
ENDBRANCH  36  37
BRANCH  36  51
ATOM     51  C34 UNL     1      -4.191   1.334   5.255  0.00  0.00    +0.012 C 
ATOM     52  C35 UNL     1      -2.894   2.012   5.704  0.00  0.00    +0.009 C 
ATOM     53  C36 UNL     1      -5.258   2.394   4.967  0.00  0.00    +0.009 C 
ENDBRANCH  36  51
ENDBRANCH  34  36
ENDBRANCH  31  32
ENDBRANCH  28  31
ENDBRANCH   1  28
BRANCH   1  54
ATOM     54  C17 UNL     1      -3.364  -1.758  -0.672  0.00  0.00    +0.028 C 
BRANCH  54  55
ATOM     55  C18 UNL     1      -3.195  -3.149  -1.324  0.00  0.00    -0.015 C 
ATOM     56  C19 UNL     1      -3.665  -3.192  -2.777  0.00  0.00    +0.007 C 
ATOM     57  C20 UNL     1      -1.784  -3.719  -1.195  0.00  0.00    +0.007 C 
ENDBRANCH  54  55
ENDBRANCH   1  54
TORSDOF 22
