AutoDock-GPU version: v1.6

**********************************************************
**    AutoDock-GPU AUTODOCKTOOLS-COMPATIBLE DLG FILE    **
**********************************************************


    DOCKING PARAMETERS
    ________________________


Ligand file:                               ligands/ligand_3.pdbqt
Grid fld file:                             protein.maps.fld

Random seed:                               1770973137, 30113
Number of runs:                            20
Number of energy evaluations:              11675951
Number of generations:                     42000
Size of population:                        150
Rate of crossover:                         80.000000%
Tournament selection probability limit:    60.000000%
Rate of mutation:                          2.000000%
Maximal allowed delta movement:            +/- 6.000000A
Maximal allowed delta angle:               +/- 90.000000

Rate of local search:                      100.000000%
Maximal number of local search iterations: 300
Rho lower bound:                           0.010000
Spread of local search delta movement:     2.000000A
Spread of local search delta angle:        74.999999
Limit of consecutive successes/failures:   4

Handle symmetry during clustering:         YES
RMSD tolerance:                            2.000000A

Program call in command line was:          ./autodock-gpu --ffile protein.maps.fld --lfile ligands/ligand_3.pdbqt --nrun 20 


    GRID PARAMETERS
    ________________________


Receptor name:                             #MACROMOLECULE
Number of grid points (x, y, z):           61, 61, 61
Grid center (x, y, z):                     10.261000, -3.492000, -0.127000A
Grid size (x, y, z):                       22.500000, 22.500000, 22.500000A
Grid spacing:                              0.375000A


    LIGAND PARAMETERS
    ________________________


Ligand name:                               ligands/ligand_3
Number of atoms:                           68
Number of rotatable bonds:                 30
Number of atom types:                      6


    DUMMY DATA (only for ADT-compatibility)
    ________________________


DPF> outlev 1
DPF> ga_run 20
DPF> fld protein.maps.fld
DPF> move ligands/ligand_3.pdbqt


    COUNTER STATES
    ________________________


Number of energy evaluations performed:    11550447
Number of generations used:                465


    INPUT LIGAND PDBQT FILE:
    ________________________


INPUT-LIGAND-PDBQT: REMARK  Name = ligands/ligand_3.pdb
INPUT-LIGAND-PDBQT: REMARK  39 active torsions:
INPUT-LIGAND-PDBQT: REMARK  status: ('A' for Active; 'I' for Inactive)
INPUT-LIGAND-PDBQT: REMARK    1  A    between atoms: C1_1  and  S1_2
INPUT-LIGAND-PDBQT: REMARK    2  A    between atoms: S1_2  and  C2_3
INPUT-LIGAND-PDBQT: REMARK    3  A    between atoms: C2_3  and  C3_4
INPUT-LIGAND-PDBQT: REMARK    4  A    between atoms: C3_4  and  C4_5
INPUT-LIGAND-PDBQT: REMARK    5  A    between atoms: C4_5  and  N1_6
INPUT-LIGAND-PDBQT: REMARK    6  A    between atoms: C4_5  and  C12_17
INPUT-LIGAND-PDBQT: REMARK    7  A    between atoms: C5_7  and  C6_9
INPUT-LIGAND-PDBQT: REMARK    8  A    between atoms: C6_9  and  N2_10
INPUT-LIGAND-PDBQT: REMARK    9  A    between atoms: C6_9  and  C9_14
INPUT-LIGAND-PDBQT: REMARK   10  A    between atoms: C7_11  and  C8_12
INPUT-LIGAND-PDBQT: REMARK   11  A    between atoms: C9_14  and  C10_15
INPUT-LIGAND-PDBQT: REMARK   12  A    between atoms: C9_14  and  C11_16
INPUT-LIGAND-PDBQT: REMARK   13  A    between atoms: N3_19  and  C13_20
INPUT-LIGAND-PDBQT: REMARK   14  A    between atoms: C13_20  and  C14_21
INPUT-LIGAND-PDBQT: REMARK   15  A    between atoms: C13_20  and  C18_25
INPUT-LIGAND-PDBQT: REMARK   16  A    between atoms: C14_21  and  C15_22
INPUT-LIGAND-PDBQT: REMARK   17  A    between atoms: C15_22  and  C16_23
INPUT-LIGAND-PDBQT: REMARK   18  A    between atoms: C15_22  and  C17_24
INPUT-LIGAND-PDBQT: REMARK   19  A    between atoms: C18_25  and  O4_26
INPUT-LIGAND-PDBQT: REMARK   20  A    between atoms: C18_25  and  C19_27
INPUT-LIGAND-PDBQT: REMARK   21  A    between atoms: C19_27  and  C20_28
INPUT-LIGAND-PDBQT: REMARK   22  A    between atoms: C20_28  and  C21_29
INPUT-LIGAND-PDBQT: REMARK   23  A    between atoms: C20_28  and  C39_57
INPUT-LIGAND-PDBQT: REMARK   24  A    between atoms: N4_31  and  C22_32
INPUT-LIGAND-PDBQT: REMARK   25  A    between atoms: C22_32  and  C23_33
INPUT-LIGAND-PDBQT: REMARK   26  A    between atoms: C22_32  and  C24_34
INPUT-LIGAND-PDBQT: REMARK   27  A    between atoms: N5_36  and  C25_37
INPUT-LIGAND-PDBQT: REMARK   28  A    between atoms: C25_37  and  C26_38
INPUT-LIGAND-PDBQT: REMARK   29  A    between atoms: C25_37  and  C29_43
INPUT-LIGAND-PDBQT: REMARK   30  A    between atoms: C26_38  and  C27_39
INPUT-LIGAND-PDBQT: REMARK   31  A    between atoms: C27_39  and  C28_40
INPUT-LIGAND-PDBQT: REMARK   32  A    between atoms: C28_40  and  O8_42
INPUT-LIGAND-PDBQT: REMARK   33  A    between atoms: N6_45  and  C30_46
INPUT-LIGAND-PDBQT: REMARK   34  A    between atoms: C30_46  and  C31_47
INPUT-LIGAND-PDBQT: REMARK   35  A    between atoms: C30_46  and  C38_54
INPUT-LIGAND-PDBQT: REMARK   36  A    between atoms: C31_47  and  C32_48
INPUT-LIGAND-PDBQT: REMARK   37  A    between atoms: C38_54  and  O11_56
INPUT-LIGAND-PDBQT: REMARK   38  A    between atoms: C39_57  and  C40_58
INPUT-LIGAND-PDBQT: REMARK   39  A    between atoms: C39_57  and  C41_59
INPUT-LIGAND-PDBQT: REMARK                            x       y       z     vdW  Elec       q    Type
INPUT-LIGAND-PDBQT: REMARK                         _______ _______ _______ _____ _____    ______ ____
INPUT-LIGAND-PDBQT: ROOT
INPUT-LIGAND-PDBQT: ATOM      1  C20 UNL     1      -0.653  -3.947   1.360  0.00  0.00    +0.080 C 
INPUT-LIGAND-PDBQT: ENDROOT
INPUT-LIGAND-PDBQT: BRANCH   1   2
INPUT-LIGAND-PDBQT: ATOM      2  C21 UNL     1      -0.305  -2.532   1.845  0.00  0.00    +0.217 C 
INPUT-LIGAND-PDBQT: ATOM      3  O5  UNL     1       0.244  -2.306   2.917  0.00  0.00    -0.275 OA
INPUT-LIGAND-PDBQT: ATOM      4  N4  UNL     1      -0.700  -1.527   0.983  0.00  0.00    -0.304 N 
INPUT-LIGAND-PDBQT: ATOM      5  H38 UNL     1      -1.434  -1.777   0.327  0.00  0.00    +0.149 HD
INPUT-LIGAND-PDBQT: BRANCH   4   6
INPUT-LIGAND-PDBQT: ATOM      6  C22 UNL     1      -0.833  -0.164   1.496  0.00  0.00    +0.156 C 
INPUT-LIGAND-PDBQT: ATOM      7  C23 UNL     1      -0.553   0.861   0.407  0.00  0.00    +0.038 C 
INPUT-LIGAND-PDBQT: BRANCH   6   8
INPUT-LIGAND-PDBQT: ATOM      8  C24 UNL     1      -2.287  -0.027   1.993  0.00  0.00    +0.234 C 
INPUT-LIGAND-PDBQT: ATOM      9  O6  UNL     1      -3.195  -0.743   1.565  0.00  0.00    -0.274 OA
INPUT-LIGAND-PDBQT: ATOM     10  N5  UNL     1      -2.496   0.963   2.920  0.00  0.00    -0.302 N 
INPUT-LIGAND-PDBQT: ATOM     11  H43 UNL     1      -1.774   1.678   3.034  0.00  0.00    +0.150 HD
INPUT-LIGAND-PDBQT: BRANCH  10  12
INPUT-LIGAND-PDBQT: ATOM     12  C25 UNL     1      -3.832   1.293   3.389  0.00  0.00    +0.159 C 
INPUT-LIGAND-PDBQT: BRANCH  12  13
INPUT-LIGAND-PDBQT: ATOM     13  C29 UNL     1      -4.487   2.327   2.451  0.00  0.00    +0.234 C 
INPUT-LIGAND-PDBQT: ATOM     14  O9  UNL     1      -3.836   3.165   1.830  0.00  0.00    -0.274 OA
INPUT-LIGAND-PDBQT: ATOM     15  N6  UNL     1      -5.866   2.299   2.451  0.00  0.00    -0.301 N 
INPUT-LIGAND-PDBQT: ATOM     16  H50 UNL     1      -6.328   1.762   3.176  0.00  0.00    +0.150 HD
INPUT-LIGAND-PDBQT: BRANCH  15  17
INPUT-LIGAND-PDBQT: ATOM     17  C30 UNL     1      -6.641   3.372   1.821  0.00  0.00    +0.186 C 
INPUT-LIGAND-PDBQT: BRANCH  17  18
INPUT-LIGAND-PDBQT: ATOM     18  C38 UNL     1      -6.857   4.465   2.868  0.00  0.00    +0.326 C 
INPUT-LIGAND-PDBQT: ATOM     19  O10 UNL     1      -6.776   4.330   4.083  0.00  0.00    -0.249 OA
INPUT-LIGAND-PDBQT: BRANCH  18  20
INPUT-LIGAND-PDBQT: ATOM     20  O11 UNL     1      -7.213   5.651   2.336  0.00  0.00    -0.479 OA
INPUT-LIGAND-PDBQT: ATOM     21  H59 UNL     1      -7.292   6.252   3.108  0.00  0.00    +0.295 HD
INPUT-LIGAND-PDBQT: ENDBRANCH  18  20
INPUT-LIGAND-PDBQT: ENDBRANCH  17  18
INPUT-LIGAND-PDBQT: BRANCH  17  22
INPUT-LIGAND-PDBQT: ATOM     22  C31 UNL     1      -8.013   2.882   1.334  0.00  0.00    +0.069 C 
INPUT-LIGAND-PDBQT: BRANCH  22  23
INPUT-LIGAND-PDBQT: ATOM     23  C32 UNL     1      -7.929   1.895   0.188  0.00  0.00    -0.045 A 
INPUT-LIGAND-PDBQT: ATOM     24  C33 UNL     1      -8.338   0.567   0.365  0.00  0.00    +0.004 A 
INPUT-LIGAND-PDBQT: ATOM     25  C34 UNL     1      -8.259  -0.338  -0.695  0.00  0.00    +0.000 A 
INPUT-LIGAND-PDBQT: ATOM     26  C35 UNL     1      -7.774   0.072  -1.935  0.00  0.00    +0.000 A 
INPUT-LIGAND-PDBQT: ATOM     27  C36 UNL     1      -7.374   1.390  -2.121  0.00  0.00    +0.000 A 
INPUT-LIGAND-PDBQT: ATOM     28  C37 UNL     1      -7.455   2.300  -1.069  0.00  0.00    +0.004 A 
INPUT-LIGAND-PDBQT: ENDBRANCH  22  23
INPUT-LIGAND-PDBQT: ENDBRANCH  17  22
INPUT-LIGAND-PDBQT: ENDBRANCH  15  17
INPUT-LIGAND-PDBQT: ENDBRANCH  12  13
INPUT-LIGAND-PDBQT: BRANCH  12  29
INPUT-LIGAND-PDBQT: ATOM     29  C26 UNL     1      -3.824   1.775   4.854  0.00  0.00    +0.043 C 
INPUT-LIGAND-PDBQT: BRANCH  29  30
INPUT-LIGAND-PDBQT: ATOM     30  C27 UNL     1      -3.388   3.222   5.110  0.00  0.00    +0.123 C 
INPUT-LIGAND-PDBQT: BRANCH  30  31
INPUT-LIGAND-PDBQT: ATOM     31  C28 UNL     1      -1.919   3.488   4.898  0.00  0.00    +0.305 C 
INPUT-LIGAND-PDBQT: ATOM     32  O7  UNL     1      -1.167   2.918   4.128  0.00  0.00    -0.251 OA
INPUT-LIGAND-PDBQT: BRANCH  31  33
INPUT-LIGAND-PDBQT: ATOM     33  O8  UNL     1      -1.485   4.522   5.644  0.00  0.00    -0.481 OA
INPUT-LIGAND-PDBQT: ATOM     34  H49 UNL     1      -0.540   4.622   5.406  0.00  0.00    +0.295 HD
INPUT-LIGAND-PDBQT: ENDBRANCH  31  33
INPUT-LIGAND-PDBQT: ENDBRANCH  30  31
INPUT-LIGAND-PDBQT: ENDBRANCH  29  30
INPUT-LIGAND-PDBQT: ENDBRANCH  12  29
INPUT-LIGAND-PDBQT: ENDBRANCH  10  12
INPUT-LIGAND-PDBQT: ENDBRANCH   6   8
INPUT-LIGAND-PDBQT: ENDBRANCH   4   6
INPUT-LIGAND-PDBQT: ENDBRANCH   1   2
INPUT-LIGAND-PDBQT: BRANCH   1  35
INPUT-LIGAND-PDBQT: ATOM     35  C39 UNL     1      -0.404  -5.012   2.464  0.00  0.00    -0.005 C 
INPUT-LIGAND-PDBQT: ATOM     36  C40 UNL     1      -1.221  -6.287   2.219  0.00  0.00    +0.008 C 
INPUT-LIGAND-PDBQT: ATOM     37  C41 UNL     1       1.059  -5.381   2.704  0.00  0.00    +0.008 C 
INPUT-LIGAND-PDBQT: ENDBRANCH   1  35
INPUT-LIGAND-PDBQT: BRANCH   1  38
INPUT-LIGAND-PDBQT: ATOM     38  C19 UNL     1      -0.132  -4.267  -0.066  0.00  0.00    +0.046 C 
INPUT-LIGAND-PDBQT: BRANCH  38  39
INPUT-LIGAND-PDBQT: ATOM     39  C18 UNL     1       1.326  -3.890  -0.386  0.00  0.00    +0.135 C 
INPUT-LIGAND-PDBQT: BRANCH  39  40
INPUT-LIGAND-PDBQT: ATOM     40  O4  UNL     1       2.219  -4.957  -0.052  0.00  0.00    -0.390 OA
INPUT-LIGAND-PDBQT: ATOM     41  H34 UNL     1       1.849  -5.790  -0.395  0.00  0.00    +0.210 HD
INPUT-LIGAND-PDBQT: ENDBRANCH  39  40
INPUT-LIGAND-PDBQT: BRANCH  39  42
INPUT-LIGAND-PDBQT: ATOM     42  C13 UNL     1       1.569  -3.484  -1.876  0.00  0.00    +0.102 C 
INPUT-LIGAND-PDBQT: BRANCH  42  45
INPUT-LIGAND-PDBQT: ATOM     43  C12 UNL     1       3.115  -1.533  -1.780  0.00  0.00    +0.234 C 
INPUT-LIGAND-PDBQT: ATOM     44  O3  UNL     1       2.204  -0.716  -1.681  0.00  0.00    -0.274 OA
INPUT-LIGAND-PDBQT: ATOM     45  N3  UNL     1       2.910  -2.884  -1.954  0.00  0.00    -0.308 N 
INPUT-LIGAND-PDBQT: ATOM     46  H22 UNL     1       3.686  -3.513  -1.781  0.00  0.00    +0.149 HD
INPUT-LIGAND-PDBQT: BRANCH  43  47
INPUT-LIGAND-PDBQT: ATOM     47  C4  UNL     1       4.597  -1.135  -1.630  0.00  0.00    +0.160 C 
INPUT-LIGAND-PDBQT: BRANCH  47  48
INPUT-LIGAND-PDBQT: ATOM     48  N1  UNL     1       4.772   0.257  -2.037  0.00  0.00    -0.302 N 
INPUT-LIGAND-PDBQT: ATOM     49  C5  UNL     1       4.887   0.570  -3.376  0.00  0.00    +0.234 C 
INPUT-LIGAND-PDBQT: ATOM     50  O1  UNL     1       4.951  -0.290  -4.256  0.00  0.00    -0.274 OA
INPUT-LIGAND-PDBQT: ATOM     51  H9  UNL     1       4.319   0.950  -1.455  0.00  0.00    +0.150 HD
INPUT-LIGAND-PDBQT: BRANCH  49  52
INPUT-LIGAND-PDBQT: ATOM     52  C6  UNL     1       4.937   2.084  -3.704  0.00  0.00    +0.161 C 
INPUT-LIGAND-PDBQT: BRANCH  52  53
INPUT-LIGAND-PDBQT: ATOM     53  N2  UNL     1       5.276   2.175  -5.122  0.00  0.00    -0.304 N 
INPUT-LIGAND-PDBQT: ATOM     54  C7  UNL     1       6.244   3.034  -5.581  0.00  0.00    +0.211 C 
INPUT-LIGAND-PDBQT: ATOM     55  C8  UNL     1       6.582   2.858  -7.038  0.00  0.00    +0.109 C 
INPUT-LIGAND-PDBQT: ATOM     56  O2  UNL     1       6.774   3.895  -4.885  0.00  0.00    -0.276 OA
INPUT-LIGAND-PDBQT: ATOM     57  H11 UNL     1       5.042   1.359  -5.680  0.00  0.00    +0.149 HD
INPUT-LIGAND-PDBQT: ENDBRANCH  52  53
INPUT-LIGAND-PDBQT: BRANCH  52  58
INPUT-LIGAND-PDBQT: ATOM     58  C9  UNL     1       3.605   2.790  -3.335  0.00  0.00    +0.012 C 
INPUT-LIGAND-PDBQT: ATOM     59  C10 UNL     1       3.793   3.665  -2.087  0.00  0.00    +0.009 C 
INPUT-LIGAND-PDBQT: ATOM     60  C11 UNL     1       3.000   3.650  -4.453  0.00  0.00    +0.009 C 
INPUT-LIGAND-PDBQT: ENDBRANCH  52  58
INPUT-LIGAND-PDBQT: ENDBRANCH  49  52
INPUT-LIGAND-PDBQT: ENDBRANCH  47  48
INPUT-LIGAND-PDBQT: BRANCH  47  61
INPUT-LIGAND-PDBQT: ATOM     61  C3  UNL     1       5.084  -1.372  -0.193  0.00  0.00    +0.042 C 
INPUT-LIGAND-PDBQT: BRANCH  61  62
INPUT-LIGAND-PDBQT: ATOM     62  C2  UNL     1       4.196  -0.723   0.874  0.00  0.00    +0.071 C 
INPUT-LIGAND-PDBQT: BRANCH  62  64
INPUT-LIGAND-PDBQT: ATOM     63  C1  UNL     1       3.460  -0.627   3.518  0.00  0.00    +0.084 C 
INPUT-LIGAND-PDBQT: ATOM     64  S1  UNL     1       4.932  -0.953   2.522  0.00  0.00    -0.164 S 
INPUT-LIGAND-PDBQT: ENDBRANCH  62  64
INPUT-LIGAND-PDBQT: ENDBRANCH  61  62
INPUT-LIGAND-PDBQT: ENDBRANCH  47  61
INPUT-LIGAND-PDBQT: ENDBRANCH  43  47
INPUT-LIGAND-PDBQT: ENDBRANCH  42  45
INPUT-LIGAND-PDBQT: BRANCH  42  65
INPUT-LIGAND-PDBQT: ATOM     65  C14 UNL     1       1.530  -4.625  -2.917  0.00  0.00    +0.028 C 
INPUT-LIGAND-PDBQT: BRANCH  65  66
INPUT-LIGAND-PDBQT: ATOM     66  C15 UNL     1       0.156  -5.223  -3.268  0.00  0.00    -0.015 C 
INPUT-LIGAND-PDBQT: ATOM     67  C16 UNL     1       0.334  -6.357  -4.284  0.00  0.00    +0.007 C 
INPUT-LIGAND-PDBQT: ATOM     68  C17 UNL     1      -0.815  -4.185  -3.832  0.00  0.00    +0.007 C 
INPUT-LIGAND-PDBQT: ENDBRANCH  65  66
INPUT-LIGAND-PDBQT: ENDBRANCH  42  65
INPUT-LIGAND-PDBQT: ENDBRANCH  39  42
INPUT-LIGAND-PDBQT: ENDBRANCH  38  39
INPUT-LIGAND-PDBQT: ENDBRANCH   1  38
INPUT-LIGAND-PDBQT: TORSDOF 30


    FINAL DOCKED STATE:
    ________________________


Run:   1 / 20
Time taken for this run:   4.973s

DOCKED: MODEL        1
DOCKED: USER    Run = 1
DOCKED: USER
DOCKED: USER    Estimated Free Energy of Binding    =  +8.95 kcal/mol  [=(1)+(2)+(3)-(4)]
DOCKED: USER
DOCKED: USER    (1) Final Intermolecular Energy     =  +0.00 kcal/mol
DOCKED: USER        vdW + Hbond + desolv Energy     =  +0.00 kcal/mol
DOCKED: USER        Electrostatic Energy            =  +0.00 kcal/mol
DOCKED: USER        Moving Ligand-Fixed Receptor    =  +0.00 kcal/mol
DOCKED: USER        Moving Ligand-Moving Receptor   =  +0.00 kcal/mol
DOCKED: USER    (2) Final Total Internal Energy     = -23.99 kcal/mol
DOCKED: USER    (3) Torsional Free Energy           =  +8.95 kcal/mol
DOCKED: USER    (4) Unbound System's Energy         = -23.99 kcal/mol
DOCKED: USER
DOCKED: USER
DOCKED: REMARK  Name = ligands/ligand_3.pdb
DOCKED: REMARK  39 active torsions:
DOCKED: REMARK  status: ('A' for Active; 'I' for Inactive)
DOCKED: REMARK    1  A    between atoms: C1_1  and  S1_2
DOCKED: REMARK    2  A    between atoms: S1_2  and  C2_3
DOCKED: REMARK    3  A    between atoms: C2_3  and  C3_4
DOCKED: REMARK    4  A    between atoms: C3_4  and  C4_5
DOCKED: REMARK    5  A    between atoms: C4_5  and  N1_6
DOCKED: REMARK    6  A    between atoms: C4_5  and  C12_17
DOCKED: REMARK    7  A    between atoms: C5_7  and  C6_9
DOCKED: REMARK    8  A    between atoms: C6_9  and  N2_10
DOCKED: REMARK    9  A    between atoms: C6_9  and  C9_14
DOCKED: REMARK   10  A    between atoms: C7_11  and  C8_12
DOCKED: REMARK   11  A    between atoms: C9_14  and  C10_15
DOCKED: REMARK   12  A    between atoms: C9_14  and  C11_16
DOCKED: REMARK   13  A    between atoms: N3_19  and  C13_20
DOCKED: REMARK   14  A    between atoms: C13_20  and  C14_21
DOCKED: REMARK   15  A    between atoms: C13_20  and  C18_25
DOCKED: REMARK   16  A    between atoms: C14_21  and  C15_22
DOCKED: REMARK   17  A    between atoms: C15_22  and  C16_23
DOCKED: REMARK   18  A    between atoms: C15_22  and  C17_24
DOCKED: REMARK   19  A    between atoms: C18_25  and  O4_26
DOCKED: REMARK   20  A    between atoms: C18_25  and  C19_27
DOCKED: REMARK   21  A    between atoms: C19_27  and  C20_28
DOCKED: REMARK   22  A    between atoms: C20_28  and  C21_29
DOCKED: REMARK   23  A    between atoms: C20_28  and  C39_57
DOCKED: REMARK   24  A    between atoms: N4_31  and  C22_32
DOCKED: REMARK   25  A    between atoms: C22_32  and  C23_33
DOCKED: REMARK   26  A    between atoms: C22_32  and  C24_34
DOCKED: REMARK   27  A    between atoms: N5_36  and  C25_37
DOCKED: REMARK   28  A    between atoms: C25_37  and  C26_38
DOCKED: REMARK   29  A    between atoms: C25_37  and  C29_43
DOCKED: REMARK   30  A    between atoms: C26_38  and  C27_39
DOCKED: REMARK   31  A    between atoms: C27_39  and  C28_40
DOCKED: REMARK   32  A    between atoms: C28_40  and  O8_42
DOCKED: REMARK   33  A    between atoms: N6_45  and  C30_46
DOCKED: REMARK   34  A    between atoms: C30_46  and  C31_47
DOCKED: REMARK   35  A    between atoms: C30_46  and  C38_54
DOCKED: REMARK   36  A    between atoms: C31_47  and  C32_48
DOCKED: REMARK   37  A    between atoms: C38_54  and  O11_56
DOCKED: REMARK   38  A    between atoms: C39_57  and  C40_58
DOCKED: REMARK   39  A    between atoms: C39_57  and  C41_59
DOCKED: REMARK                            x       y       z     vdW  Elec       q    Type
DOCKED: REMARK                         _______ _______ _______ _____ _____    ______ ____
DOCKED: USER                              x       y       z     vdW  Elec       q    Type
DOCKED: USER                           _______ _______ _______ _____ _____    ______ ____
DOCKED: ROOT
DOCKED: ATOM      1  C20 UNL     1      14.974  -8.499  -0.069 +0.00 +0.00    +0.080 C  
DOCKED: ENDROOT
DOCKED: BRANCH   1   2
DOCKED: ATOM      2  C21 UNL     1      15.318  -7.084   0.417 +0.00 +0.00    +0.217 C  
DOCKED: ATOM      3  O5  UNL     1      15.609  -6.826   1.579 +0.00 -0.00    -0.275 OA 
DOCKED: ATOM      4  N4  UNL     1      15.233  -6.114  -0.564 +0.00 -0.00    -0.304 N  
DOCKED: ATOM      5  H38 UNL     1      14.660  -6.354  -1.367 +0.00 +0.00    +0.149 HD 
DOCKED: BRANCH   4   6
DOCKED: ATOM      6  C22 UNL     1      15.101  -4.713  -0.166 +0.00 +0.00    +0.156 C  
DOCKED: ATOM      7  C23 UNL     1      15.247  -3.787  -1.365 +0.00 +0.00    +0.038 C  
DOCKED: BRANCH   6   8
DOCKED: ATOM      8  C24 UNL     1      13.694  -4.567   0.449 +0.00 +0.00    +0.234 C  
DOCKED: ATOM      9  O6  UNL     1      13.465  -3.793   1.382 +0.00 -0.00    -0.274 OA 
DOCKED: ATOM     10  N5  UNL     1      12.731  -5.377  -0.097 +0.00 -0.00    -0.302 N  
DOCKED: ATOM     11  H43 UNL     1      13.034  -6.167  -0.673 +0.00 +0.00    +0.150 HD 
DOCKED: BRANCH  10  12
DOCKED: ATOM     12  C25 UNL     1      11.389  -5.441   0.458 +0.00 +0.00    +0.159 C  
DOCKED: BRANCH  12  13
DOCKED: ATOM     13  C29 UNL     1      10.988  -6.908   0.718 +0.00 +0.00    +0.234 C  
DOCKED: ATOM     14  O9  UNL     1      10.637  -7.313   1.824 +0.00 -0.00    -0.274 OA 
DOCKED: ATOM     15  N6  UNL     1      11.157  -7.742  -0.367 +0.00 -0.00    -0.301 N  
DOCKED: ATOM     16  H50 UNL     1      11.689  -7.391  -1.155 +0.00 +0.00    +0.150 HD 
DOCKED: BRANCH  15  17
DOCKED: ATOM     17  C30 UNL     1      11.070  -9.198  -0.218 +0.00 +0.00    +0.186 C  
DOCKED: BRANCH  17  18
DOCKED: ATOM     18  C38 UNL     1      11.592  -9.829  -1.509 +0.00 +0.00    +0.326 C  
DOCKED: ATOM     19  O10 UNL     1      12.178 -10.901  -1.606 +0.00 -0.00    -0.249 OA 
DOCKED: BRANCH  18  20
DOCKED: ATOM     20  O11 UNL     1      11.398  -9.058  -2.597 +0.00 -0.00    -0.479 OA 
DOCKED: ATOM     21  H59 UNL     1      12.036  -8.319  -2.491 +0.00 +0.00    +0.295 HD 
DOCKED: ENDBRANCH  18  20
DOCKED: ENDBRANCH  17  18
DOCKED: BRANCH  17  22
DOCKED: ATOM     22  C31 UNL     1       9.625  -9.668   0.007 +0.00 +0.00    +0.069 C  
DOCKED: BRANCH  22  23
DOCKED: ATOM     23  C32 UNL     1       8.619  -8.978  -0.890 +0.00 -0.00    -0.045 A  
DOCKED: ATOM     24  C33 UNL     1       8.013  -7.781  -0.486 +0.00 +0.00    +0.004 A  
DOCKED: ATOM     25  C34 UNL     1       7.087  -7.149  -1.317 +0.00 +0.00    +0.000 A  
DOCKED: ATOM     26  C35 UNL     1       6.759  -7.701  -2.554 +0.00 +0.00    +0.000 A  
DOCKED: ATOM     27  C36 UNL     1       7.362  -8.884  -2.965 +0.00 +0.00    +0.000 A  
DOCKED: ATOM     28  C37 UNL     1       8.291  -9.518  -2.143 +0.00 +0.00    +0.004 A  
DOCKED: ENDBRANCH  22  23
DOCKED: ENDBRANCH  17  22
DOCKED: ENDBRANCH  15  17
DOCKED: ENDBRANCH  12  13
DOCKED: BRANCH  12  29
DOCKED: ATOM     29  C26 UNL     1      10.362  -4.718  -0.437 +0.00 +0.00    +0.043 C  
DOCKED: BRANCH  29  30
DOCKED: ATOM     30  C27 UNL     1      10.806  -4.357  -1.858 +0.00 +0.00    +0.123 C  
DOCKED: BRANCH  30  31
DOCKED: ATOM     31  C28 UNL     1      11.690  -5.382  -2.525 +0.00 +0.00    +0.305 C  
DOCKED: ATOM     32  O7  UNL     1      12.898  -5.336  -2.668 +0.00 -0.00    -0.251 OA 
DOCKED: BRANCH  31  33
DOCKED: ATOM     33  O8  UNL     1      10.990  -6.459  -2.929 +0.00 -0.00    -0.481 OA 
DOCKED: ATOM     34  H49 UNL     1      11.660  -7.062  -3.314 +0.00 +0.00    +0.295 HD 
DOCKED: ENDBRANCH  31  33
DOCKED: ENDBRANCH  30  31
DOCKED: ENDBRANCH  29  30
DOCKED: ENDBRANCH  12  29
DOCKED: ENDBRANCH  10  12
DOCKED: ENDBRANCH   6   8
DOCKED: ENDBRANCH   4   6
DOCKED: ENDBRANCH   1   2
DOCKED: BRANCH   1  35
DOCKED: ATOM     35  C39 UNL     1      15.221  -9.564   1.035 +0.00 -0.00    -0.005 C  
DOCKED: ATOM     36  C40 UNL     1      14.055  -9.635   2.029 +0.00 +0.00    +0.008 C  
DOCKED: ATOM     37  C41 UNL     1      15.550 -10.969   0.533 +0.00 +0.00    +0.008 C  
DOCKED: ENDBRANCH   1  35
DOCKED: BRANCH   1  38
DOCKED: ATOM     38  C19 UNL     1      15.500  -8.818  -1.494 +0.00 +0.00    +0.046 C  
DOCKED: BRANCH  38  39
DOCKED: ATOM     39  C18 UNL     1      14.571  -8.494  -2.678 +0.00 +0.00    +0.135 C  
DOCKED: BRANCH  39  40
DOCKED: ATOM     40  O4  UNL     1      13.493  -7.645  -2.270 +0.00 -0.00    -0.390 OA 
DOCKED: ATOM     41  H34 UNL     1      12.903  -7.506  -3.032 +0.00 +0.00    +0.210 HD 
DOCKED: ENDBRANCH  39  40
DOCKED: BRANCH  39  42
DOCKED: ATOM     42  C13 UNL     1      15.295  -7.831  -3.895 +0.00 +0.00    +0.102 C  
DOCKED: BRANCH  42  45
DOCKED: ATOM     43  C12 UNL     1      14.849  -5.847  -5.334 +0.00 +0.00    +0.234 C  
DOCKED: ATOM     44  O3  UNL     1      15.761  -6.109  -6.113 +0.00 -0.00    -0.274 OA 
DOCKED: ATOM     45  N3  UNL     1      14.591  -6.574  -4.193 +0.00 -0.00    -0.308 N  
DOCKED: ATOM     46  H22 UNL     1      13.691  -6.454  -3.741 +0.00 +0.00    +0.149 HD 
DOCKED: BRANCH  43  47
DOCKED: ATOM     47  C4  UNL     1      13.836  -4.717  -5.603 +0.00 +0.00    +0.160 C  
DOCKED: BRANCH  47  48
DOCKED: ATOM     48  N1  UNL     1      12.480  -5.262  -5.584 +0.00 -0.00    -0.302 N  
DOCKED: ATOM     49  C5  UNL     1      11.962  -5.849  -6.720 +0.00 +0.00    +0.234 C  
DOCKED: ATOM     50  O1  UNL     1      12.557  -5.848  -7.799 +0.00 -0.00    -0.274 OA 
DOCKED: ATOM     51  H9  UNL     1      12.170  -5.648  -4.702 +0.00 +0.00    +0.150 HD 
DOCKED: BRANCH  49  52
DOCKED: ATOM     52  C6  UNL     1      10.570  -6.509  -6.552 +0.00 +0.00    +0.161 C  
DOCKED: BRANCH  52  53
DOCKED: ATOM     53  N2  UNL     1      10.818  -7.945  -6.441 +0.00 -0.00    -0.304 N  
DOCKED: ATOM     54  C7  UNL     1      11.576  -8.471  -5.424 +0.00 +0.00    +0.211 C  
DOCKED: ATOM     55  C8  UNL     1      11.570  -9.976  -5.369 +0.00 +0.00    +0.109 C  
DOCKED: ATOM     56  O2  UNL     1      12.231  -7.790  -4.641 +0.00 -0.00    -0.276 OA 
DOCKED: ATOM     57  H11 UNL     1      10.141  -8.542  -6.906 +0.00 +0.00    +0.149 HD 
DOCKED: ENDBRANCH  52  53
DOCKED: BRANCH  52  58
DOCKED: ATOM     58  C9  UNL     1       9.801  -5.915  -5.342 +0.00 +0.00    +0.012 C  
DOCKED: ATOM     59  C10 UNL     1       9.567  -4.411  -5.545 +0.00 +0.00    +0.009 C  
DOCKED: ATOM     60  C11 UNL     1       8.454  -6.587  -5.040 +0.00 +0.00    +0.009 C  
DOCKED: ENDBRANCH  52  58
DOCKED: ENDBRANCH  49  52
DOCKED: ENDBRANCH  47  48
DOCKED: BRANCH  47  61
DOCKED: ATOM     61  C3  UNL     1      14.004  -3.578  -4.588 +0.00 +0.00    +0.042 C  
DOCKED: BRANCH  61  62
DOCKED: ATOM     62  C2  UNL     1      13.300  -2.279  -4.995 +0.00 +0.00    +0.071 C  
DOCKED: BRANCH  62  64
DOCKED: ATOM     63  C1  UNL     1      12.724  -1.636  -2.388 +0.00 +0.00    +0.084 C  
DOCKED: ATOM     64  S1  UNL     1      11.853  -1.994  -3.929 +0.00 -0.00    -0.164 S  
DOCKED: ENDBRANCH  62  64
DOCKED: ENDBRANCH  61  62
DOCKED: ENDBRANCH  47  61
DOCKED: ENDBRANCH  43  47
DOCKED: ENDBRANCH  42  45
DOCKED: BRANCH  42  65
DOCKED: ATOM     65  C14 UNL     1      16.785  -7.472  -3.700 +0.00 +0.00    +0.028 C  
DOCKED: BRANCH  65  66
DOCKED: ATOM     66  C15 UNL     1      17.113  -6.221  -2.866 +0.00 -0.00    -0.015 C  
DOCKED: ATOM     67  C16 UNL     1      17.671  -5.126  -3.781 +0.00 +0.00    +0.007 C  
DOCKED: ATOM     68  C17 UNL     1      18.114  -6.503  -1.745 +0.00 +0.00    +0.007 C  
DOCKED: ENDBRANCH  65  66
DOCKED: ENDBRANCH  42  65
DOCKED: ENDBRANCH  39  42
DOCKED: ENDBRANCH  38  39
DOCKED: ENDBRANCH   1  38
DOCKED: TORSDOF 30
DOCKED: TER
DOCKED: ENDMDL
________________________________________________________________________________


    FINAL DOCKED STATE:
    ________________________


Run:   2 / 20
Time taken for this run:   4.973s

DOCKED: MODEL        2
DOCKED: USER    Run = 2
DOCKED: USER
DOCKED: USER    Estimated Free Energy of Binding    =  +8.95 kcal/mol  [=(1)+(2)+(3)-(4)]
DOCKED: USER
DOCKED: USER    (1) Final Intermolecular Energy     =  +0.00 kcal/mol
DOCKED: USER        vdW + Hbond + desolv Energy     =  +0.00 kcal/mol
DOCKED: USER        Electrostatic Energy            =  +0.00 kcal/mol
DOCKED: USER        Moving Ligand-Fixed Receptor    =  +0.00 kcal/mol
DOCKED: USER        Moving Ligand-Moving Receptor   =  +0.00 kcal/mol
DOCKED: USER    (2) Final Total Internal Energy     = -24.13 kcal/mol
DOCKED: USER    (3) Torsional Free Energy           =  +8.95 kcal/mol
DOCKED: USER    (4) Unbound System's Energy         = -24.13 kcal/mol
DOCKED: USER
DOCKED: USER
DOCKED: REMARK  Name = ligands/ligand_3.pdb
DOCKED: REMARK  39 active torsions:
DOCKED: REMARK  status: ('A' for Active; 'I' for Inactive)
DOCKED: REMARK    1  A    between atoms: C1_1  and  S1_2
DOCKED: REMARK    2  A    between atoms: S1_2  and  C2_3
DOCKED: REMARK    3  A    between atoms: C2_3  and  C3_4
DOCKED: REMARK    4  A    between atoms: C3_4  and  C4_5
DOCKED: REMARK    5  A    between atoms: C4_5  and  N1_6
DOCKED: REMARK    6  A    between atoms: C4_5  and  C12_17
DOCKED: REMARK    7  A    between atoms: C5_7  and  C6_9
DOCKED: REMARK    8  A    between atoms: C6_9  and  N2_10
DOCKED: REMARK    9  A    between atoms: C6_9  and  C9_14
DOCKED: REMARK   10  A    between atoms: C7_11  and  C8_12
DOCKED: REMARK   11  A    between atoms: C9_14  and  C10_15
DOCKED: REMARK   12  A    between atoms: C9_14  and  C11_16
DOCKED: REMARK   13  A    between atoms: N3_19  and  C13_20
DOCKED: REMARK   14  A    between atoms: C13_20  and  C14_21
DOCKED: REMARK   15  A    between atoms: C13_20  and  C18_25
DOCKED: REMARK   16  A    between atoms: C14_21  and  C15_22
DOCKED: REMARK   17  A    between atoms: C15_22  and  C16_23
DOCKED: REMARK   18  A    between atoms: C15_22  and  C17_24
DOCKED: REMARK   19  A    between atoms: C18_25  and  O4_26
DOCKED: REMARK   20  A    between atoms: C18_25  and  C19_27
DOCKED: REMARK   21  A    between atoms: C19_27  and  C20_28
DOCKED: REMARK   22  A    between atoms: C20_28  and  C21_29
DOCKED: REMARK   23  A    between atoms: C20_28  and  C39_57
DOCKED: REMARK   24  A    between atoms: N4_31  and  C22_32
DOCKED: REMARK   25  A    between atoms: C22_32  and  C23_33
DOCKED: REMARK   26  A    between atoms: C22_32  and  C24_34
DOCKED: REMARK   27  A    between atoms: N5_36  and  C25_37
DOCKED: REMARK   28  A    between atoms: C25_37  and  C26_38
DOCKED: REMARK   29  A    between atoms: C25_37  and  C29_43
DOCKED: REMARK   30  A    between atoms: C26_38  and  C27_39
DOCKED: REMARK   31  A    between atoms: C27_39  and  C28_40
DOCKED: REMARK   32  A    between atoms: C28_40  and  O8_42
DOCKED: REMARK   33  A    between atoms: N6_45  and  C30_46
DOCKED: REMARK   34  A    between atoms: C30_46  and  C31_47
DOCKED: REMARK   35  A    between atoms: C30_46  and  C38_54
DOCKED: REMARK   36  A    between atoms: C31_47  and  C32_48
DOCKED: REMARK   37  A    between atoms: C38_54  and  O11_56
DOCKED: REMARK   38  A    between atoms: C39_57  and  C40_58
DOCKED: REMARK   39  A    between atoms: C39_57  and  C41_59
DOCKED: REMARK                            x       y       z     vdW  Elec       q    Type
DOCKED: REMARK                         _______ _______ _______ _____ _____    ______ ____
DOCKED: USER                              x       y       z     vdW  Elec       q    Type
DOCKED: USER                           _______ _______ _______ _____ _____    ______ ____
DOCKED: ROOT
DOCKED: ATOM      1  C20 UNL     1      11.275  -5.105  -4.760 +0.00 +0.00    +0.080 C  
DOCKED: ENDROOT
DOCKED: BRANCH   1   2
DOCKED: ATOM      2  C21 UNL     1      10.423  -4.396  -3.697 +0.00 +0.00    +0.217 C  
DOCKED: ATOM      3  O5  UNL     1       9.823  -4.993  -2.811 +0.00 -0.00    -0.275 OA 
DOCKED: ATOM      4  N4  UNL     1      10.358  -3.025  -3.849 +0.00 -0.00    -0.304 N  
DOCKED: ATOM      5  H38 UNL     1      10.578  -2.676  -4.777 +0.00 +0.00    +0.149 HD 
DOCKED: BRANCH   4   6
DOCKED: ATOM      6  C22 UNL     1       9.268  -2.291  -3.207 +0.00 +0.00    +0.156 C  
DOCKED: ATOM      7  C23 UNL     1       7.914  -2.835  -3.637 +0.00 +0.00    +0.038 C  
DOCKED: BRANCH   6   8
DOCKED: ATOM      8  C24 UNL     1       9.456  -2.475  -1.687 +0.00 +0.00    +0.234 C  
DOCKED: ATOM      9  O6  UNL     1      10.289  -1.828  -1.048 +0.00 -0.00    -0.274 OA 
DOCKED: ATOM     10  N5  UNL     1       8.652  -3.426  -1.111 +0.00 -0.00    -0.302 N  
DOCKED: ATOM     11  H43 UNL     1       8.183  -4.097  -1.723 +0.00 +0.00    +0.150 HD 
DOCKED: BRANCH  10  12
DOCKED: ATOM     12  C25 UNL     1       8.800  -3.798   0.287 +0.00 +0.00    +0.159 C  
DOCKED: BRANCH  12  13
DOCKED: ATOM     13  C29 UNL     1      10.148  -4.513   0.509 +0.00 +0.00    +0.234 C  
DOCKED: ATOM     14  O9  UNL     1      11.039  -4.045   1.215 +0.00 -0.00    -0.274 OA 
DOCKED: ATOM     15  N6  UNL     1      10.307  -5.665  -0.232 +0.00 -0.00    -0.301 N  
DOCKED: ATOM     16  H50 UNL     1       9.643  -5.844  -0.977 +0.00 +0.00    +0.150 HD 
DOCKED: BRANCH  15  17
DOCKED: ATOM     17  C30 UNL     1      11.614  -6.320  -0.335 +0.00 +0.00    +0.186 C  
DOCKED: BRANCH  17  18
DOCKED: ATOM     18  C38 UNL     1      11.586  -7.223  -1.568 +0.00 +0.00    +0.326 C  
DOCKED: ATOM     19  O10 UNL     1      12.520  -7.436  -2.331 +0.00 -0.00    -0.249 OA 
DOCKED: BRANCH  18  20
DOCKED: ATOM     20  O11 UNL     1      10.375  -7.765  -1.805 +0.00 -0.00    -0.479 OA 
DOCKED: ATOM     21  H59 UNL     1       9.817  -7.007  -2.082 +0.00 +0.00    +0.295 HD 
DOCKED: ENDBRANCH  18  20
DOCKED: ENDBRANCH  17  18
DOCKED: BRANCH  17  22
DOCKED: ATOM     22  C31 UNL     1      11.924  -7.184   0.897 +0.00 +0.00    +0.069 C  
DOCKED: BRANCH  22  23
DOCKED: ATOM     23  C32 UNL     1      10.685  -7.706   1.595 +0.00 -0.00    -0.045 A  
DOCKED: ATOM     24  C33 UNL     1      10.122  -8.932   1.217 +0.00 +0.00    +0.004 A  
DOCKED: ATOM     25  C34 UNL     1       8.980  -9.408   1.864 +0.00 +0.00    +0.000 A  
DOCKED: ATOM     26  C35 UNL     1       8.393  -8.670   2.889 +0.00 +0.00    +0.000 A  
DOCKED: ATOM     27  C36 UNL     1       8.950  -7.457   3.276 +0.00 +0.00    +0.000 A  
DOCKED: ATOM     28  C37 UNL     1      10.093  -6.978   2.638 +0.00 +0.00    +0.004 A  
DOCKED: ENDBRANCH  22  23
DOCKED: ENDBRANCH  17  22
DOCKED: ENDBRANCH  15  17
DOCKED: ENDBRANCH  12  13
DOCKED: BRANCH  12  29
DOCKED: ATOM     29  C26 UNL     1       7.613  -4.647   0.784 +0.00 +0.00    +0.043 C  
DOCKED: BRANCH  29  30
DOCKED: ATOM     30  C27 UNL     1       6.869  -5.486  -0.261 +0.00 +0.00    +0.123 C  
DOCKED: BRANCH  30  31
DOCKED: ATOM     31  C28 UNL     1       7.723  -6.490  -0.993 +0.00 +0.00    +0.305 C  
DOCKED: ATOM     32  O7  UNL     1       8.232  -7.499  -0.539 +0.00 -0.00    -0.251 OA 
DOCKED: BRANCH  31  33
DOCKED: ATOM     33  O8  UNL     1       7.839  -6.190  -2.300 +0.00 -0.00    -0.481 OA 
DOCKED: ATOM     34  H49 UNL     1       8.581  -6.745  -2.619 +0.00 +0.00    +0.295 HD 
DOCKED: ENDBRANCH  31  33
DOCKED: ENDBRANCH  30  31
DOCKED: ENDBRANCH  29  30
DOCKED: ENDBRANCH  12  29
DOCKED: ENDBRANCH  10  12
DOCKED: ENDBRANCH   6   8
DOCKED: ENDBRANCH   4   6
DOCKED: ENDBRANCH   1   2
DOCKED: BRANCH   1  35
DOCKED: ATOM     35  C39 UNL     1      12.513  -4.257  -5.166 +0.00 -0.00    -0.005 C  
DOCKED: ATOM     36  C40 UNL     1      13.447  -4.008  -3.974 +0.00 +0.00    +0.008 C  
DOCKED: ATOM     37  C41 UNL     1      13.322  -4.796  -6.345 +0.00 +0.00    +0.008 C  
DOCKED: ENDBRANCH   1  35
DOCKED: BRANCH   1  38
DOCKED: ATOM     38  C19 UNL     1      10.446  -5.744  -5.906 +0.00 +0.00    +0.046 C  
DOCKED: BRANCH  38  39
DOCKED: ATOM     39  C18 UNL     1       9.603  -6.985  -5.560 +0.00 +0.00    +0.135 C  
DOCKED: BRANCH  39  40
DOCKED: ATOM     40  O4  UNL     1       9.906  -7.463  -4.246 +0.00 -0.00    -0.390 OA 
DOCKED: ATOM     41  H34 UNL     1       9.388  -6.948  -3.601 +0.00 +0.00    +0.210 HD 
DOCKED: ENDBRANCH  39  40
DOCKED: BRANCH  39  42
DOCKED: ATOM     42  C13 UNL     1       8.060  -6.759  -5.665 +0.00 +0.00    +0.102 C  
DOCKED: BRANCH  42  45
DOCKED: ATOM     43  C12 UNL     1       6.684  -8.778  -5.176 +0.00 +0.00    +0.234 C  
DOCKED: ATOM     44  O3  UNL     1       6.404  -8.970  -6.356 +0.00 -0.00    -0.274 OA 
DOCKED: ATOM     45  N3  UNL     1       7.415  -7.697  -4.733 +0.00 -0.00    -0.308 N  
DOCKED: ATOM     46  H22 UNL     1       7.811  -7.735  -3.801 +0.00 +0.00    +0.149 HD 
DOCKED: BRANCH  43  47
DOCKED: ATOM     47  C4  UNL     1       6.317  -9.786  -4.069 +0.00 +0.00    +0.160 C  
DOCKED: BRANCH  47  48
DOCKED: ATOM     48  N1  UNL     1       7.505 -10.543  -3.684 +0.00 -0.00    -0.302 N  
DOCKED: ATOM     49  C5  UNL     1       8.508  -9.926  -2.965 +0.00 +0.00    +0.234 C  
DOCKED: ATOM     50  O1  UNL     1       8.498  -8.720  -2.711 +0.00 -0.00    -0.274 OA 
DOCKED: ATOM     51  H9  UNL     1       7.363 -11.527  -3.495 +0.00 +0.00    +0.150 HD 
DOCKED: BRANCH  49  52
DOCKED: ATOM     52  C6  UNL     1       9.660 -10.852  -2.498 +0.00 +0.00    +0.161 C  
DOCKED: BRANCH  52  53
DOCKED: ATOM     53  N2  UNL     1      10.897 -10.137  -2.802 +0.00 -0.00    -0.304 N  
DOCKED: ATOM     54  C7  UNL     1      11.987 -10.774  -3.343 +0.00 +0.00    +0.211 C  
DOCKED: ATOM     55  C8  UNL     1      13.098  -9.846  -3.756 +0.00 +0.00    +0.109 C  
DOCKED: ATOM     56  O2  UNL     1      12.074 -11.993  -3.457 +0.00 -0.00    -0.276 OA 
DOCKED: ATOM     57  H11 UNL     1      10.800  -9.135  -2.936 +0.00 +0.00    +0.149 HD 
DOCKED: ENDBRANCH  52  53
DOCKED: BRANCH  52  58
DOCKED: ATOM     58  C9  UNL     1       9.512 -11.233  -1.001 +0.00 +0.00    +0.012 C  
DOCKED: ATOM     59  C10 UNL     1       8.376 -12.250  -0.818 +0.00 +0.00    +0.009 C  
DOCKED: ATOM     60  C11 UNL     1      10.783 -11.793  -0.349 +0.00 +0.00    +0.009 C  
DOCKED: ENDBRANCH  52  58
DOCKED: ENDBRANCH  49  52
DOCKED: ENDBRANCH  47  48
DOCKED: BRANCH  47  61
DOCKED: ATOM     61  C3  UNL     1       5.686  -9.070  -2.865 +0.00 +0.00    +0.042 C  
DOCKED: BRANCH  61  62
DOCKED: ATOM     62  C2  UNL     1       5.197 -10.022  -1.768 +0.00 +0.00    +0.071 C  
DOCKED: BRANCH  62  64
DOCKED: ATOM     63  C1  UNL     1       5.145  -8.375   0.428 +0.00 +0.00    +0.084 C  
DOCKED: ATOM     64  S1  UNL     1       6.131  -9.737  -0.233 +0.00 -0.00    -0.164 S  
DOCKED: ENDBRANCH  62  64
DOCKED: ENDBRANCH  61  62
DOCKED: ENDBRANCH  47  61
DOCKED: ENDBRANCH  43  47
DOCKED: ENDBRANCH  42  45
DOCKED: BRANCH  42  65
DOCKED: ATOM     65  C14 UNL     1       7.543  -5.348  -5.306 +0.00 +0.00    +0.028 C  
DOCKED: BRANCH  65  66
DOCKED: ATOM     66  C15 UNL     1       6.022  -5.116  -5.339 +0.00 -0.00    -0.015 C  
DOCKED: ATOM     67  C16 UNL     1       5.418  -5.474  -3.976 +0.00 +0.00    +0.007 C  
DOCKED: ATOM     68  C17 UNL     1       5.323  -5.927  -6.431 +0.00 +0.00    +0.007 C  
DOCKED: ENDBRANCH  65  66
DOCKED: ENDBRANCH  42  65
DOCKED: ENDBRANCH  39  42
DOCKED: ENDBRANCH  38  39
DOCKED: ENDBRANCH   1  38
DOCKED: TORSDOF 30
DOCKED: TER
DOCKED: ENDMDL
________________________________________________________________________________


    FINAL DOCKED STATE:
    ________________________


Run:   3 / 20
Time taken for this run:   4.973s

DOCKED: MODEL        3
DOCKED: USER    Run = 3
DOCKED: USER
DOCKED: USER    Estimated Free Energy of Binding    =  +8.95 kcal/mol  [=(1)+(2)+(3)-(4)]
DOCKED: USER
DOCKED: USER    (1) Final Intermolecular Energy     =  +0.00 kcal/mol
DOCKED: USER        vdW + Hbond + desolv Energy     =  +0.00 kcal/mol
DOCKED: USER        Electrostatic Energy            =  +0.00 kcal/mol
DOCKED: USER        Moving Ligand-Fixed Receptor    =  +0.00 kcal/mol
DOCKED: USER        Moving Ligand-Moving Receptor   =  +0.00 kcal/mol
DOCKED: USER    (2) Final Total Internal Energy     = -23.96 kcal/mol
DOCKED: USER    (3) Torsional Free Energy           =  +8.95 kcal/mol
DOCKED: USER    (4) Unbound System's Energy         = -23.96 kcal/mol
DOCKED: USER
DOCKED: USER
DOCKED: REMARK  Name = ligands/ligand_3.pdb
DOCKED: REMARK  39 active torsions:
DOCKED: REMARK  status: ('A' for Active; 'I' for Inactive)
DOCKED: REMARK    1  A    between atoms: C1_1  and  S1_2
DOCKED: REMARK    2  A    between atoms: S1_2  and  C2_3
DOCKED: REMARK    3  A    between atoms: C2_3  and  C3_4
DOCKED: REMARK    4  A    between atoms: C3_4  and  C4_5
DOCKED: REMARK    5  A    between atoms: C4_5  and  N1_6
DOCKED: REMARK    6  A    between atoms: C4_5  and  C12_17
DOCKED: REMARK    7  A    between atoms: C5_7  and  C6_9
DOCKED: REMARK    8  A    between atoms: C6_9  and  N2_10
DOCKED: REMARK    9  A    between atoms: C6_9  and  C9_14
DOCKED: REMARK   10  A    between atoms: C7_11  and  C8_12
DOCKED: REMARK   11  A    between atoms: C9_14  and  C10_15
DOCKED: REMARK   12  A    between atoms: C9_14  and  C11_16
DOCKED: REMARK   13  A    between atoms: N3_19  and  C13_20
DOCKED: REMARK   14  A    between atoms: C13_20  and  C14_21
DOCKED: REMARK   15  A    between atoms: C13_20  and  C18_25
DOCKED: REMARK   16  A    between atoms: C14_21  and  C15_22
DOCKED: REMARK   17  A    between atoms: C15_22  and  C16_23
DOCKED: REMARK   18  A    between atoms: C15_22  and  C17_24
DOCKED: REMARK   19  A    between atoms: C18_25  and  O4_26
DOCKED: REMARK   20  A    between atoms: C18_25  and  C19_27
DOCKED: REMARK   21  A    between atoms: C19_27  and  C20_28
DOCKED: REMARK   22  A    between atoms: C20_28  and  C21_29
DOCKED: REMARK   23  A    between atoms: C20_28  and  C39_57
DOCKED: REMARK   24  A    between atoms: N4_31  and  C22_32
DOCKED: REMARK   25  A    between atoms: C22_32  and  C23_33
DOCKED: REMARK   26  A    between atoms: C22_32  and  C24_34
DOCKED: REMARK   27  A    between atoms: N5_36  and  C25_37
DOCKED: REMARK   28  A    between atoms: C25_37  and  C26_38
DOCKED: REMARK   29  A    between atoms: C25_37  and  C29_43
DOCKED: REMARK   30  A    between atoms: C26_38  and  C27_39
DOCKED: REMARK   31  A    between atoms: C27_39  and  C28_40
DOCKED: REMARK   32  A    between atoms: C28_40  and  O8_42
DOCKED: REMARK   33  A    between atoms: N6_45  and  C30_46
DOCKED: REMARK   34  A    between atoms: C30_46  and  C31_47
DOCKED: REMARK   35  A    between atoms: C30_46  and  C38_54
DOCKED: REMARK   36  A    between atoms: C31_47  and  C32_48
DOCKED: REMARK   37  A    between atoms: C38_54  and  O11_56
DOCKED: REMARK   38  A    between atoms: C39_57  and  C40_58
DOCKED: REMARK   39  A    between atoms: C39_57  and  C41_59
DOCKED: REMARK                            x       y       z     vdW  Elec       q    Type
DOCKED: REMARK                         _______ _______ _______ _____ _____    ______ ____
DOCKED: USER                              x       y       z     vdW  Elec       q    Type
DOCKED: USER                           _______ _______ _______ _____ _____    ______ ____
DOCKED: ROOT
DOCKED: ATOM      1  C20 UNL     1       1.367  -4.115  -0.148 +0.00 +0.00    +0.080 C  
DOCKED: ENDROOT
DOCKED: BRANCH   1   2
DOCKED: ATOM      2  C21 UNL     1       0.628  -4.737  -1.342 +0.00 +0.00    +0.217 C  
DOCKED: ATOM      3  O5  UNL     1      -0.026  -5.770  -1.262 +0.00 -0.00    -0.275 OA 
DOCKED: ATOM      4  N4  UNL     1       0.796  -4.050  -2.529 +0.00 -0.00    -0.304 N  
DOCKED: ATOM      5  H38 UNL     1       1.609  -3.443  -2.572 +0.00 +0.00    +0.149 HD 
DOCKED: BRANCH   4   6
DOCKED: ATOM      6  C22 UNL     1       0.532  -4.741  -3.791 +0.00 +0.00    +0.156 C  
DOCKED: ATOM      7  C23 UNL     1      -0.765  -4.255  -4.420 +0.00 +0.00    +0.038 C  
DOCKED: BRANCH   6   8
DOCKED: ATOM      8  C24 UNL     1       1.724  -4.422  -4.718 +0.00 +0.00    +0.234 C  
DOCKED: ATOM      9  O6  UNL     1       2.859  -4.224  -4.279 +0.00 -0.00    -0.274 OA 
DOCKED: ATOM     10  N5  UNL     1       1.420  -4.349  -6.054 +0.00 -0.00    -0.302 N  
DOCKED: ATOM     11  H43 UNL     1       0.438  -4.262  -6.322 +0.00 +0.00    +0.150 HD 
DOCKED: BRANCH  10  12
DOCKED: ATOM     12  C25 UNL     1       2.411  -3.937  -7.035 +0.00 +0.00    +0.159 C  
DOCKED: BRANCH  12  13
DOCKED: ATOM     13  C29 UNL     1       3.766  -4.613  -6.742 +0.00 +0.00    +0.234 C  
DOCKED: ATOM     14  O9  UNL     1       4.026  -5.760  -7.098 +0.00 -0.00    -0.274 OA 
DOCKED: ATOM     15  N6  UNL     1       4.616  -3.861  -5.958 +0.00 -0.00    -0.301 N  
DOCKED: ATOM     16  H50 UNL     1       4.234  -3.045  -5.493 +0.00 +0.00    +0.150 HD 
DOCKED: BRANCH  15  17
DOCKED: ATOM     17  C30 UNL     1       5.825  -4.452  -5.377 +0.00 +0.00    +0.186 C  
DOCKED: BRANCH  17  18
DOCKED: ATOM     18  C38 UNL     1       5.827  -4.133  -3.882 +0.00 +0.00    +0.326 C  
DOCKED: ATOM     19  O10 UNL     1       6.140  -4.898  -2.978 +0.00 -0.00    -0.249 OA 
DOCKED: BRANCH  18  20
DOCKED: ATOM     20  O11 UNL     1       5.386  -2.891  -3.601 +0.00 -0.00    -0.479 OA 
DOCKED: ATOM     21  H59 UNL     1       4.408  -2.960  -3.652 +0.00 +0.00    +0.295 HD 
DOCKED: ENDBRANCH  18  20
DOCKED: ENDBRANCH  17  18
DOCKED: BRANCH  17  22
DOCKED: ATOM     22  C31 UNL     1       7.105  -3.877  -6.002 +0.00 +0.00    +0.069 C  
DOCKED: BRANCH  22  23
DOCKED: ATOM     23  C32 UNL     1       7.187  -2.366  -5.927 +0.00 -0.00    -0.045 A  
DOCKED: ATOM     24  C33 UNL     1       7.974  -1.747  -4.947 +0.00 +0.00    +0.004 A  
DOCKED: ATOM     25  C34 UNL     1       8.046  -0.354  -4.883 +0.00 +0.00    +0.000 A  
DOCKED: ATOM     26  C35 UNL     1       7.337   0.429  -5.792 +0.00 +0.00    +0.000 A  
DOCKED: ATOM     27  C36 UNL     1       6.561  -0.178  -6.772 +0.00 +0.00    +0.000 A  
DOCKED: ATOM     28  C37 UNL     1       6.488  -1.568  -6.845 +0.00 +0.00    +0.004 A  
DOCKED: ENDBRANCH  22  23
DOCKED: ENDBRANCH  17  22
DOCKED: ENDBRANCH  15  17
DOCKED: ENDBRANCH  12  13
DOCKED: BRANCH  12  29
DOCKED: ATOM     29  C26 UNL     1       2.542  -2.402  -7.110 +0.00 +0.00    +0.043 C  
DOCKED: BRANCH  29  30
DOCKED: ATOM     30  C27 UNL     1       2.042  -1.600  -5.904 +0.00 +0.00    +0.123 C  
DOCKED: BRANCH  30  31
DOCKED: ATOM     31  C28 UNL     1       3.044  -1.444  -4.787 +0.00 +0.00    +0.305 C  
DOCKED: ATOM     32  O7  UNL     1       4.169  -0.983  -4.861 +0.00 -0.00    -0.251 OA 
DOCKED: BRANCH  31  33
DOCKED: ATOM     33  O8  UNL     1       2.536  -1.832  -3.602 +0.00 -0.00    -0.481 OA 
DOCKED: ATOM     34  H49 UNL     1       3.235  -2.389  -3.201 +0.00 +0.00    +0.295 HD 
DOCKED: ENDBRANCH  31  33
DOCKED: ENDBRANCH  30  31
DOCKED: ENDBRANCH  29  30
DOCKED: ENDBRANCH  12  29
DOCKED: ENDBRANCH  10  12
DOCKED: ENDBRANCH   6   8
DOCKED: ENDBRANCH   4   6
DOCKED: ENDBRANCH   1   2
DOCKED: BRANCH   1  35
DOCKED: ATOM     35  C39 UNL     1       1.456  -2.568  -0.268 +0.00 -0.00    -0.005 C  
DOCKED: ATOM     36  C40 UNL     1       0.075  -1.933  -0.474 +0.00 +0.00    +0.008 C  
DOCKED: ATOM     37  C41 UNL     1       2.177  -1.860   0.878 +0.00 +0.00    +0.008 C  
DOCKED: ENDBRANCH   1  35
DOCKED: BRANCH   1  38
DOCKED: ATOM     38  C19 UNL     1       2.661  -4.872   0.252 +0.00 +0.00    +0.046 C  
DOCKED: BRANCH  38  39
DOCKED: ATOM     39  C18 UNL     1       3.882  -4.721  -0.673 +0.00 +0.00    +0.135 C  
DOCKED: BRANCH  39  40
DOCKED: ATOM     40  O4  UNL     1       3.562  -3.934  -1.824 +0.00 -0.00    -0.390 OA 
DOCKED: ATOM     41  H34 UNL     1       4.146  -4.202  -2.556 +0.00 +0.00    +0.210 HD 
DOCKED: ENDBRANCH  39  40
DOCKED: BRANCH  39  42
DOCKED: ATOM     42  C13 UNL     1       5.138  -4.100   0.022 +0.00 +0.00    +0.102 C  
DOCKED: BRANCH  42  45
DOCKED: ATOM     43  C12 UNL     1       6.705  -2.236  -0.500 +0.00 +0.00    +0.234 C  
DOCKED: ATOM     44  O3  UNL     1       7.196  -2.229   0.626 +0.00 -0.00    -0.274 OA 
DOCKED: ATOM     45  N3  UNL     1       5.656  -3.049  -0.868 +0.00 -0.00    -0.308 N  
DOCKED: ATOM     46  H22 UNL     1       5.473  -3.177  -1.856 +0.00 +0.00    +0.149 HD 
DOCKED: BRANCH  43  47
DOCKED: ATOM     47  C4  UNL     1       7.278  -1.386  -1.652 +0.00 +0.00    +0.160 C  
DOCKED: BRANCH  47  48
DOCKED: ATOM     48  N1  UNL     1       6.513  -0.148  -1.772 +0.00 -0.00    -0.302 N  
DOCKED: ATOM     49  C5  UNL     1       5.153  -0.202  -2.001 +0.00 +0.00    +0.234 C  
DOCKED: ATOM     50  O1  UNL     1       4.557  -1.259  -2.212 +0.00 -0.00    -0.274 OA 
DOCKED: ATOM     51  H9  UNL     1       6.840   0.632  -1.217 +0.00 +0.00    +0.150 HD 
DOCKED: BRANCH  49  52
DOCKED: ATOM     52  C6  UNL     1       4.420   1.163  -1.981 +0.00 +0.00    +0.161 C  
DOCKED: BRANCH  52  53
DOCKED: ATOM     53  N2  UNL     1       3.343   1.053  -2.962 +0.00 -0.00    -0.304 N  
DOCKED: ATOM     54  C7  UNL     1       2.955   2.121  -3.734 +0.00 +0.00    +0.211 C  
DOCKED: ATOM     55  C8  UNL     1       1.962   1.773  -4.811 +0.00 +0.00    +0.109 C  
DOCKED: ATOM     56  O2  UNL     1       3.351   3.269  -3.553 +0.00 -0.00    -0.276 OA 
DOCKED: ATOM     57  H11 UNL     1       3.152   0.114  -3.297 +0.00 +0.00    +0.149 HD 
DOCKED: ENDBRANCH  52  53
DOCKED: BRANCH  52  58
DOCKED: ATOM     58  C9  UNL     1       3.928   1.524  -0.554 +0.00 +0.00    +0.012 C  
DOCKED: ATOM     59  C10 UNL     1       2.402   1.376  -0.462 +0.00 +0.00    +0.009 C  
DOCKED: ATOM     60  C11 UNL     1       4.571   0.707   0.575 +0.00 +0.00    +0.009 C  
DOCKED: ENDBRANCH  52  58
DOCKED: ENDBRANCH  49  52
DOCKED: ENDBRANCH  47  48
DOCKED: BRANCH  47  61
DOCKED: ATOM     61  C3  UNL     1       8.774  -1.112  -1.438 +0.00 +0.00    +0.042 C  
DOCKED: BRANCH  61  62
DOCKED: ATOM     62  C2  UNL     1       9.600  -2.374  -1.170 +0.00 +0.00    +0.071 C  
DOCKED: BRANCH  62  64
DOCKED: ATOM     63  C1  UNL     1       8.692  -4.965  -1.139 +0.00 +0.00    +0.084 C  
DOCKED: ATOM     64  S1  UNL     1       9.130  -3.687  -2.338 +0.00 -0.00    -0.164 S  
DOCKED: ENDBRANCH  62  64
DOCKED: ENDBRANCH  61  62
DOCKED: ENDBRANCH  47  61
DOCKED: ENDBRANCH  43  47
DOCKED: ENDBRANCH  42  45
DOCKED: BRANCH  42  65
DOCKED: ATOM     65  C14 UNL     1       4.908  -3.443   1.401 +0.00 +0.00    +0.028 C  
DOCKED: BRANCH  65  66
DOCKED: ATOM     66  C15 UNL     1       5.613  -4.072   2.616 +0.00 -0.00    -0.015 C  
DOCKED: ATOM     67  C16 UNL     1       6.156  -2.963   3.526 +0.00 +0.00    +0.007 C  
DOCKED: ATOM     68  C17 UNL     1       6.757  -5.006   2.219 +0.00 +0.00    +0.007 C  
DOCKED: ENDBRANCH  65  66
DOCKED: ENDBRANCH  42  65
DOCKED: ENDBRANCH  39  42
DOCKED: ENDBRANCH  38  39
DOCKED: ENDBRANCH   1  38
DOCKED: TORSDOF 30
DOCKED: TER
DOCKED: ENDMDL
________________________________________________________________________________


    FINAL DOCKED STATE:
    ________________________


Run:   4 / 20
Time taken for this run:   4.973s

DOCKED: MODEL        4
DOCKED: USER    Run = 4
DOCKED: USER
DOCKED: USER    Estimated Free Energy of Binding    =  +8.95 kcal/mol  [=(1)+(2)+(3)-(4)]
DOCKED: USER
DOCKED: USER    (1) Final Intermolecular Energy     =  +0.00 kcal/mol
DOCKED: USER        vdW + Hbond + desolv Energy     =  +0.00 kcal/mol
DOCKED: USER        Electrostatic Energy            =  +0.00 kcal/mol
DOCKED: USER        Moving Ligand-Fixed Receptor    =  +0.00 kcal/mol
DOCKED: USER        Moving Ligand-Moving Receptor   =  +0.00 kcal/mol
DOCKED: USER    (2) Final Total Internal Energy     = -23.84 kcal/mol
DOCKED: USER    (3) Torsional Free Energy           =  +8.95 kcal/mol
DOCKED: USER    (4) Unbound System's Energy         = -23.84 kcal/mol
DOCKED: USER
DOCKED: USER
DOCKED: REMARK  Name = ligands/ligand_3.pdb
DOCKED: REMARK  39 active torsions:
DOCKED: REMARK  status: ('A' for Active; 'I' for Inactive)
DOCKED: REMARK    1  A    between atoms: C1_1  and  S1_2
DOCKED: REMARK    2  A    between atoms: S1_2  and  C2_3
DOCKED: REMARK    3  A    between atoms: C2_3  and  C3_4
DOCKED: REMARK    4  A    between atoms: C3_4  and  C4_5
DOCKED: REMARK    5  A    between atoms: C4_5  and  N1_6
DOCKED: REMARK    6  A    between atoms: C4_5  and  C12_17
DOCKED: REMARK    7  A    between atoms: C5_7  and  C6_9
DOCKED: REMARK    8  A    between atoms: C6_9  and  N2_10
DOCKED: REMARK    9  A    between atoms: C6_9  and  C9_14
DOCKED: REMARK   10  A    between atoms: C7_11  and  C8_12
DOCKED: REMARK   11  A    between atoms: C9_14  and  C10_15
DOCKED: REMARK   12  A    between atoms: C9_14  and  C11_16
DOCKED: REMARK   13  A    between atoms: N3_19  and  C13_20
DOCKED: REMARK   14  A    between atoms: C13_20  and  C14_21
DOCKED: REMARK   15  A    between atoms: C13_20  and  C18_25
DOCKED: REMARK   16  A    between atoms: C14_21  and  C15_22
DOCKED: REMARK   17  A    between atoms: C15_22  and  C16_23
DOCKED: REMARK   18  A    between atoms: C15_22  and  C17_24
DOCKED: REMARK   19  A    between atoms: C18_25  and  O4_26
DOCKED: REMARK   20  A    between atoms: C18_25  and  C19_27
DOCKED: REMARK   21  A    between atoms: C19_27  and  C20_28
DOCKED: REMARK   22  A    between atoms: C20_28  and  C21_29
DOCKED: REMARK   23  A    between atoms: C20_28  and  C39_57
DOCKED: REMARK   24  A    between atoms: N4_31  and  C22_32
DOCKED: REMARK   25  A    between atoms: C22_32  and  C23_33
DOCKED: REMARK   26  A    between atoms: C22_32  and  C24_34
DOCKED: REMARK   27  A    between atoms: N5_36  and  C25_37
DOCKED: REMARK   28  A    between atoms: C25_37  and  C26_38
DOCKED: REMARK   29  A    between atoms: C25_37  and  C29_43
DOCKED: REMARK   30  A    between atoms: C26_38  and  C27_39
DOCKED: REMARK   31  A    between atoms: C27_39  and  C28_40
DOCKED: REMARK   32  A    between atoms: C28_40  and  O8_42
DOCKED: REMARK   33  A    between atoms: N6_45  and  C30_46
DOCKED: REMARK   34  A    between atoms: C30_46  and  C31_47
DOCKED: REMARK   35  A    between atoms: C30_46  and  C38_54
DOCKED: REMARK   36  A    between atoms: C31_47  and  C32_48
DOCKED: REMARK   37  A    between atoms: C38_54  and  O11_56
DOCKED: REMARK   38  A    between atoms: C39_57  and  C40_58
DOCKED: REMARK   39  A    between atoms: C39_57  and  C41_59
DOCKED: REMARK                            x       y       z     vdW  Elec       q    Type
DOCKED: REMARK                         _______ _______ _______ _____ _____    ______ ____
DOCKED: USER                              x       y       z     vdW  Elec       q    Type
DOCKED: USER                           _______ _______ _______ _____ _____    ______ ____
DOCKED: ROOT
DOCKED: ATOM      1  C20 UNL     1       6.572  -6.590   5.995 +0.00 +0.00    +0.080 C  
DOCKED: ENDROOT
DOCKED: BRANCH   1   2
DOCKED: ATOM      2  C21 UNL     1       6.005  -7.327   4.773 +0.00 +0.00    +0.217 C  
DOCKED: ATOM      3  O5  UNL     1       6.422  -8.415   4.392 +0.00 -0.00    -0.275 OA 
DOCKED: ATOM      4  N4  UNL     1       5.006  -6.638   4.112 +0.00 -0.00    -0.304 N  
DOCKED: ATOM      5  H38 UNL     1       4.982  -5.636   4.278 +0.00 +0.00    +0.149 HD 
DOCKED: BRANCH   4   6
DOCKED: ATOM      6  C22 UNL     1       4.694  -6.995   2.729 +0.00 +0.00    +0.156 C  
DOCKED: ATOM      7  C23 UNL     1       3.423  -7.829   2.652 +0.00 +0.00    +0.038 C  
DOCKED: BRANCH   6   8
DOCKED: ATOM      8  C24 UNL     1       4.503  -5.666   1.970 +0.00 +0.00    +0.234 C  
DOCKED: ATOM      9  O6  UNL     1       5.082  -4.631   2.307 +0.00 -0.00    -0.274 OA 
DOCKED: ATOM     10  N5  UNL     1       3.626  -5.717   0.915 +0.00 -0.00    -0.302 N  
DOCKED: ATOM     11  H43 UNL     1       2.993  -6.517   0.852 +0.00 +0.00    +0.150 HD 
DOCKED: BRANCH  10  12
DOCKED: ATOM     12  C25 UNL     1       3.251  -4.518   0.183 +0.00 +0.00    +0.159 C  
DOCKED: BRANCH  12  13
DOCKED: ATOM     13  C29 UNL     1       4.500  -3.667  -0.124 +0.00 +0.00    +0.234 C  
DOCKED: ATOM     14  O9  UNL     1       5.252  -3.908  -1.066 +0.00 -0.00    -0.274 OA 
DOCKED: ATOM     15  N6  UNL     1       4.757  -2.682   0.807 +0.00 -0.00    -0.301 N  
DOCKED: ATOM     16  H50 UNL     1       4.246  -2.713   1.682 +0.00 +0.00    +0.150 HD 
DOCKED: BRANCH  15  17
DOCKED: ATOM     17  C30 UNL     1       6.032  -1.959   0.806 +0.00 +0.00    +0.186 C  
DOCKED: BRANCH  17  18
DOCKED: ATOM     18  C38 UNL     1       6.631  -2.072   2.209 +0.00 +0.00    +0.326 C  
DOCKED: ATOM     19  O10 UNL     1       7.823  -2.137   2.484 +0.00 -0.00    -0.249 OA 
DOCKED: BRANCH  18  20
DOCKED: ATOM     20  O11 UNL     1       5.701  -2.150   3.181 +0.00 -0.00    -0.479 OA 
DOCKED: ATOM     21  H59 UNL     1       5.225  -2.989   2.999 +0.00 +0.00    +0.295 HD 
DOCKED: ENDBRANCH  18  20
DOCKED: ENDBRANCH  17  18
DOCKED: BRANCH  17  22
DOCKED: ATOM     22  C31 UNL     1       5.851  -0.471   0.470 +0.00 +0.00    +0.069 C  
DOCKED: BRANCH  22  23
DOCKED: ATOM     23  C32 UNL     1       4.719   0.186   1.231 +0.00 -0.00    -0.045 A  
DOCKED: ATOM     24  C33 UNL     1       4.991   1.107   2.251 +0.00 +0.00    +0.004 A  
DOCKED: ATOM     25  C34 UNL     1       3.943   1.710   2.949 +0.00 +0.00    +0.000 A  
DOCKED: ATOM     26  C35 UNL     1       2.621   1.402   2.636 +0.00 +0.00    +0.000 A  
DOCKED: ATOM     27  C36 UNL     1       2.342   0.496   1.620 +0.00 +0.00    +0.000 A  
DOCKED: ATOM     28  C37 UNL     1       3.383  -0.106   0.916 +0.00 +0.00    +0.004 A  
DOCKED: ENDBRANCH  22  23
DOCKED: ENDBRANCH  17  22
DOCKED: ENDBRANCH  15  17
DOCKED: ENDBRANCH  12  13
DOCKED: BRANCH  12  29
DOCKED: ATOM     29  C26 UNL     1       2.173  -3.704   0.926 +0.00 +0.00    +0.043 C  
DOCKED: BRANCH  29  30
DOCKED: ATOM     30  C27 UNL     1       2.033  -3.945   2.434 +0.00 +0.00    +0.123 C  
DOCKED: BRANCH  30  31
DOCKED: ATOM     31  C28 UNL     1       3.007  -3.177   3.291 +0.00 +0.00    +0.305 C  
DOCKED: ATOM     32  O7  UNL     1       3.220  -1.978   3.278 +0.00 -0.00    -0.251 OA 
DOCKED: BRANCH  31  33
DOCKED: ATOM     33  O8  UNL     1       3.630  -3.976   4.178 +0.00 -0.00    -0.481 OA 
DOCKED: ATOM     34  H49 UNL     1       4.528  -3.594   4.271 +0.00 +0.00    +0.295 HD 
DOCKED: ENDBRANCH  31  33
DOCKED: ENDBRANCH  30  31
DOCKED: ENDBRANCH  29  30
DOCKED: ENDBRANCH  12  29
DOCKED: ENDBRANCH  10  12
DOCKED: ENDBRANCH   6   8
DOCKED: ENDBRANCH   4   6
DOCKED: ENDBRANCH   1   2
DOCKED: BRANCH   1  35
DOCKED: ATOM     35  C39 UNL     1       5.444  -6.058   6.922 +0.00 -0.00    -0.005 C  
DOCKED: ATOM     36  C40 UNL     1       4.279  -7.051   7.028 +0.00 +0.00    +0.008 C  
DOCKED: ATOM     37  C41 UNL     1       5.886  -5.637   8.322 +0.00 +0.00    +0.008 C  
DOCKED: ENDBRANCH   1  35
DOCKED: BRANCH   1  38
DOCKED: ATOM     38  C19 UNL     1       7.733  -5.617   5.658 +0.00 +0.00    +0.046 C  
DOCKED: BRANCH  38  39
DOCKED: ATOM     39  C18 UNL     1       7.404  -4.411   4.760 +0.00 +0.00    +0.135 C  
DOCKED: BRANCH  39  40
DOCKED: ATOM     40  O4  UNL     1       5.990  -4.219   4.652 +0.00 -0.00    -0.390 OA 
DOCKED: ATOM     41  H34 UNL     1       5.752  -4.192   3.708 +0.00 +0.00    +0.210 HD 
DOCKED: ENDBRANCH  39  40
DOCKED: BRANCH  39  42
DOCKED: ATOM     42  C13 UNL     1       8.055  -3.069   5.229 +0.00 +0.00    +0.102 C  
DOCKED: BRANCH  42  45
DOCKED: ATOM     43  C12 UNL     1       7.150  -0.749   5.168 +0.00 +0.00    +0.234 C  
DOCKED: ATOM     44  O3  UNL     1       8.242  -0.245   4.922 +0.00 -0.00    -0.274 OA 
DOCKED: ATOM     45  N3  UNL     1       6.969  -2.093   5.407 +0.00 -0.00    -0.308 N  
DOCKED: ATOM     46  H22 UNL     1       6.027  -2.466   5.357 +0.00 +0.00    +0.149 HD 
DOCKED: BRANCH  43  47
DOCKED: ATOM     47  C4  UNL     1       5.844   0.070   5.148 +0.00 +0.00    +0.160 C  
DOCKED: BRANCH  47  48
DOCKED: ATOM     48  N1  UNL     1       4.709  -0.817   5.394 +0.00 -0.00    -0.302 N  
DOCKED: ATOM     49  C5  UNL     1       3.473  -0.281   5.694 +0.00 +0.00    +0.234 C  
DOCKED: ATOM     50  O1  UNL     1       3.297   0.926   5.868 +0.00 -0.00    -0.274 OA 
DOCKED: ATOM     51  H9  UNL     1       4.703  -1.685   4.874 +0.00 +0.00    +0.150 HD 
DOCKED: BRANCH  49  52
DOCKED: ATOM     52  C6  UNL     1       2.314  -1.303   5.807 +0.00 +0.00    +0.161 C  
DOCKED: BRANCH  52  53
DOCKED: ATOM     53  N2  UNL     1       2.516  -1.999   7.075 +0.00 -0.00    -0.304 N  
DOCKED: ATOM     54  C7  UNL     1       3.582  -2.841   7.276 +0.00 +0.00    +0.211 C  
DOCKED: ATOM     55  C8  UNL     1       3.726  -3.322   8.696 +0.00 +0.00    +0.109 C  
DOCKED: ATOM     56  O2  UNL     1       4.340  -3.203   6.382 +0.00 -0.00    -0.276 OA 
DOCKED: ATOM     57  H11 UNL     1       2.069  -1.575   7.882 +0.00 +0.00    +0.149 HD 
DOCKED: ENDBRANCH  52  53
DOCKED: BRANCH  52  58
DOCKED: ATOM     58  C9  UNL     1       0.930  -0.609   5.691 +0.00 +0.00    +0.012 C  
DOCKED: ATOM     59  C10 UNL     1       0.375  -0.761   4.267 +0.00 +0.00    +0.009 C  
DOCKED: ATOM     60  C11 UNL     1      -0.126  -1.105   6.687 +0.00 +0.00    +0.009 C  
DOCKED: ENDBRANCH  52  58
DOCKED: ENDBRANCH  49  52
DOCKED: ENDBRANCH  47  48
DOCKED: BRANCH  47  61
DOCKED: ATOM     61  C3  UNL     1       5.900   1.216   6.169 +0.00 +0.00    +0.042 C  
DOCKED: BRANCH  61  62
DOCKED: ATOM     62  C2  UNL     1       6.642   0.855   7.460 +0.00 +0.00    +0.071 C  
DOCKED: BRANCH  62  64
DOCKED: ATOM     63  C1  UNL     1       4.325   0.910   8.933 +0.00 +0.00    +0.084 C  
DOCKED: ATOM     64  S1  UNL     1       5.623  -0.260   8.474 +0.00 -0.00    -0.164 S  
DOCKED: ENDBRANCH  62  64
DOCKED: ENDBRANCH  61  62
DOCKED: ENDBRANCH  47  61
DOCKED: ENDBRANCH  43  47
DOCKED: ENDBRANCH  42  45
DOCKED: BRANCH  42  65
DOCKED: ATOM     65  C14 UNL     1       8.840  -3.110   6.559 +0.00 +0.00    +0.028 C  
DOCKED: BRANCH  65  66
DOCKED: ATOM     66  C15 UNL     1       8.343  -2.215   7.708 +0.00 -0.00    -0.015 C  
DOCKED: ATOM     67  C16 UNL     1       9.386  -1.131   8.002 +0.00 +0.00    +0.007 C  
DOCKED: ATOM     68  C17 UNL     1       8.053  -3.000   8.988 +0.00 +0.00    +0.007 C  
DOCKED: ENDBRANCH  65  66
DOCKED: ENDBRANCH  42  65
DOCKED: ENDBRANCH  39  42
DOCKED: ENDBRANCH  38  39
DOCKED: ENDBRANCH   1  38
DOCKED: TORSDOF 30
DOCKED: TER
DOCKED: ENDMDL
________________________________________________________________________________


    FINAL DOCKED STATE:
    ________________________


Run:   5 / 20
Time taken for this run:   4.973s

DOCKED: MODEL        5
DOCKED: USER    Run = 5
DOCKED: USER
DOCKED: USER    Estimated Free Energy of Binding    =  +8.95 kcal/mol  [=(1)+(2)+(3)-(4)]
DOCKED: USER
DOCKED: USER    (1) Final Intermolecular Energy     =  +0.00 kcal/mol
DOCKED: USER        vdW + Hbond + desolv Energy     =  +0.00 kcal/mol
DOCKED: USER        Electrostatic Energy            =  +0.00 kcal/mol
DOCKED: USER        Moving Ligand-Fixed Receptor    =  +0.00 kcal/mol
DOCKED: USER        Moving Ligand-Moving Receptor   =  +0.00 kcal/mol
DOCKED: USER    (2) Final Total Internal Energy     = -23.52 kcal/mol
DOCKED: USER    (3) Torsional Free Energy           =  +8.95 kcal/mol
DOCKED: USER    (4) Unbound System's Energy         = -23.52 kcal/mol
DOCKED: USER
DOCKED: USER
DOCKED: REMARK  Name = ligands/ligand_3.pdb
DOCKED: REMARK  39 active torsions:
DOCKED: REMARK  status: ('A' for Active; 'I' for Inactive)
DOCKED: REMARK    1  A    between atoms: C1_1  and  S1_2
DOCKED: REMARK    2  A    between atoms: S1_2  and  C2_3
DOCKED: REMARK    3  A    between atoms: C2_3  and  C3_4
DOCKED: REMARK    4  A    between atoms: C3_4  and  C4_5
DOCKED: REMARK    5  A    between atoms: C4_5  and  N1_6
DOCKED: REMARK    6  A    between atoms: C4_5  and  C12_17
DOCKED: REMARK    7  A    between atoms: C5_7  and  C6_9
DOCKED: REMARK    8  A    between atoms: C6_9  and  N2_10
DOCKED: REMARK    9  A    between atoms: C6_9  and  C9_14
DOCKED: REMARK   10  A    between atoms: C7_11  and  C8_12
DOCKED: REMARK   11  A    between atoms: C9_14  and  C10_15
DOCKED: REMARK   12  A    between atoms: C9_14  and  C11_16
DOCKED: REMARK   13  A    between atoms: N3_19  and  C13_20
DOCKED: REMARK   14  A    between atoms: C13_20  and  C14_21
DOCKED: REMARK   15  A    between atoms: C13_20  and  C18_25
DOCKED: REMARK   16  A    between atoms: C14_21  and  C15_22
DOCKED: REMARK   17  A    between atoms: C15_22  and  C16_23
DOCKED: REMARK   18  A    between atoms: C15_22  and  C17_24
DOCKED: REMARK   19  A    between atoms: C18_25  and  O4_26
DOCKED: REMARK   20  A    between atoms: C18_25  and  C19_27
DOCKED: REMARK   21  A    between atoms: C19_27  and  C20_28
DOCKED: REMARK   22  A    between atoms: C20_28  and  C21_29
DOCKED: REMARK   23  A    between atoms: C20_28  and  C39_57
DOCKED: REMARK   24  A    between atoms: N4_31  and  C22_32
DOCKED: REMARK   25  A    between atoms: C22_32  and  C23_33
DOCKED: REMARK   26  A    between atoms: C22_32  and  C24_34
DOCKED: REMARK   27  A    between atoms: N5_36  and  C25_37
DOCKED: REMARK   28  A    between atoms: C25_37  and  C26_38
DOCKED: REMARK   29  A    between atoms: C25_37  and  C29_43
DOCKED: REMARK   30  A    between atoms: C26_38  and  C27_39
DOCKED: REMARK   31  A    between atoms: C27_39  and  C28_40
DOCKED: REMARK   32  A    between atoms: C28_40  and  O8_42
DOCKED: REMARK   33  A    between atoms: N6_45  and  C30_46
DOCKED: REMARK   34  A    between atoms: C30_46  and  C31_47
DOCKED: REMARK   35  A    between atoms: C30_46  and  C38_54
DOCKED: REMARK   36  A    between atoms: C31_47  and  C32_48
DOCKED: REMARK   37  A    between atoms: C38_54  and  O11_56
DOCKED: REMARK   38  A    between atoms: C39_57  and  C40_58
DOCKED: REMARK   39  A    between atoms: C39_57  and  C41_59
DOCKED: REMARK                            x       y       z     vdW  Elec       q    Type
DOCKED: REMARK                         _______ _______ _______ _____ _____    ______ ____
DOCKED: USER                              x       y       z     vdW  Elec       q    Type
DOCKED: USER                           _______ _______ _______ _____ _____    ______ ____
DOCKED: ROOT
DOCKED: ATOM      1  C20 UNL     1      11.166  -5.397  -2.991 +0.00 +0.00    +0.080 C  
DOCKED: ENDROOT
DOCKED: BRANCH   1   2
DOCKED: ATOM      2  C21 UNL     1      10.246  -6.060  -4.027 +0.00 +0.00    +0.217 C  
DOCKED: ATOM      3  O5  UNL     1       9.436  -5.435  -4.703 +0.00 -0.00    -0.275 OA 
DOCKED: ATOM      4  N4  UNL     1      10.381  -7.433  -4.105 +0.00 -0.00    -0.304 N  
DOCKED: ATOM      5  H38 UNL     1      10.793  -7.878  -3.291 +0.00 +0.00    +0.149 HD 
DOCKED: BRANCH   4   6
DOCKED: ATOM      6  C22 UNL     1       9.301  -8.219  -4.700 +0.00 +0.00    +0.156 C  
DOCKED: ATOM      7  C23 UNL     1       9.628  -8.600  -6.136 +0.00 +0.00    +0.038 C  
DOCKED: BRANCH   6   8
DOCKED: ATOM      8  C24 UNL     1       9.158  -9.487  -3.833 +0.00 +0.00    +0.234 C  
DOCKED: ATOM      9  O6  UNL     1       9.197  -9.446  -2.602 +0.00 -0.00    -0.274 OA 
DOCKED: ATOM     10  N5  UNL     1       9.015 -10.659  -4.533 +0.00 -0.00    -0.302 N  
DOCKED: ATOM     11  H43 UNL     1       9.252 -10.660  -5.528 +0.00 +0.00    +0.150 HD 
DOCKED: BRANCH  10  12
DOCKED: ATOM     12  C25 UNL     1       8.993 -11.947  -3.859 +0.00 +0.00    +0.159 C  
DOCKED: BRANCH  12  13
DOCKED: ATOM     13  C29 UNL     1       7.986 -11.922  -2.692 +0.00 +0.00    +0.234 C  
DOCKED: ATOM     14  O9  UNL     1       6.777 -12.078  -2.856 +0.00 -0.00    -0.274 OA 
DOCKED: ATOM     15  N6  UNL     1       8.541 -11.606  -1.470 +0.00 -0.00    -0.301 N  
DOCKED: ATOM     16  H50 UNL     1       9.487 -11.240  -1.460 +0.00 +0.00    +0.150 HD 
DOCKED: BRANCH  15  17
DOCKED: ATOM     17  C30 UNL     1       7.694 -11.289  -0.316 +0.00 +0.00    +0.186 C  
DOCKED: BRANCH  17  18
DOCKED: ATOM     18  C38 UNL     1       8.126  -9.922   0.216 +0.00 +0.00    +0.326 C  
DOCKED: ATOM     19  O10 UNL     1       7.409  -9.107   0.783 +0.00 -0.00    -0.249 OA 
DOCKED: BRANCH  18  20
DOCKED: ATOM     20  O11 UNL     1       9.418  -9.635  -0.038 +0.00 -0.00    -0.479 OA 
DOCKED: ATOM     21  H59 UNL     1       9.437  -9.418  -0.995 +0.00 +0.00    +0.295 HD 
DOCKED: ENDBRANCH  18  20
DOCKED: ENDBRANCH  17  18
DOCKED: BRANCH  17  22
DOCKED: ATOM     22  C31 UNL     1       7.843 -12.323   0.810 +0.00 +0.00    +0.069 C  
DOCKED: BRANCH  22  23
DOCKED: ATOM     23  C32 UNL     1       9.273 -12.504   1.276 +0.00 -0.00    -0.045 A  
DOCKED: ATOM     24  C33 UNL     1       9.650 -12.124   2.571 +0.00 +0.00    +0.004 A  
DOCKED: ATOM     25  C34 UNL     1      10.969 -12.294   2.996 +0.00 +0.00    +0.000 A  
DOCKED: ATOM     26  C35 UNL     1      11.919 -12.843   2.137 +0.00 +0.00    +0.000 A  
DOCKED: ATOM     27  C36 UNL     1      11.551 -13.230   0.854 +0.00 +0.00    +0.000 A  
DOCKED: ATOM     28  C37 UNL     1      10.235 -13.068   0.425 +0.00 +0.00    +0.004 A  
DOCKED: ENDBRANCH  22  23
DOCKED: ENDBRANCH  17  22
DOCKED: ENDBRANCH  15  17
DOCKED: ENDBRANCH  12  13
DOCKED: BRANCH  12  29
DOCKED: ATOM     29  C26 UNL     1      10.399 -12.374  -3.390 +0.00 +0.00    +0.043 C  
DOCKED: BRANCH  29  30
DOCKED: ATOM     30  C27 UNL     1      11.553 -11.405  -3.671 +0.00 +0.00    +0.123 C  
DOCKED: BRANCH  30  31
DOCKED: ATOM     31  C28 UNL     1      11.756 -10.341  -2.622 +0.00 +0.00    +0.305 C  
DOCKED: ATOM     32  O7  UNL     1      12.327  -9.273  -2.751 +0.00 -0.00    -0.251 OA 
DOCKED: BRANCH  31  33
DOCKED: ATOM     33  O8  UNL     1      11.160 -10.665  -1.458 +0.00 -0.00    -0.481 OA 
DOCKED: ATOM     34  H49 UNL     1      10.818  -9.817  -1.108 +0.00 +0.00    +0.295 HD 
DOCKED: ENDBRANCH  31  33
DOCKED: ENDBRANCH  30  31
DOCKED: ENDBRANCH  29  30
DOCKED: ENDBRANCH  12  29
DOCKED: ENDBRANCH  10  12
DOCKED: ENDBRANCH   6   8
DOCKED: ENDBRANCH   4   6
DOCKED: ENDBRANCH   1   2
DOCKED: BRANCH   1  35
DOCKED: ATOM     35  C39 UNL     1      12.650  -5.810  -3.192 +0.00 -0.00    -0.005 C  
DOCKED: ATOM     36  C40 UNL     1      13.044  -5.815  -4.674 +0.00 +0.00    +0.008 C  
DOCKED: ATOM     37  C41 UNL     1      13.672  -5.000  -2.395 +0.00 +0.00    +0.008 C  
DOCKED: ENDBRANCH   1  35
DOCKED: BRANCH   1  38
DOCKED: ATOM     38  C19 UNL     1      10.608  -5.431  -1.544 +0.00 +0.00    +0.046 C  
DOCKED: BRANCH  38  39
DOCKED: ATOM     39  C18 UNL     1       9.973  -6.749  -1.063 +0.00 +0.00    +0.135 C  
DOCKED: BRANCH  39  40
DOCKED: ATOM     40  O4  UNL     1      10.913  -7.825  -1.121 +0.00 -0.00    -0.390 OA 
DOCKED: ATOM     41  H34 UNL     1      10.510  -8.564  -1.611 +0.00 +0.00    +0.210 HD 
DOCKED: ENDBRANCH  39  40
DOCKED: BRANCH  39  42
DOCKED: ATOM     42  C13 UNL     1       9.379  -6.682   0.381 +0.00 +0.00    +0.102 C  
DOCKED: BRANCH  42  45
DOCKED: ATOM     43  C12 UNL     1       9.872  -7.817   2.543 +0.00 +0.00    +0.234 C  
DOCKED: ATOM     44  O3  UNL     1       8.935  -7.282   3.128 +0.00 -0.00    -0.274 OA 
DOCKED: ATOM     45  N3  UNL     1      10.214  -7.537   1.239 +0.00 -0.00    -0.308 N  
DOCKED: ATOM     46  H22 UNL     1      10.828  -8.183   0.755 +0.00 +0.00    +0.149 HD 
DOCKED: BRANCH  43  47
DOCKED: ATOM     47  C4  UNL     1      10.716  -8.933   3.191 +0.00 +0.00    +0.160 C  
DOCKED: BRANCH  47  48
DOCKED: ATOM     48  N1  UNL     1      12.091  -8.851   2.703 +0.00 -0.00    -0.302 N  
DOCKED: ATOM     49  C5  UNL     1      12.428  -9.441   1.502 +0.00 +0.00    +0.234 C  
DOCKED: ATOM     50  O1  UNL     1      11.638 -10.132   0.856 +0.00 -0.00    -0.274 OA 
DOCKED: ATOM     51  H9  UNL     1      12.597  -8.008   2.942 +0.00 +0.00    +0.150 HD 
DOCKED: BRANCH  49  52
DOCKED: ATOM     52  C6  UNL     1      13.877  -9.182   1.016 +0.00 +0.00    +0.161 C  
DOCKED: BRANCH  52  53
DOCKED: ATOM     53  N2  UNL     1      13.955  -9.746  -0.329 +0.00 -0.00    -0.304 N  
DOCKED: ATOM     54  C7  UNL     1      15.033 -10.490  -0.740 +0.00 +0.00    +0.211 C  
DOCKED: ATOM     55  C8  UNL     1      14.855 -11.139  -2.087 +0.00 +0.00    +0.109 C  
DOCKED: ATOM     56  O2  UNL     1      16.069 -10.601  -0.092 +0.00 -0.00    -0.276 OA 
DOCKED: ATOM     57  H11 UNL     1      13.064  -9.873  -0.801 +0.00 +0.00    +0.149 HD 
DOCKED: ENDBRANCH  52  53
DOCKED: BRANCH  52  58
DOCKED: ATOM     58  C9  UNL     1      14.237  -7.674   1.081 +0.00 +0.00    +0.012 C  
DOCKED: ATOM     59  C10 UNL     1      15.595  -7.420   0.410 +0.00 +0.00    +0.009 C  
DOCKED: ATOM     60  C11 UNL     1      13.196  -6.735   0.457 +0.00 +0.00    +0.009 C  
DOCKED: ENDBRANCH  52  58
DOCKED: ENDBRANCH  49  52
DOCKED: ENDBRANCH  47  48
DOCKED: BRANCH  47  61
DOCKED: ATOM     61  C3  UNL     1      10.651  -8.849   4.723 +0.00 +0.00    +0.042 C  
DOCKED: BRANCH  61  62
DOCKED: ATOM     62  C2  UNL     1      11.929  -8.297   5.364 +0.00 +0.00    +0.071 C  
DOCKED: BRANCH  62  64
DOCKED: ATOM     63  C1  UNL     1      13.718  -6.442   4.418 +0.00 +0.00    +0.084 C  
DOCKED: ATOM     64  S1  UNL     1      12.041  -6.503   5.086 +0.00 -0.00    -0.164 S  
DOCKED: ENDBRANCH  62  64
DOCKED: ENDBRANCH  61  62
DOCKED: ENDBRANCH  47  61
DOCKED: ENDBRANCH  43  47
DOCKED: ENDBRANCH  42  45
DOCKED: BRANCH  42  65
DOCKED: ATOM     65  C14 UNL     1       9.337  -5.288   1.047 +0.00 +0.00    +0.028 C  
DOCKED: BRANCH  65  66
DOCKED: ATOM     66  C15 UNL     1      10.579  -4.839   1.838 +0.00 -0.00    -0.015 C  
DOCKED: ATOM     67  C16 UNL     1      10.151  -4.332   3.219 +0.00 +0.00    +0.007 C  
DOCKED: ATOM     68  C17 UNL     1      11.375  -3.748   1.121 +0.00 +0.00    +0.007 C  
DOCKED: ENDBRANCH  65  66
DOCKED: ENDBRANCH  42  65
DOCKED: ENDBRANCH  39  42
DOCKED: ENDBRANCH  38  39
DOCKED: ENDBRANCH   1  38
DOCKED: TORSDOF 30
DOCKED: TER
DOCKED: ENDMDL
________________________________________________________________________________


    FINAL DOCKED STATE:
    ________________________


Run:   6 / 20
Time taken for this run:   4.973s

DOCKED: MODEL        6
DOCKED: USER    Run = 6
DOCKED: USER
DOCKED: USER    Estimated Free Energy of Binding    =  +8.95 kcal/mol  [=(1)+(2)+(3)-(4)]
DOCKED: USER
DOCKED: USER    (1) Final Intermolecular Energy     =  +0.00 kcal/mol
DOCKED: USER        vdW + Hbond + desolv Energy     =  +0.00 kcal/mol
DOCKED: USER        Electrostatic Energy            =  +0.00 kcal/mol
DOCKED: USER        Moving Ligand-Fixed Receptor    =  +0.00 kcal/mol
DOCKED: USER        Moving Ligand-Moving Receptor   =  +0.00 kcal/mol
DOCKED: USER    (2) Final Total Internal Energy     = -23.60 kcal/mol
DOCKED: USER    (3) Torsional Free Energy           =  +8.95 kcal/mol
DOCKED: USER    (4) Unbound System's Energy         = -23.60 kcal/mol
DOCKED: USER
DOCKED: USER
DOCKED: REMARK  Name = ligands/ligand_3.pdb
DOCKED: REMARK  39 active torsions:
DOCKED: REMARK  status: ('A' for Active; 'I' for Inactive)
DOCKED: REMARK    1  A    between atoms: C1_1  and  S1_2
DOCKED: REMARK    2  A    between atoms: S1_2  and  C2_3
DOCKED: REMARK    3  A    between atoms: C2_3  and  C3_4
DOCKED: REMARK    4  A    between atoms: C3_4  and  C4_5
DOCKED: REMARK    5  A    between atoms: C4_5  and  N1_6
DOCKED: REMARK    6  A    between atoms: C4_5  and  C12_17
DOCKED: REMARK    7  A    between atoms: C5_7  and  C6_9
DOCKED: REMARK    8  A    between atoms: C6_9  and  N2_10
DOCKED: REMARK    9  A    between atoms: C6_9  and  C9_14
DOCKED: REMARK   10  A    between atoms: C7_11  and  C8_12
DOCKED: REMARK   11  A    between atoms: C9_14  and  C10_15
DOCKED: REMARK   12  A    between atoms: C9_14  and  C11_16
DOCKED: REMARK   13  A    between atoms: N3_19  and  C13_20
DOCKED: REMARK   14  A    between atoms: C13_20  and  C14_21
DOCKED: REMARK   15  A    between atoms: C13_20  and  C18_25
DOCKED: REMARK   16  A    between atoms: C14_21  and  C15_22
DOCKED: REMARK   17  A    between atoms: C15_22  and  C16_23
DOCKED: REMARK   18  A    between atoms: C15_22  and  C17_24
DOCKED: REMARK   19  A    between atoms: C18_25  and  O4_26
DOCKED: REMARK   20  A    between atoms: C18_25  and  C19_27
DOCKED: REMARK   21  A    between atoms: C19_27  and  C20_28
DOCKED: REMARK   22  A    between atoms: C20_28  and  C21_29
DOCKED: REMARK   23  A    between atoms: C20_28  and  C39_57
DOCKED: REMARK   24  A    between atoms: N4_31  and  C22_32
DOCKED: REMARK   25  A    between atoms: C22_32  and  C23_33
DOCKED: REMARK   26  A    between atoms: C22_32  and  C24_34
DOCKED: REMARK   27  A    between atoms: N5_36  and  C25_37
DOCKED: REMARK   28  A    between atoms: C25_37  and  C26_38
DOCKED: REMARK   29  A    between atoms: C25_37  and  C29_43
DOCKED: REMARK   30  A    between atoms: C26_38  and  C27_39
DOCKED: REMARK   31  A    between atoms: C27_39  and  C28_40
DOCKED: REMARK   32  A    between atoms: C28_40  and  O8_42
DOCKED: REMARK   33  A    between atoms: N6_45  and  C30_46
DOCKED: REMARK   34  A    between atoms: C30_46  and  C31_47
DOCKED: REMARK   35  A    between atoms: C30_46  and  C38_54
DOCKED: REMARK   36  A    between atoms: C31_47  and  C32_48
DOCKED: REMARK   37  A    between atoms: C38_54  and  O11_56
DOCKED: REMARK   38  A    between atoms: C39_57  and  C40_58
DOCKED: REMARK   39  A    between atoms: C39_57  and  C41_59
DOCKED: REMARK                            x       y       z     vdW  Elec       q    Type
DOCKED: REMARK                         _______ _______ _______ _____ _____    ______ ____
DOCKED: USER                              x       y       z     vdW  Elec       q    Type
DOCKED: USER                           _______ _______ _______ _____ _____    ______ ____
DOCKED: ROOT
DOCKED: ATOM      1  C20 UNL     1      10.481   0.779  -5.100 +0.00 +0.00    +0.080 C  
DOCKED: ENDROOT
DOCKED: BRANCH   1   2
DOCKED: ATOM      2  C21 UNL     1       9.278   0.018  -4.525 +0.00 +0.00    +0.217 C  
DOCKED: ATOM      3  O5  UNL     1       8.428   0.544  -3.816 +0.00 -0.00    -0.275 OA 
DOCKED: ATOM      4  N4  UNL     1       9.256  -1.326  -4.844 +0.00 -0.00    -0.304 N  
DOCKED: ATOM      5  H38 UNL     1      10.149  -1.726  -5.116 +0.00 +0.00    +0.149 HD 
DOCKED: BRANCH   4   6
DOCKED: ATOM      6  C22 UNL     1       8.448  -2.235  -4.031 +0.00 +0.00    +0.156 C  
DOCKED: ATOM      7  C23 UNL     1       8.338  -3.604  -4.685 +0.00 +0.00    +0.038 C  
DOCKED: BRANCH   6   8
DOCKED: ATOM      8  C24 UNL     1       9.165  -2.352  -2.670 +0.00 +0.00    +0.234 C  
DOCKED: ATOM      9  O6  UNL     1       8.545  -2.509  -1.615 +0.00 -0.00    -0.274 OA 
DOCKED: ATOM     10  N5  UNL     1      10.532  -2.243  -2.718 +0.00 -0.00    -0.302 N  
DOCKED: ATOM     11  H43 UNL     1      10.955  -1.858  -3.566 +0.00 +0.00    +0.150 HD 
DOCKED: BRANCH  10  12
DOCKED: ATOM     12  C25 UNL     1      11.334  -2.211  -1.506 +0.00 +0.00    +0.159 C  
DOCKED: BRANCH  12  13
DOCKED: ATOM     13  C29 UNL     1      12.355  -1.057  -1.572 +0.00 +0.00    +0.234 C  
DOCKED: ATOM     14  O9  UNL     1      12.493  -0.240  -0.663 +0.00 -0.00    -0.274 OA 
DOCKED: ATOM     15  N6  UNL     1      13.022  -0.958  -2.775 +0.00 -0.00    -0.301 N  
DOCKED: ATOM     16  H50 UNL     1      12.671  -1.501  -3.556 +0.00 +0.00    +0.150 HD 
DOCKED: BRANCH  15  17
DOCKED: ATOM     17  C30 UNL     1      13.829   0.223  -3.094 +0.00 +0.00    +0.186 C  
DOCKED: BRANCH  17  18
DOCKED: ATOM     18  C38 UNL     1      14.142   0.181  -4.590 +0.00 +0.00    +0.326 C  
DOCKED: ATOM     19  O10 UNL     1      14.239   1.148  -5.337 +0.00 -0.00    -0.249 OA 
DOCKED: BRANCH  18  20
DOCKED: ATOM     20  O11 UNL     1      14.264  -1.070  -5.075 +0.00 -0.00    -0.479 OA 
DOCKED: ATOM     21  H59 UNL     1      13.349  -1.426  -5.068 +0.00 +0.00    +0.295 HD 
DOCKED: ENDBRANCH  18  20
DOCKED: ENDBRANCH  17  18
DOCKED: BRANCH  17  22
DOCKED: ATOM     22  C31 UNL     1      15.154   0.243  -2.317 +0.00 +0.00    +0.069 C  
DOCKED: BRANCH  22  23
DOCKED: ATOM     23  C32 UNL     1      15.485  -1.079  -1.656 +0.00 -0.00    -0.045 A  
DOCKED: ATOM     24  C33 UNL     1      15.476  -1.197  -0.261 +0.00 +0.00    +0.004 A  
DOCKED: ATOM     25  C34 UNL     1      15.781  -2.418   0.342 +0.00 +0.00    +0.000 A  
DOCKED: ATOM     26  C35 UNL     1      16.097  -3.528  -0.438 +0.00 +0.00    +0.000 A  
DOCKED: ATOM     27  C36 UNL     1      16.101  -3.422  -1.824 +0.00 +0.00    +0.000 A  
DOCKED: ATOM     28  C37 UNL     1      15.792  -2.207  -2.433 +0.00 +0.00    +0.004 A  
DOCKED: ENDBRANCH  22  23
DOCKED: ENDBRANCH  17  22
DOCKED: ENDBRANCH  15  17
DOCKED: ENDBRANCH  12  13
DOCKED: BRANCH  12  29
DOCKED: ATOM     29  C26 UNL     1      12.019  -3.565  -1.234 +0.00 +0.00    +0.043 C  
DOCKED: BRANCH  29  30
DOCKED: ATOM     30  C27 UNL     1      12.196  -4.510  -2.428 +0.00 +0.00    +0.123 C  
DOCKED: BRANCH  30  31
DOCKED: ATOM     31  C28 UNL     1      12.317  -3.824  -3.766 +0.00 +0.00    +0.305 C  
DOCKED: ATOM     32  O7  UNL     1      11.451  -3.693  -4.612 +0.00 -0.00    -0.251 OA 
DOCKED: BRANCH  31  33
DOCKED: ATOM     33  O8  UNL     1      13.536  -3.277  -3.939 +0.00 -0.00    -0.481 OA 
DOCKED: ATOM     34  H49 UNL     1      13.472  -2.791  -4.787 +0.00 +0.00    +0.295 HD 
DOCKED: ENDBRANCH  31  33
DOCKED: ENDBRANCH  30  31
DOCKED: ENDBRANCH  29  30
DOCKED: ENDBRANCH  12  29
DOCKED: ENDBRANCH  10  12
DOCKED: ENDBRANCH   6   8
DOCKED: ENDBRANCH   4   6
DOCKED: ENDBRANCH   1   2
DOCKED: BRANCH   1  35
DOCKED: ATOM     35  C39 UNL     1      10.420   2.295  -4.761 +0.00 -0.00    -0.005 C  
DOCKED: ATOM     36  C40 UNL     1      10.893   2.577  -3.329 +0.00 +0.00    +0.008 C  
DOCKED: ATOM     37  C41 UNL     1      11.155   3.216  -5.733 +0.00 +0.00    +0.008 C  
DOCKED: ENDBRANCH   1  35
DOCKED: BRANCH   1  38
DOCKED: ATOM     38  C19 UNL     1      10.827   0.392  -6.562 +0.00 +0.00    +0.046 C  
DOCKED: BRANCH  38  39
DOCKED: ATOM     39  C18 UNL     1      11.758  -0.817  -6.771 +0.00 +0.00    +0.135 C  
DOCKED: BRANCH  39  40
DOCKED: ATOM     40  O4  UNL     1      11.822  -1.627  -5.593 +0.00 -0.00    -0.390 OA 
DOCKED: ATOM     41  H34 UNL     1      12.540  -2.276  -5.702 +0.00 +0.00    +0.210 HD 
DOCKED: ENDBRANCH  39  40
DOCKED: BRANCH  39  42
DOCKED: ATOM     42  C13 UNL     1      11.363  -1.726  -7.980 +0.00 +0.00    +0.102 C  
DOCKED: BRANCH  42  45
DOCKED: ATOM     43  C12 UNL     1      12.242  -4.014  -8.423 +0.00 +0.00    +0.234 C  
DOCKED: ATOM     44  O3  UNL     1      12.513  -3.769  -9.595 +0.00 -0.00    -0.274 OA 
DOCKED: ATOM     45  N3  UNL     1      11.617  -3.119  -7.583 +0.00 -0.00    -0.308 N  
DOCKED: ATOM     46  H22 UNL     1      11.651  -3.295  -6.585 +0.00 +0.00    +0.149 HD 
DOCKED: BRANCH  43  47
DOCKED: ATOM     47  C4  UNL     1      12.658  -5.333  -7.742 +0.00 +0.00    +0.160 C  
DOCKED: BRANCH  47  48
DOCKED: ATOM     48  N1  UNL     1      14.058  -5.250  -7.331 +0.00 -0.00    -0.302 N  
DOCKED: ATOM     49  C5  UNL     1      14.491  -4.170  -6.589 +0.00 +0.00    +0.234 C  
DOCKED: ATOM     50  O1  UNL     1      13.768  -3.205  -6.336 +0.00 -0.00    -0.274 OA 
DOCKED: ATOM     51  H9  UNL     1      14.519  -6.131  -7.146 +0.00 +0.00    +0.150 HD 
DOCKED: BRANCH  49  52
DOCKED: ATOM     52  C6  UNL     1      15.959  -4.246  -6.097 +0.00 +0.00    +0.161 C  
DOCKED: BRANCH  52  53
DOCKED: ATOM     53  N2  UNL     1      16.205  -2.997  -5.381 +0.00 -0.00    -0.304 N  
DOCKED: ATOM     54  C7  UNL     1      17.303  -2.216  -5.646 +0.00 +0.00    +0.211 C  
DOCKED: ATOM     55  C8  UNL     1      17.294  -0.883  -4.944 +0.00 +0.00    +0.109 C  
DOCKED: ATOM     56  O2  UNL     1      18.233  -2.571  -6.364 +0.00 -0.00    -0.276 OA 
DOCKED: ATOM     57  H11 UNL     1      15.387  -2.564  -4.963 +0.00 +0.00    +0.149 HD 
DOCKED: ENDBRANCH  52  53
DOCKED: BRANCH  52  58
DOCKED: ATOM     58  C9  UNL     1      16.205  -5.515  -5.239 +0.00 +0.00    +0.012 C  
DOCKED: ATOM     59  C10 UNL     1      17.486  -5.356  -4.407 +0.00 +0.00    +0.009 C  
DOCKED: ATOM     60  C11 UNL     1      15.052  -5.892  -4.299 +0.00 +0.00    +0.009 C  
DOCKED: ENDBRANCH  52  58
DOCKED: ENDBRANCH  49  52
DOCKED: ENDBRANCH  47  48
DOCKED: BRANCH  47  61
DOCKED: ATOM     61  C3  UNL     1      11.736  -5.650  -6.555 +0.00 +0.00    +0.042 C  
DOCKED: BRANCH  61  62
DOCKED: ATOM     62  C2  UNL     1      10.311  -6.034  -6.967 +0.00 +0.00    +0.071 C  
DOCKED: BRANCH  62  64
DOCKED: ATOM     63  C1  UNL     1      10.797  -6.936  -4.419 +0.00 +0.00    +0.084 C  
DOCKED: ATOM     64  S1  UNL     1       9.396  -6.668  -5.529 +0.00 -0.00    -0.164 S  
DOCKED: ENDBRANCH  62  64
DOCKED: ENDBRANCH  61  62
DOCKED: ENDBRANCH  47  61
DOCKED: ENDBRANCH  43  47
DOCKED: ENDBRANCH  42  45
DOCKED: BRANCH  42  65
DOCKED: ATOM     65  C14 UNL     1       9.892  -1.656  -8.445 +0.00 +0.00    +0.028 C  
DOCKED: BRANCH  65  66
DOCKED: ATOM     66  C15 UNL     1       8.914  -2.699  -7.876 +0.00 -0.00    -0.015 C  
DOCKED: ATOM     67  C16 UNL     1       8.704  -3.819  -8.901 +0.00 +0.00    +0.007 C  
DOCKED: ATOM     68  C17 UNL     1       7.560  -2.098  -7.497 +0.00 +0.00    +0.007 C  
DOCKED: ENDBRANCH  65  66
DOCKED: ENDBRANCH  42  65
DOCKED: ENDBRANCH  39  42
DOCKED: ENDBRANCH  38  39
DOCKED: ENDBRANCH   1  38
DOCKED: TORSDOF 30
DOCKED: TER
DOCKED: ENDMDL
________________________________________________________________________________


    FINAL DOCKED STATE:
    ________________________


Run:   7 / 20
Time taken for this run:   4.973s

DOCKED: MODEL        7
DOCKED: USER    Run = 7
DOCKED: USER
DOCKED: USER    Estimated Free Energy of Binding    =  +8.95 kcal/mol  [=(1)+(2)+(3)-(4)]
DOCKED: USER
DOCKED: USER    (1) Final Intermolecular Energy     =  +0.00 kcal/mol
DOCKED: USER        vdW + Hbond + desolv Energy     =  +0.00 kcal/mol
DOCKED: USER        Electrostatic Energy            =  +0.00 kcal/mol
DOCKED: USER        Moving Ligand-Fixed Receptor    =  +0.00 kcal/mol
DOCKED: USER        Moving Ligand-Moving Receptor   =  +0.00 kcal/mol
DOCKED: USER    (2) Final Total Internal Energy     = -24.12 kcal/mol
DOCKED: USER    (3) Torsional Free Energy           =  +8.95 kcal/mol
DOCKED: USER    (4) Unbound System's Energy         = -24.12 kcal/mol
DOCKED: USER
DOCKED: USER
DOCKED: REMARK  Name = ligands/ligand_3.pdb
DOCKED: REMARK  39 active torsions:
DOCKED: REMARK  status: ('A' for Active; 'I' for Inactive)
DOCKED: REMARK    1  A    between atoms: C1_1  and  S1_2
DOCKED: REMARK    2  A    between atoms: S1_2  and  C2_3
DOCKED: REMARK    3  A    between atoms: C2_3  and  C3_4
DOCKED: REMARK    4  A    between atoms: C3_4  and  C4_5
DOCKED: REMARK    5  A    between atoms: C4_5  and  N1_6
DOCKED: REMARK    6  A    between atoms: C4_5  and  C12_17
DOCKED: REMARK    7  A    between atoms: C5_7  and  C6_9
DOCKED: REMARK    8  A    between atoms: C6_9  and  N2_10
DOCKED: REMARK    9  A    between atoms: C6_9  and  C9_14
DOCKED: REMARK   10  A    between atoms: C7_11  and  C8_12
DOCKED: REMARK   11  A    between atoms: C9_14  and  C10_15
DOCKED: REMARK   12  A    between atoms: C9_14  and  C11_16
DOCKED: REMARK   13  A    between atoms: N3_19  and  C13_20
DOCKED: REMARK   14  A    between atoms: C13_20  and  C14_21
DOCKED: REMARK   15  A    between atoms: C13_20  and  C18_25
DOCKED: REMARK   16  A    between atoms: C14_21  and  C15_22
DOCKED: REMARK   17  A    between atoms: C15_22  and  C16_23
DOCKED: REMARK   18  A    between atoms: C15_22  and  C17_24
DOCKED: REMARK   19  A    between atoms: C18_25  and  O4_26
DOCKED: REMARK   20  A    between atoms: C18_25  and  C19_27
DOCKED: REMARK   21  A    between atoms: C19_27  and  C20_28
DOCKED: REMARK   22  A    between atoms: C20_28  and  C21_29
DOCKED: REMARK   23  A    between atoms: C20_28  and  C39_57
DOCKED: REMARK   24  A    between atoms: N4_31  and  C22_32
DOCKED: REMARK   25  A    between atoms: C22_32  and  C23_33
DOCKED: REMARK   26  A    between atoms: C22_32  and  C24_34
DOCKED: REMARK   27  A    between atoms: N5_36  and  C25_37
DOCKED: REMARK   28  A    between atoms: C25_37  and  C26_38
DOCKED: REMARK   29  A    between atoms: C25_37  and  C29_43
DOCKED: REMARK   30  A    between atoms: C26_38  and  C27_39
DOCKED: REMARK   31  A    between atoms: C27_39  and  C28_40
DOCKED: REMARK   32  A    between atoms: C28_40  and  O8_42
DOCKED: REMARK   33  A    between atoms: N6_45  and  C30_46
DOCKED: REMARK   34  A    between atoms: C30_46  and  C31_47
DOCKED: REMARK   35  A    between atoms: C30_46  and  C38_54
DOCKED: REMARK   36  A    between atoms: C31_47  and  C32_48
DOCKED: REMARK   37  A    between atoms: C38_54  and  O11_56
DOCKED: REMARK   38  A    between atoms: C39_57  and  C40_58
DOCKED: REMARK   39  A    between atoms: C39_57  and  C41_59
DOCKED: REMARK                            x       y       z     vdW  Elec       q    Type
DOCKED: REMARK                         _______ _______ _______ _____ _____    ______ ____
DOCKED: USER                              x       y       z     vdW  Elec       q    Type
DOCKED: USER                           _______ _______ _______ _____ _____    ______ ____
DOCKED: ROOT
DOCKED: ATOM      1  C20 UNL     1       4.457  -2.751   0.664 +0.00 +0.00    +0.080 C  
DOCKED: ENDROOT
DOCKED: BRANCH   1   2
DOCKED: ATOM      2  C21 UNL     1       3.547  -2.930  -0.559 +0.00 +0.00    +0.217 C  
DOCKED: ATOM      3  O5  UNL     1       3.745  -3.773  -1.426 +0.00 -0.00    -0.275 OA 
DOCKED: ATOM      4  N4  UNL     1       2.501  -2.029  -0.621 +0.00 -0.00    -0.304 N  
DOCKED: ATOM      5  H38 UNL     1       2.624  -1.179  -0.079 +0.00 +0.00    +0.149 HD 
DOCKED: BRANCH   4   6
DOCKED: ATOM      6  C22 UNL     1       1.840  -1.796  -1.905 +0.00 +0.00    +0.156 C  
DOCKED: ATOM      7  C23 UNL     1       2.842  -1.372  -2.968 +0.00 +0.00    +0.038 C  
DOCKED: BRANCH   6   8
DOCKED: ATOM      8  C24 UNL     1       1.179  -3.132  -2.301 +0.00 +0.00    +0.234 C  
DOCKED: ATOM      9  O6  UNL     1       0.105  -3.499  -1.819 +0.00 -0.00    -0.274 OA 
DOCKED: ATOM     10  N5  UNL     1       1.885  -3.888  -3.203 +0.00 -0.00    -0.302 N  
DOCKED: ATOM     11  H43 UNL     1       2.870  -3.659  -3.358 +0.00 +0.00    +0.150 HD 
DOCKED: BRANCH  10  12
DOCKED: ATOM     12  C25 UNL     1       1.451  -5.224  -3.577 +0.00 +0.00    +0.159 C  
DOCKED: BRANCH  12  13
DOCKED: ATOM     13  C29 UNL     1       1.617  -6.192  -2.388 +0.00 +0.00    +0.234 C  
DOCKED: ATOM     14  O9  UNL     1       0.663  -6.754  -1.852 +0.00 -0.00    -0.274 OA 
DOCKED: ATOM     15  N6  UNL     1       2.908  -6.291  -1.913 +0.00 -0.00    -0.301 N  
DOCKED: ATOM     16  H50 UNL     1       3.584  -5.609  -2.236 +0.00 +0.00    +0.150 HD 
DOCKED: BRANCH  15  17
DOCKED: ATOM     17  C30 UNL     1       3.193  -6.960  -0.640 +0.00 +0.00    +0.186 C  
DOCKED: BRANCH  17  18
DOCKED: ATOM     18  C38 UNL     1       4.561  -6.477  -0.158 +0.00 +0.00    +0.326 C  
DOCKED: ATOM     19  O10 UNL     1       4.882  -6.255   1.004 +0.00 -0.00    -0.249 OA 
DOCKED: BRANCH  18  20
DOCKED: ATOM     20  O11 UNL     1       5.431  -6.249  -1.161 +0.00 -0.00    -0.479 OA 
DOCKED: ATOM     21  H59 UNL     1       5.075  -5.457  -1.619 +0.00 +0.00    +0.295 HD 
DOCKED: ENDBRANCH  18  20
DOCKED: ENDBRANCH  17  18
DOCKED: BRANCH  17  22
DOCKED: ATOM     22  C31 UNL     1       3.238  -8.489  -0.790 +0.00 +0.00    +0.069 C  
DOCKED: BRANCH  22  23
DOCKED: ATOM     23  C32 UNL     1       3.647  -8.947  -2.175 +0.00 -0.00    -0.045 A  
DOCKED: ATOM     24  C33 UNL     1       2.683  -9.130  -3.174 +0.00 +0.00    +0.004 A  
DOCKED: ATOM     25  C34 UNL     1       3.066  -9.552  -4.449 +0.00 +0.00    +0.000 A  
DOCKED: ATOM     26  C35 UNL     1       4.407  -9.793  -4.736 +0.00 +0.00    +0.000 A  
DOCKED: ATOM     27  C36 UNL     1       5.371  -9.605  -3.752 +0.00 +0.00    +0.000 A  
DOCKED: ATOM     28  C37 UNL     1       4.997  -9.179  -2.480 +0.00 +0.00    +0.004 A  
DOCKED: ENDBRANCH  22  23
DOCKED: ENDBRANCH  17  22
DOCKED: ENDBRANCH  15  17
DOCKED: ENDBRANCH  12  13
DOCKED: BRANCH  12  29
DOCKED: ATOM     29  C26 UNL     1       2.183  -5.734  -4.835 +0.00 +0.00    +0.043 C  
DOCKED: BRANCH  29  30
DOCKED: ATOM     30  C27 UNL     1       3.588  -5.181  -5.098 +0.00 +0.00    +0.123 C  
DOCKED: BRANCH  30  31
DOCKED: ATOM     31  C28 UNL     1       4.579  -5.413  -3.986 +0.00 +0.00    +0.305 C  
DOCKED: ATOM     32  O7  UNL     1       5.054  -6.476  -3.627 +0.00 -0.00    -0.251 OA 
DOCKED: BRANCH  31  33
DOCKED: ATOM     33  O8  UNL     1       4.968  -4.258  -3.414 +0.00 -0.00    -0.481 OA 
DOCKED: ATOM     34  H49 UNL     1       5.412  -4.528  -2.583 +0.00 +0.00    +0.295 HD 
DOCKED: ENDBRANCH  31  33
DOCKED: ENDBRANCH  30  31
DOCKED: ENDBRANCH  29  30
DOCKED: ENDBRANCH  12  29
DOCKED: ENDBRANCH  10  12
DOCKED: ENDBRANCH   6   8
DOCKED: ENDBRANCH   4   6
DOCKED: ENDBRANCH   1   2
DOCKED: BRANCH   1  35
DOCKED: ATOM     35  C39 UNL     1       3.651  -2.338   1.927 +0.00 -0.00    -0.005 C  
DOCKED: ATOM     36  C40 UNL     1       2.625  -3.408   2.322 +0.00 +0.00    +0.008 C  
DOCKED: ATOM     37  C41 UNL     1       4.489  -1.959   3.147 +0.00 +0.00    +0.008 C  
DOCKED: ENDBRANCH   1  35
DOCKED: BRANCH   1  38
DOCKED: ATOM     38  C19 UNL     1       5.762  -1.965   0.366 +0.00 +0.00    +0.046 C  
DOCKED: BRANCH  38  39
DOCKED: ATOM     39  C18 UNL     1       6.832  -2.671  -0.487 +0.00 +0.00    +0.135 C  
DOCKED: BRANCH  39  40
DOCKED: ATOM     40  O4  UNL     1       6.498  -4.047  -0.696 +0.00 -0.00    -0.390 OA 
DOCKED: ATOM     41  H34 UNL     1       5.873  -4.105  -1.440 +0.00 +0.00    +0.210 HD 
DOCKED: ENDBRANCH  39  40
DOCKED: BRANCH  39  42
DOCKED: ATOM     42  C13 UNL     1       7.085  -2.003  -1.877 +0.00 +0.00    +0.102 C  
DOCKED: BRANCH  42  45
DOCKED: ATOM     43  C12 UNL     1       8.820  -3.098  -3.290 +0.00 +0.00    +0.234 C  
DOCKED: ATOM     44  O3  UNL     1       9.640  -2.202  -3.115 +0.00 -0.00    -0.274 OA 
DOCKED: ATOM     45  N3  UNL     1       7.534  -3.059  -2.797 +0.00 -0.00    -0.308 N  
DOCKED: ATOM     46  H22 UNL     1       7.005  -3.924  -2.768 +0.00 +0.00    +0.149 HD 
DOCKED: BRANCH  43  47
DOCKED: ATOM     47  C4  UNL     1       9.177  -4.411  -4.014 +0.00 +0.00    +0.160 C  
DOCKED: BRANCH  47  48
DOCKED: ATOM     48  N1  UNL     1       9.351  -5.479  -3.031 +0.00 -0.00    -0.302 N  
DOCKED: ATOM     49  C5  UNL     1       8.249  -5.996  -2.381 +0.00 +0.00    +0.234 C  
DOCKED: ATOM     50  O1  UNL     1       7.118  -5.528  -2.515 +0.00 -0.00    -0.274 OA 
DOCKED: ATOM     51  H9  UNL     1      10.109  -6.125  -3.208 +0.00 +0.00    +0.150 HD 
DOCKED: BRANCH  49  52
DOCKED: ATOM     52  C6  UNL     1       8.530  -7.210  -1.459 +0.00 +0.00    +0.161 C  
DOCKED: BRANCH  52  53
DOCKED: ATOM     53  N2  UNL     1       7.790  -6.955  -0.225 +0.00 -0.00    -0.304 N  
DOCKED: ATOM     54  C7  UNL     1       8.335  -7.203   1.010 +0.00 +0.00    +0.211 C  
DOCKED: ATOM     55  C8  UNL     1       7.499  -6.710   2.162 +0.00 +0.00    +0.109 C  
DOCKED: ATOM     56  O2  UNL     1       9.394  -7.801   1.178 +0.00 -0.00    -0.276 OA 
DOCKED: ATOM     57  H11 UNL     1       7.037  -6.277  -0.300 +0.00 +0.00    +0.149 HD 
DOCKED: ENDBRANCH  52  53
DOCKED: BRANCH  52  58
DOCKED: ATOM     58  C9  UNL     1       8.151  -8.548  -2.148 +0.00 +0.00    +0.012 C  
DOCKED: ATOM     59  C10 UNL     1       9.204  -8.922  -3.201 +0.00 +0.00    +0.009 C  
DOCKED: ATOM     60  C11 UNL     1       7.965  -9.735  -1.193 +0.00 +0.00    +0.009 C  
DOCKED: ENDBRANCH  52  58
DOCKED: ENDBRANCH  49  52
DOCKED: ENDBRANCH  47  48
DOCKED: BRANCH  47  61
DOCKED: ATOM     61  C3  UNL     1       8.109  -4.769  -5.058 +0.00 +0.00    +0.042 C  
DOCKED: BRANCH  61  62
DOCKED: ATOM     62  C2  UNL     1       8.465  -5.991  -5.911 +0.00 +0.00    +0.071 C  
DOCKED: BRANCH  62  64
DOCKED: ATOM     63  C1  UNL     1       6.044  -6.957  -6.777 +0.00 +0.00    +0.084 C  
DOCKED: ATOM     64  S1  UNL     1       7.316  -7.356  -5.556 +0.00 -0.00    -0.164 S  
DOCKED: ENDBRANCH  62  64
DOCKED: ENDBRANCH  61  62
DOCKED: ENDBRANCH  47  61
DOCKED: ENDBRANCH  43  47
DOCKED: ENDBRANCH  42  45
DOCKED: BRANCH  42  65
DOCKED: ATOM     65  C14 UNL     1       5.872  -1.317  -2.544 +0.00 +0.00    +0.028 C  
DOCKED: BRANCH  65  66
DOCKED: ATOM     66  C15 UNL     1       6.069  -0.734  -3.954 +0.00 -0.00    -0.015 C  
DOCKED: ATOM     67  C16 UNL     1       5.816  -1.825  -5.001 +0.00 +0.00    +0.007 C  
DOCKED: ATOM     68  C17 UNL     1       7.465  -0.147  -4.162 +0.00 +0.00    +0.007 C  
DOCKED: ENDBRANCH  65  66
DOCKED: ENDBRANCH  42  65
DOCKED: ENDBRANCH  39  42
DOCKED: ENDBRANCH  38  39
DOCKED: ENDBRANCH   1  38
DOCKED: TORSDOF 30
DOCKED: TER
DOCKED: ENDMDL
________________________________________________________________________________


    FINAL DOCKED STATE:
    ________________________


Run:   8 / 20
Time taken for this run:   4.973s

DOCKED: MODEL        8
DOCKED: USER    Run = 8
DOCKED: USER
DOCKED: USER    Estimated Free Energy of Binding    =  +8.95 kcal/mol  [=(1)+(2)+(3)-(4)]
DOCKED: USER
DOCKED: USER    (1) Final Intermolecular Energy     =  +0.00 kcal/mol
DOCKED: USER        vdW + Hbond + desolv Energy     =  +0.00 kcal/mol
DOCKED: USER        Electrostatic Energy            =  +0.00 kcal/mol
DOCKED: USER        Moving Ligand-Fixed Receptor    =  +0.00 kcal/mol
DOCKED: USER        Moving Ligand-Moving Receptor   =  +0.00 kcal/mol
DOCKED: USER    (2) Final Total Internal Energy     = -24.16 kcal/mol
DOCKED: USER    (3) Torsional Free Energy           =  +8.95 kcal/mol
DOCKED: USER    (4) Unbound System's Energy         = -24.16 kcal/mol
DOCKED: USER
DOCKED: USER
DOCKED: REMARK  Name = ligands/ligand_3.pdb
DOCKED: REMARK  39 active torsions:
DOCKED: REMARK  status: ('A' for Active; 'I' for Inactive)
DOCKED: REMARK    1  A    between atoms: C1_1  and  S1_2
DOCKED: REMARK    2  A    between atoms: S1_2  and  C2_3
DOCKED: REMARK    3  A    between atoms: C2_3  and  C3_4
DOCKED: REMARK    4  A    between atoms: C3_4  and  C4_5
DOCKED: REMARK    5  A    between atoms: C4_5  and  N1_6
DOCKED: REMARK    6  A    between atoms: C4_5  and  C12_17
DOCKED: REMARK    7  A    between atoms: C5_7  and  C6_9
DOCKED: REMARK    8  A    between atoms: C6_9  and  N2_10
DOCKED: REMARK    9  A    between atoms: C6_9  and  C9_14
DOCKED: REMARK   10  A    between atoms: C7_11  and  C8_12
DOCKED: REMARK   11  A    between atoms: C9_14  and  C10_15
DOCKED: REMARK   12  A    between atoms: C9_14  and  C11_16
DOCKED: REMARK   13  A    between atoms: N3_19  and  C13_20
DOCKED: REMARK   14  A    between atoms: C13_20  and  C14_21
DOCKED: REMARK   15  A    between atoms: C13_20  and  C18_25
DOCKED: REMARK   16  A    between atoms: C14_21  and  C15_22
DOCKED: REMARK   17  A    between atoms: C15_22  and  C16_23
DOCKED: REMARK   18  A    between atoms: C15_22  and  C17_24
DOCKED: REMARK   19  A    between atoms: C18_25  and  O4_26
DOCKED: REMARK   20  A    between atoms: C18_25  and  C19_27
DOCKED: REMARK   21  A    between atoms: C19_27  and  C20_28
DOCKED: REMARK   22  A    between atoms: C20_28  and  C21_29
DOCKED: REMARK   23  A    between atoms: C20_28  and  C39_57
DOCKED: REMARK   24  A    between atoms: N4_31  and  C22_32
DOCKED: REMARK   25  A    between atoms: C22_32  and  C23_33
DOCKED: REMARK   26  A    between atoms: C22_32  and  C24_34
DOCKED: REMARK   27  A    between atoms: N5_36  and  C25_37
DOCKED: REMARK   28  A    between atoms: C25_37  and  C26_38
DOCKED: REMARK   29  A    between atoms: C25_37  and  C29_43
DOCKED: REMARK   30  A    between atoms: C26_38  and  C27_39
DOCKED: REMARK   31  A    between atoms: C27_39  and  C28_40
DOCKED: REMARK   32  A    between atoms: C28_40  and  O8_42
DOCKED: REMARK   33  A    between atoms: N6_45  and  C30_46
DOCKED: REMARK   34  A    between atoms: C30_46  and  C31_47
DOCKED: REMARK   35  A    between atoms: C30_46  and  C38_54
DOCKED: REMARK   36  A    between atoms: C31_47  and  C32_48
DOCKED: REMARK   37  A    between atoms: C38_54  and  O11_56
DOCKED: REMARK   38  A    between atoms: C39_57  and  C40_58
DOCKED: REMARK   39  A    between atoms: C39_57  and  C41_59
DOCKED: REMARK                            x       y       z     vdW  Elec       q    Type
DOCKED: REMARK                         _______ _______ _______ _____ _____    ______ ____
DOCKED: USER                              x       y       z     vdW  Elec       q    Type
DOCKED: USER                           _______ _______ _______ _____ _____    ______ ____
DOCKED: ROOT
DOCKED: ATOM      1  C20 UNL     1      13.746  -8.041   7.547 +0.00 +0.00    +0.080 C  
DOCKED: ENDROOT
DOCKED: BRANCH   1   2
DOCKED: ATOM      2  C21 UNL     1      13.183  -9.022   6.509 +0.00 +0.00    +0.217 C  
DOCKED: ATOM      3  O5  UNL     1      13.495  -8.998   5.324 +0.00 -0.00    -0.275 OA 
DOCKED: ATOM      4  N4  UNL     1      12.259  -9.914   7.019 +0.00 -0.00    -0.304 N  
DOCKED: ATOM      5  H38 UNL     1      11.815  -9.634   7.889 +0.00 +0.00    +0.149 HD 
DOCKED: BRANCH   4   6
DOCKED: ATOM      6  C22 UNL     1      11.341 -10.587   6.101 +0.00 +0.00    +0.156 C  
DOCKED: ATOM      7  C23 UNL     1      10.559  -9.579   5.272 +0.00 +0.00    +0.038 C  
DOCKED: BRANCH   6   8
DOCKED: ATOM      8  C24 UNL     1      12.214 -11.467   5.182 +0.00 +0.00    +0.234 C  
DOCKED: ATOM      9  O6  UNL     1      12.660 -12.556   5.550 +0.00 -0.00    -0.274 OA 
DOCKED: ATOM     10  N5  UNL     1      12.476 -10.937   3.944 +0.00 -0.00    -0.302 N  
DOCKED: ATOM     11  H43 UNL     1      12.304  -9.939   3.799 +0.00 +0.00    +0.150 HD 
DOCKED: BRANCH  10  12
DOCKED: ATOM     12  C25 UNL     1      13.384 -11.592   3.015 +0.00 +0.00    +0.159 C  
DOCKED: BRANCH  12  13
DOCKED: ATOM     13  C29 UNL     1      14.828 -11.536   3.551 +0.00 +0.00    +0.234 C  
DOCKED: ATOM     14  O9  UNL     1      15.468 -12.545   3.841 +0.00 -0.00    -0.274 OA 
DOCKED: ATOM     15  N6  UNL     1      15.301 -10.260   3.776 +0.00 -0.00    -0.301 N  
DOCKED: ATOM     16  H50 UNL     1      14.632  -9.498   3.759 +0.00 +0.00    +0.150 HD 
DOCKED: BRANCH  15  17
DOCKED: ATOM     17  C30 UNL     1      16.545 -10.037   4.518 +0.00 +0.00    +0.186 C  
DOCKED: BRANCH  17  18
DOCKED: ATOM     18  C38 UNL     1      16.539  -8.590   5.012 +0.00 +0.00    +0.326 C  
DOCKED: ATOM     19  O10 UNL     1      16.968  -8.189   6.087 +0.00 -0.00    -0.249 OA 
DOCKED: BRANCH  18  20
DOCKED: ATOM     20  O11 UNL     1      15.948  -7.736   4.153 +0.00 -0.00    -0.479 OA 
DOCKED: ATOM     21  H59 UNL     1      14.996  -7.974   4.186 +0.00 +0.00    +0.295 HD 
DOCKED: ENDBRANCH  18  20
DOCKED: ENDBRANCH  17  18
DOCKED: BRANCH  17  22
DOCKED: ATOM     22  C31 UNL     1      17.786 -10.249   3.639 +0.00 +0.00    +0.069 C  
DOCKED: BRANCH  22  23
DOCKED: ATOM     23  C32 UNL     1      17.542  -9.963   2.172 +0.00 -0.00    -0.045 A  
DOCKED: ATOM     24  C33 UNL     1      17.770  -8.683   1.652 +0.00 +0.00    +0.004 A  
DOCKED: ATOM     25  C34 UNL     1      17.544  -8.425   0.299 +0.00 +0.00    +0.000 A  
DOCKED: ATOM     26  C35 UNL     1      17.092  -9.438  -0.544 +0.00 +0.00    +0.000 A  
DOCKED: ATOM     27  C36 UNL     1      16.871 -10.714  -0.038 +0.00 +0.00    +0.000 A  
DOCKED: ATOM     28  C37 UNL     1      17.100 -10.979   1.311 +0.00 +0.00    +0.004 A  
DOCKED: ENDBRANCH  22  23
DOCKED: ENDBRANCH  17  22
DOCKED: ENDBRANCH  15  17
DOCKED: ENDBRANCH  12  13
DOCKED: BRANCH  12  29
DOCKED: ATOM     29  C26 UNL     1      13.278 -11.000   1.595 +0.00 +0.00    +0.043 C  
DOCKED: BRANCH  29  30
DOCKED: ATOM     30  C27 UNL     1      12.843  -9.535   1.480 +0.00 +0.00    +0.123 C  
DOCKED: BRANCH  30  31
DOCKED: ATOM     31  C28 UNL     1      13.715  -8.555   2.223 +0.00 +0.00    +0.305 C  
DOCKED: ATOM     32  O7  UNL     1      14.864  -8.244   1.965 +0.00 -0.00    -0.251 OA 
DOCKED: BRANCH  31  33
DOCKED: ATOM     33  O8  UNL     1      13.054  -7.965   3.237 +0.00 -0.00    -0.481 OA 
DOCKED: ATOM     34  H49 UNL     1      13.751  -7.530   3.770 +0.00 +0.00    +0.295 HD 
DOCKED: ENDBRANCH  31  33
DOCKED: ENDBRANCH  30  31
DOCKED: ENDBRANCH  29  30
DOCKED: ENDBRANCH  12  29
DOCKED: ENDBRANCH  10  12
DOCKED: ENDBRANCH   6   8
DOCKED: ENDBRANCH   4   6
DOCKED: ENDBRANCH   1   2
DOCKED: BRANCH   1  35
DOCKED: ATOM     35  C39 UNL     1      13.933  -8.715   8.935 +0.00 -0.00    -0.005 C  
DOCKED: ATOM     36  C40 UNL     1      14.954  -9.858   8.879 +0.00 +0.00    +0.008 C  
DOCKED: ATOM     37  C41 UNL     1      14.286  -7.770  10.083 +0.00 +0.00    +0.008 C  
DOCKED: ENDBRANCH   1  35
DOCKED: BRANCH   1  38
DOCKED: ATOM     38  C19 UNL     1      13.071  -6.644   7.521 +0.00 +0.00    +0.046 C  
DOCKED: BRANCH  38  39
DOCKED: ATOM     39  C18 UNL     1      13.374  -5.736   6.315 +0.00 +0.00    +0.135 C  
DOCKED: BRANCH  39  40
DOCKED: ATOM     40  O4  UNL     1      14.420  -6.284   5.508 +0.00 -0.00    -0.390 OA 
DOCKED: ATOM     41  H34 UNL     1      14.034  -6.949   4.909 +0.00 +0.00    +0.210 HD 
DOCKED: ENDBRANCH  39  40
DOCKED: BRANCH  39  42
DOCKED: ATOM     42  C13 UNL     1      12.136  -5.451   5.403 +0.00 +0.00    +0.102 C  
DOCKED: BRANCH  42  45
DOCKED: ATOM     43  C12 UNL     1      12.569  -3.977   3.443 +0.00 +0.00    +0.234 C  
DOCKED: ATOM     44  O3  UNL     1      11.973  -3.021   3.931 +0.00 -0.00    -0.274 OA 
DOCKED: ATOM     45  N3  UNL     1      12.640  -5.215   4.042 +0.00 -0.00    -0.308 N  
DOCKED: ATOM     46  H22 UNL     1      13.342  -5.868   3.711 +0.00 +0.00    +0.149 HD 
DOCKED: BRANCH  43  47
DOCKED: ATOM     47  C4  UNL     1      13.381  -3.860   2.137 +0.00 +0.00    +0.160 C  
DOCKED: BRANCH  47  48
DOCKED: ATOM     48  N1  UNL     1      14.806  -3.805   2.453 +0.00 -0.00    -0.302 N  
DOCKED: ATOM     49  C5  UNL     1      15.453  -4.939   2.902 +0.00 +0.00    +0.234 C  
DOCKED: ATOM     50  O1  UNL     1      14.858  -5.989   3.149 +0.00 -0.00    -0.274 OA 
DOCKED: ATOM     51  H9  UNL     1      15.360  -3.168   1.895 +0.00 +0.00    +0.150 HD 
DOCKED: BRANCH  49  52
DOCKED: ATOM     52  C6  UNL     1      16.987  -4.803   3.081 +0.00 +0.00    +0.161 C  
DOCKED: BRANCH  52  53
DOCKED: ATOM     53  N2  UNL     1      17.301  -5.461   4.346 +0.00 -0.00    -0.304 N  
DOCKED: ATOM     54  C7  UNL     1      18.226  -4.945   5.220 +0.00 +0.00    +0.211 C  
DOCKED: ATOM     55  C8  UNL     1      18.282  -5.656   6.547 +0.00 +0.00    +0.109 C  
DOCKED: ATOM     56  O2  UNL     1      18.969  -4.007   4.948 +0.00 -0.00    -0.276 OA 
DOCKED: ATOM     57  H11 UNL     1      16.582  -6.082   4.706 +0.00 +0.00    +0.149 HD 
DOCKED: ENDBRANCH  52  53
DOCKED: BRANCH  52  58
DOCKED: ATOM     58  C9  UNL     1      17.755  -5.389   1.866 +0.00 +0.00    +0.012 C  
DOCKED: ATOM     59  C10 UNL     1      17.653  -4.441   0.663 +0.00 +0.00    +0.009 C  
DOCKED: ATOM     60  C11 UNL     1      19.236  -5.697   2.127 +0.00 +0.00    +0.009 C  
DOCKED: ENDBRANCH  52  58
DOCKED: ENDBRANCH  49  52
DOCKED: ENDBRANCH  47  48
DOCKED: BRANCH  47  61
DOCKED: ATOM     61  C3  UNL     1      13.055  -5.020   1.185 +0.00 +0.00    +0.042 C  
DOCKED: BRANCH  61  62
DOCKED: ATOM     62  C2  UNL     1      13.717  -4.893  -0.191 +0.00 +0.00    +0.071 C  
DOCKED: BRANCH  62  64
DOCKED: ATOM     63  C1  UNL     1      13.906  -7.469  -1.125 +0.00 +0.00    +0.084 C  
DOCKED: ATOM     64  S1  UNL     1      14.968  -6.197  -0.403 +0.00 -0.00    -0.164 S  
DOCKED: ENDBRANCH  62  64
DOCKED: ENDBRANCH  61  62
DOCKED: ENDBRANCH  47  61
DOCKED: ENDBRANCH  43  47
DOCKED: ENDBRANCH  42  45
DOCKED: BRANCH  42  65
DOCKED: ATOM     65  C14 UNL     1      11.082  -6.576   5.300 +0.00 +0.00    +0.028 C  
DOCKED: BRANCH  65  66
DOCKED: ATOM     66  C15 UNL     1       9.913  -6.370   4.321 +0.00 -0.00    -0.015 C  
DOCKED: ATOM     67  C16 UNL     1      10.326  -6.841   2.921 +0.00 +0.00    +0.007 C  
DOCKED: ATOM     68  C17 UNL     1       9.450  -4.914   4.249 +0.00 +0.00    +0.007 C  
DOCKED: ENDBRANCH  65  66
DOCKED: ENDBRANCH  42  65
DOCKED: ENDBRANCH  39  42
DOCKED: ENDBRANCH  38  39
DOCKED: ENDBRANCH   1  38
DOCKED: TORSDOF 30
DOCKED: TER
DOCKED: ENDMDL
________________________________________________________________________________


    FINAL DOCKED STATE:
    ________________________


Run:   9 / 20
Time taken for this run:   4.973s

DOCKED: MODEL        9
DOCKED: USER    Run = 9
DOCKED: USER
DOCKED: USER    Estimated Free Energy of Binding    =  +8.95 kcal/mol  [=(1)+(2)+(3)-(4)]
DOCKED: USER
DOCKED: USER    (1) Final Intermolecular Energy     =  +0.00 kcal/mol
DOCKED: USER        vdW + Hbond + desolv Energy     =  +0.00 kcal/mol
DOCKED: USER        Electrostatic Energy            =  +0.00 kcal/mol
DOCKED: USER        Moving Ligand-Fixed Receptor    =  +0.00 kcal/mol
DOCKED: USER        Moving Ligand-Moving Receptor   =  +0.00 kcal/mol
DOCKED: USER    (2) Final Total Internal Energy     = -21.94 kcal/mol
DOCKED: USER    (3) Torsional Free Energy           =  +8.95 kcal/mol
DOCKED: USER    (4) Unbound System's Energy         = -21.94 kcal/mol
DOCKED: USER
DOCKED: USER
DOCKED: REMARK  Name = ligands/ligand_3.pdb
DOCKED: REMARK  39 active torsions:
DOCKED: REMARK  status: ('A' for Active; 'I' for Inactive)
DOCKED: REMARK    1  A    between atoms: C1_1  and  S1_2
DOCKED: REMARK    2  A    between atoms: S1_2  and  C2_3
DOCKED: REMARK    3  A    between atoms: C2_3  and  C3_4
DOCKED: REMARK    4  A    between atoms: C3_4  and  C4_5
DOCKED: REMARK    5  A    between atoms: C4_5  and  N1_6
DOCKED: REMARK    6  A    between atoms: C4_5  and  C12_17
DOCKED: REMARK    7  A    between atoms: C5_7  and  C6_9
DOCKED: REMARK    8  A    between atoms: C6_9  and  N2_10
DOCKED: REMARK    9  A    between atoms: C6_9  and  C9_14
DOCKED: REMARK   10  A    between atoms: C7_11  and  C8_12
DOCKED: REMARK   11  A    between atoms: C9_14  and  C10_15
DOCKED: REMARK   12  A    between atoms: C9_14  and  C11_16
DOCKED: REMARK   13  A    between atoms: N3_19  and  C13_20
DOCKED: REMARK   14  A    between atoms: C13_20  and  C14_21
DOCKED: REMARK   15  A    between atoms: C13_20  and  C18_25
DOCKED: REMARK   16  A    between atoms: C14_21  and  C15_22
DOCKED: REMARK   17  A    between atoms: C15_22  and  C16_23
DOCKED: REMARK   18  A    between atoms: C15_22  and  C17_24
DOCKED: REMARK   19  A    between atoms: C18_25  and  O4_26
DOCKED: REMARK   20  A    between atoms: C18_25  and  C19_27
DOCKED: REMARK   21  A    between atoms: C19_27  and  C20_28
DOCKED: REMARK   22  A    between atoms: C20_28  and  C21_29
DOCKED: REMARK   23  A    between atoms: C20_28  and  C39_57
DOCKED: REMARK   24  A    between atoms: N4_31  and  C22_32
DOCKED: REMARK   25  A    between atoms: C22_32  and  C23_33
DOCKED: REMARK   26  A    between atoms: C22_32  and  C24_34
DOCKED: REMARK   27  A    between atoms: N5_36  and  C25_37
DOCKED: REMARK   28  A    between atoms: C25_37  and  C26_38
DOCKED: REMARK   29  A    between atoms: C25_37  and  C29_43
DOCKED: REMARK   30  A    between atoms: C26_38  and  C27_39
DOCKED: REMARK   31  A    between atoms: C27_39  and  C28_40
DOCKED: REMARK   32  A    between atoms: C28_40  and  O8_42
DOCKED: REMARK   33  A    between atoms: N6_45  and  C30_46
DOCKED: REMARK   34  A    between atoms: C30_46  and  C31_47
DOCKED: REMARK   35  A    between atoms: C30_46  and  C38_54
DOCKED: REMARK   36  A    between atoms: C31_47  and  C32_48
DOCKED: REMARK   37  A    between atoms: C38_54  and  O11_56
DOCKED: REMARK   38  A    between atoms: C39_57  and  C40_58
DOCKED: REMARK   39  A    between atoms: C39_57  and  C41_59
DOCKED: REMARK                            x       y       z     vdW  Elec       q    Type
DOCKED: REMARK                         _______ _______ _______ _____ _____    ______ ____
DOCKED: USER                              x       y       z     vdW  Elec       q    Type
DOCKED: USER                           _______ _______ _______ _____ _____    ______ ____
DOCKED: ROOT
DOCKED: ATOM      1  C20 UNL     1       4.735  -5.828  -3.549 +0.00 +0.00    +0.080 C  
DOCKED: ENDROOT
DOCKED: BRANCH   1   2
DOCKED: ATOM      2  C21 UNL     1       4.378  -4.335  -3.547 +0.00 +0.00    +0.217 C  
DOCKED: ATOM      3  O5  UNL     1       5.198  -3.449  -3.335 +0.00 -0.00    -0.275 OA 
DOCKED: ATOM      4  N4  UNL     1       3.039  -4.074  -3.767 +0.00 -0.00    -0.304 N  
DOCKED: ATOM      5  H38 UNL     1       2.407  -4.846  -3.579 +0.00 +0.00    +0.149 HD 
DOCKED: BRANCH   4   6
DOCKED: ATOM      6  C22 UNL     1       2.493  -2.778  -3.366 +0.00 +0.00    +0.156 C  
DOCKED: ATOM      7  C23 UNL     1       3.049  -2.343  -2.018 +0.00 +0.00    +0.038 C  
DOCKED: BRANCH   6   8
DOCKED: ATOM      8  C24 UNL     1       2.909  -1.774  -4.461 +0.00 +0.00    +0.234 C  
DOCKED: ATOM      9  O6  UNL     1       2.287  -1.666  -5.520 +0.00 -0.00    -0.274 OA 
DOCKED: ATOM     10  N5  UNL     1       4.031  -1.035  -4.180 +0.00 -0.00    -0.302 N  
DOCKED: ATOM     11  H43 UNL     1       4.639  -1.350  -3.421 +0.00 +0.00    +0.150 HD 
DOCKED: BRANCH  10  12
DOCKED: ATOM     12  C25 UNL     1       4.614  -0.138  -5.164 +0.00 +0.00    +0.159 C  
DOCKED: BRANCH  12  13
DOCKED: ATOM     13  C29 UNL     1       5.435  -0.938  -6.196 +0.00 +0.00    +0.234 C  
DOCKED: ATOM     14  O9  UNL     1       5.656  -0.524  -7.332 +0.00 -0.00    -0.274 OA 
DOCKED: ATOM     15  N6  UNL     1       5.807  -2.197  -5.771 +0.00 -0.00    -0.301 N  
DOCKED: ATOM     16  H50 UNL     1       5.370  -2.561  -4.932 +0.00 +0.00    +0.150 HD 
DOCKED: BRANCH  15  17
DOCKED: ATOM     17  C30 UNL     1       6.362  -3.175  -6.711 +0.00 +0.00    +0.186 C  
DOCKED: BRANCH  17  18
DOCKED: ATOM     18  C38 UNL     1       7.838  -2.834  -6.919 +0.00 +0.00    +0.326 C  
DOCKED: ATOM     19  O10 UNL     1       8.394  -2.653  -7.995 +0.00 -0.00    -0.249 OA 
DOCKED: BRANCH  18  20
DOCKED: ATOM     20  O11 UNL     1       8.542  -2.791  -5.771 +0.00 -0.00    -0.479 OA 
DOCKED: ATOM     21  H59 UNL     1       7.868  -2.628  -5.076 +0.00 +0.00    +0.295 HD 
DOCKED: ENDBRANCH  18  20
DOCKED: ENDBRANCH  17  18
DOCKED: BRANCH  17  22
DOCKED: ATOM     22  C31 UNL     1       5.653  -3.132  -8.073 +0.00 +0.00    +0.069 C  
DOCKED: BRANCH  22  23
DOCKED: ATOM     23  C32 UNL     1       4.158  -3.363  -7.983 +0.00 -0.00    -0.045 A  
DOCKED: ATOM     24  C33 UNL     1       3.646  -4.370  -7.155 +0.00 +0.00    +0.004 A  
DOCKED: ATOM     25  C34 UNL     1       2.268  -4.578  -7.075 +0.00 +0.00    +0.000 A  
DOCKED: ATOM     26  C35 UNL     1       1.393  -3.787  -7.817 +0.00 +0.00    +0.000 A  
DOCKED: ATOM     27  C36 UNL     1       1.893  -2.780  -8.634 +0.00 +0.00    +0.000 A  
DOCKED: ATOM     28  C37 UNL     1       3.267  -2.564  -8.715 +0.00 +0.00    +0.004 A  
DOCKED: ENDBRANCH  22  23
DOCKED: ENDBRANCH  17  22
DOCKED: ENDBRANCH  15  17
DOCKED: ENDBRANCH  12  13
DOCKED: BRANCH  12  29
DOCKED: ATOM     29  C26 UNL     1       5.455   0.972  -4.502 +0.00 +0.00    +0.043 C  
DOCKED: BRANCH  29  30
DOCKED: ATOM     30  C27 UNL     1       6.458   0.541  -3.426 +0.00 +0.00    +0.123 C  
DOCKED: BRANCH  30  31
DOCKED: ATOM     31  C28 UNL     1       7.314  -0.644  -3.796 +0.00 +0.00    +0.305 C  
DOCKED: ATOM     32  O7  UNL     1       8.397  -0.629  -4.353 +0.00 -0.00    -0.251 OA 
DOCKED: BRANCH  31  33
DOCKED: ATOM     33  O8  UNL     1       6.770  -1.804  -3.381 +0.00 -0.00    -0.481 OA 
DOCKED: ATOM     34  H49 UNL     1       7.090  -2.473  -4.021 +0.00 +0.00    +0.295 HD 
DOCKED: ENDBRANCH  31  33
DOCKED: ENDBRANCH  30  31
DOCKED: ENDBRANCH  29  30
DOCKED: ENDBRANCH  12  29
DOCKED: ENDBRANCH  10  12
DOCKED: ENDBRANCH   6   8
DOCKED: ENDBRANCH   4   6
DOCKED: ENDBRANCH   1   2
DOCKED: BRANCH   1  35
DOCKED: ATOM     35  C39 UNL     1       5.233  -6.303  -2.155 +0.00 -0.00    -0.005 C  
DOCKED: ATOM     36  C40 UNL     1       4.559  -5.529  -1.016 +0.00 +0.00    +0.008 C  
DOCKED: ATOM     37  C41 UNL     1       5.118  -7.804  -1.892 +0.00 +0.00    +0.008 C  
DOCKED: ENDBRANCH   1  35
DOCKED: BRANCH   1  38
DOCKED: ATOM     38  C19 UNL     1       5.555  -6.276  -4.787 +0.00 +0.00    +0.046 C  
DOCKED: BRANCH  38  39
DOCKED: ATOM     39  C18 UNL     1       6.868  -5.524  -5.074 +0.00 +0.00    +0.135 C  
DOCKED: BRANCH  39  40
DOCKED: ATOM     40  O4  UNL     1       7.169  -4.596  -4.027 +0.00 -0.00    -0.390 OA 
DOCKED: ATOM     41  H34 UNL     1       7.113  -3.693  -4.387 +0.00 +0.00    +0.210 HD 
DOCKED: ENDBRANCH  39  40
DOCKED: BRANCH  39  42
DOCKED: ATOM     42  C13 UNL     1       8.105  -6.455  -5.287 +0.00 +0.00    +0.102 C  
DOCKED: BRANCH  42  45
DOCKED: ATOM     43  C12 UNL     1      10.363  -5.437  -5.025 +0.00 +0.00    +0.234 C  
DOCKED: ATOM     44  O3  UNL     1      10.630  -5.530  -6.220 +0.00 -0.00    -0.274 OA 
DOCKED: ATOM     45  N3  UNL     1       9.202  -5.921  -4.465 +0.00 -0.00    -0.308 N  
DOCKED: ATOM     46  H22 UNL     1       8.943  -5.595  -3.540 +0.00 +0.00    +0.149 HD 
DOCKED: BRANCH  43  47
DOCKED: ATOM     47  C4  UNL     1      11.273  -4.681  -4.036 +0.00 +0.00    +0.160 C  
DOCKED: BRANCH  47  48
DOCKED: ATOM     48  N1  UNL     1      10.652  -4.670  -2.714 +0.00 -0.00    -0.302 N  
DOCKED: ATOM     49  C5  UNL     1       9.495  -3.947  -2.506 +0.00 +0.00    +0.234 C  
DOCKED: ATOM     50  O1  UNL     1       9.004  -3.217  -3.368 +0.00 -0.00    -0.274 OA 
DOCKED: ATOM     51  H9  UNL     1      10.752  -5.517  -2.169 +0.00 +0.00    +0.150 HD 
DOCKED: BRANCH  49  52
DOCKED: ATOM     52  C6  UNL     1       8.851  -4.110  -1.105 +0.00 +0.00    +0.161 C  
DOCKED: BRANCH  52  53
DOCKED: ATOM     53  N2  UNL     1       7.520  -3.518  -1.206 +0.00 -0.00    -0.304 N  
DOCKED: ATOM     54  C7  UNL     1       7.030  -2.669  -0.244 +0.00 +0.00    +0.211 C  
DOCKED: ATOM     55  C8  UNL     1       5.722  -2.017  -0.607 +0.00 +0.00    +0.109 C  
DOCKED: ATOM     56  O2  UNL     1       7.583  -2.473   0.834 +0.00 -0.00    -0.276 OA 
DOCKED: ATOM     57  H11 UNL     1       7.135  -3.467  -2.145 +0.00 +0.00    +0.149 HD 
DOCKED: ENDBRANCH  52  53
DOCKED: BRANCH  52  58
DOCKED: ATOM     58  C9  UNL     1       8.841  -5.595  -0.653 +0.00 +0.00    +0.012 C  
DOCKED: ATOM     59  C10 UNL     1      10.122  -5.924   0.127 +0.00 +0.00    +0.009 C  
DOCKED: ATOM     60  C11 UNL     1       7.628  -6.001   0.196 +0.00 +0.00    +0.009 C  
DOCKED: ENDBRANCH  52  58
DOCKED: ENDBRANCH  49  52
DOCKED: ENDBRANCH  47  48
DOCKED: BRANCH  47  61
DOCKED: ATOM     61  C3  UNL     1      12.677  -5.302  -4.000 +0.00 +0.00    +0.042 C  
DOCKED: BRANCH  61  62
DOCKED: ATOM     62  C2  UNL     1      12.995  -6.029  -2.689 +0.00 +0.00    +0.071 C  
DOCKED: BRANCH  62  64
DOCKED: ATOM     63  C1  UNL     1      12.422  -8.189  -4.286 +0.00 +0.00    +0.084 C  
DOCKED: ATOM     64  S1  UNL     1      12.083  -7.602  -2.610 +0.00 -0.00    -0.164 S  
DOCKED: ENDBRANCH  62  64
DOCKED: ENDBRANCH  61  62
DOCKED: ENDBRANCH  47  61
DOCKED: ENDBRANCH  43  47
DOCKED: ENDBRANCH  42  45
DOCKED: BRANCH  42  65
DOCKED: ATOM     65  C14 UNL     1       7.929  -7.937  -4.887 +0.00 +0.00    +0.028 C  
DOCKED: BRANCH  65  66
DOCKED: ATOM     66  C15 UNL     1       8.926  -8.525  -3.872 +0.00 -0.00    -0.015 C  
DOCKED: ATOM     67  C16 UNL     1       9.159 -10.008  -4.181 +0.00 +0.00    +0.007 C  
DOCKED: ATOM     68  C17 UNL     1       8.453  -8.376  -2.425 +0.00 +0.00    +0.007 C  
DOCKED: ENDBRANCH  65  66
DOCKED: ENDBRANCH  42  65
DOCKED: ENDBRANCH  39  42
DOCKED: ENDBRANCH  38  39
DOCKED: ENDBRANCH   1  38
DOCKED: TORSDOF 30
DOCKED: TER
DOCKED: ENDMDL
________________________________________________________________________________


    FINAL DOCKED STATE:
    ________________________


Run:   10 / 20
Time taken for this run:   4.973s

DOCKED: MODEL        10
DOCKED: USER    Run = 10
DOCKED: USER
DOCKED: USER    Estimated Free Energy of Binding    =  +8.95 kcal/mol  [=(1)+(2)+(3)-(4)]
DOCKED: USER
DOCKED: USER    (1) Final Intermolecular Energy     =  +0.00 kcal/mol
DOCKED: USER        vdW + Hbond + desolv Energy     =  +0.00 kcal/mol
DOCKED: USER        Electrostatic Energy            =  +0.00 kcal/mol
DOCKED: USER        Moving Ligand-Fixed Receptor    =  +0.00 kcal/mol
DOCKED: USER        Moving Ligand-Moving Receptor   =  +0.00 kcal/mol
DOCKED: USER    (2) Final Total Internal Energy     = -23.94 kcal/mol
DOCKED: USER    (3) Torsional Free Energy           =  +8.95 kcal/mol
DOCKED: USER    (4) Unbound System's Energy         = -23.94 kcal/mol
DOCKED: USER
DOCKED: USER
DOCKED: REMARK  Name = ligands/ligand_3.pdb
DOCKED: REMARK  39 active torsions:
DOCKED: REMARK  status: ('A' for Active; 'I' for Inactive)
DOCKED: REMARK    1  A    between atoms: C1_1  and  S1_2
DOCKED: REMARK    2  A    between atoms: S1_2  and  C2_3
DOCKED: REMARK    3  A    between atoms: C2_3  and  C3_4
DOCKED: REMARK    4  A    between atoms: C3_4  and  C4_5
DOCKED: REMARK    5  A    between atoms: C4_5  and  N1_6
DOCKED: REMARK    6  A    between atoms: C4_5  and  C12_17
DOCKED: REMARK    7  A    between atoms: C5_7  and  C6_9
DOCKED: REMARK    8  A    between atoms: C6_9  and  N2_10
DOCKED: REMARK    9  A    between atoms: C6_9  and  C9_14
DOCKED: REMARK   10  A    between atoms: C7_11  and  C8_12
DOCKED: REMARK   11  A    between atoms: C9_14  and  C10_15
DOCKED: REMARK   12  A    between atoms: C9_14  and  C11_16
DOCKED: REMARK   13  A    between atoms: N3_19  and  C13_20
DOCKED: REMARK   14  A    between atoms: C13_20  and  C14_21
DOCKED: REMARK   15  A    between atoms: C13_20  and  C18_25
DOCKED: REMARK   16  A    between atoms: C14_21  and  C15_22
DOCKED: REMARK   17  A    between atoms: C15_22  and  C16_23
DOCKED: REMARK   18  A    between atoms: C15_22  and  C17_24
DOCKED: REMARK   19  A    between atoms: C18_25  and  O4_26
DOCKED: REMARK   20  A    between atoms: C18_25  and  C19_27
DOCKED: REMARK   21  A    between atoms: C19_27  and  C20_28
DOCKED: REMARK   22  A    between atoms: C20_28  and  C21_29
DOCKED: REMARK   23  A    between atoms: C20_28  and  C39_57
DOCKED: REMARK   24  A    between atoms: N4_31  and  C22_32
DOCKED: REMARK   25  A    between atoms: C22_32  and  C23_33
DOCKED: REMARK   26  A    between atoms: C22_32  and  C24_34
DOCKED: REMARK   27  A    between atoms: N5_36  and  C25_37
DOCKED: REMARK   28  A    between atoms: C25_37  and  C26_38
DOCKED: REMARK   29  A    between atoms: C25_37  and  C29_43
DOCKED: REMARK   30  A    between atoms: C26_38  and  C27_39
DOCKED: REMARK   31  A    between atoms: C27_39  and  C28_40
DOCKED: REMARK   32  A    between atoms: C28_40  and  O8_42
DOCKED: REMARK   33  A    between atoms: N6_45  and  C30_46
DOCKED: REMARK   34  A    between atoms: C30_46  and  C31_47
DOCKED: REMARK   35  A    between atoms: C30_46  and  C38_54
DOCKED: REMARK   36  A    between atoms: C31_47  and  C32_48
DOCKED: REMARK   37  A    between atoms: C38_54  and  O11_56
DOCKED: REMARK   38  A    between atoms: C39_57  and  C40_58
DOCKED: REMARK   39  A    between atoms: C39_57  and  C41_59
DOCKED: REMARK                            x       y       z     vdW  Elec       q    Type
DOCKED: REMARK                         _______ _______ _______ _____ _____    ______ ____
DOCKED: USER                              x       y       z     vdW  Elec       q    Type
DOCKED: USER                           _______ _______ _______ _____ _____    ______ ____
DOCKED: ROOT
DOCKED: ATOM      1  C20 UNL     1       6.229  -2.394   0.601 +0.00 +0.00    +0.080 C  
DOCKED: ENDROOT
DOCKED: BRANCH   1   2
DOCKED: ATOM      2  C21 UNL     1       6.285  -2.579  -0.923 +0.00 +0.00    +0.217 C  
DOCKED: ATOM      3  O5  UNL     1       6.286  -3.677  -1.466 +0.00 -0.00    -0.275 OA 
DOCKED: ATOM      4  N4  UNL     1       6.374  -1.396  -1.632 +0.00 -0.00    -0.304 N  
DOCKED: ATOM      5  H38 UNL     1       6.717  -0.597  -1.107 +0.00 +0.00    +0.149 HD 
DOCKED: BRANCH   4   6
DOCKED: ATOM      6  C22 UNL     1       6.866  -1.429  -3.008 +0.00 +0.00    +0.156 C  
DOCKED: ATOM      7  C23 UNL     1       5.733  -1.211  -4.001 +0.00 +0.00    +0.038 C  
DOCKED: BRANCH   6   8
DOCKED: ATOM      8  C24 UNL     1       7.902  -0.293  -3.127 +0.00 +0.00    +0.234 C  
DOCKED: ATOM      9  O6  UNL     1       8.525   0.130  -2.150 +0.00 -0.00    -0.274 OA 
DOCKED: ATOM     10  N5  UNL     1       8.056   0.227  -4.387 +0.00 -0.00    -0.302 N  
DOCKED: ATOM     11  H43 UNL     1       7.339   0.021  -5.086 +0.00 +0.00    +0.150 HD 
DOCKED: BRANCH  10  12
DOCKED: ATOM     12  C25 UNL     1       8.904   1.383  -4.632 +0.00 +0.00    +0.159 C  
DOCKED: BRANCH  12  13
DOCKED: ATOM     13  C29 UNL     1      10.232   1.244  -3.861 +0.00 +0.00    +0.234 C  
DOCKED: ATOM     14  O9  UNL     1      11.168   0.561  -4.271 +0.00 -0.00    -0.274 OA 
DOCKED: ATOM     15  N6  UNL     1      10.240   1.864  -2.629 +0.00 -0.00    -0.301 N  
DOCKED: ATOM     16  H50 UNL     1       9.353   2.182  -2.254 +0.00 +0.00    +0.150 HD 
DOCKED: BRANCH  15  17
DOCKED: ATOM     17  C30 UNL     1      11.318   1.615  -1.668 +0.00 +0.00    +0.186 C  
DOCKED: BRANCH  17  18
DOCKED: ATOM     18  C38 UNL     1      10.676   1.153  -0.359 +0.00 +0.00    +0.326 C  
DOCKED: ATOM     19  O10 UNL     1      11.140   0.336   0.426 +0.00 -0.00    -0.249 OA 
DOCKED: BRANCH  18  20
DOCKED: ATOM     20  O11 UNL     1       9.466   1.703  -0.135 +0.00 -0.00    -0.479 OA 
DOCKED: ATOM     21  H59 UNL     1       8.909   1.380  -0.876 +0.00 +0.00    +0.295 HD 
DOCKED: ENDBRANCH  18  20
DOCKED: ENDBRANCH  17  18
DOCKED: BRANCH  17  22
DOCKED: ATOM     22  C31 UNL     1      12.144   2.880  -1.389 +0.00 +0.00    +0.069 C  
DOCKED: BRANCH  22  23
DOCKED: ATOM     23  C32 UNL     1      11.297   4.108  -1.126 +0.00 -0.00    -0.045 A  
DOCKED: ATOM     24  C33 UNL     1      11.230   4.662   0.159 +0.00 +0.00    +0.004 A  
DOCKED: ATOM     25  C34 UNL     1      10.449   5.794   0.394 +0.00 +0.00    +0.000 A  
DOCKED: ATOM     26  C35 UNL     1       9.730   6.381  -0.645 +0.00 +0.00    +0.000 A  
DOCKED: ATOM     27  C36 UNL     1       9.797   5.842  -1.924 +0.00 +0.00    +0.000 A  
DOCKED: ATOM     28  C37 UNL     1      10.579   4.715  -2.168 +0.00 +0.00    +0.004 A  
DOCKED: ENDBRANCH  22  23
DOCKED: ENDBRANCH  17  22
DOCKED: ENDBRANCH  15  17
DOCKED: ENDBRANCH  12  13
DOCKED: BRANCH  12  29
DOCKED: ATOM     29  C26 UNL     1       8.184   2.705  -4.297 +0.00 +0.00    +0.043 C  
DOCKED: BRANCH  29  30
DOCKED: ATOM     30  C27 UNL     1       6.985   2.625  -3.346 +0.00 +0.00    +0.123 C  
DOCKED: BRANCH  30  31
DOCKED: ATOM     31  C28 UNL     1       7.340   2.575  -1.882 +0.00 +0.00    +0.305 C  
DOCKED: ATOM     32  O7  UNL     1       8.017   3.372  -1.257 +0.00 -0.00    -0.251 OA 
DOCKED: BRANCH  31  33
DOCKED: ATOM     33  O8  UNL     1       6.757   1.532  -1.261 +0.00 -0.00    -0.481 OA 
DOCKED: ATOM     34  H49 UNL     1       7.400   1.261  -0.573 +0.00 +0.00    +0.295 HD 
DOCKED: ENDBRANCH  31  33
DOCKED: ENDBRANCH  30  31
DOCKED: ENDBRANCH  29  30
DOCKED: ENDBRANCH  12  29
DOCKED: ENDBRANCH  10  12
DOCKED: ENDBRANCH   6   8
DOCKED: ENDBRANCH   4   6
DOCKED: ENDBRANCH   1   2
DOCKED: BRANCH   1  35
DOCKED: ATOM     35  C39 UNL     1       5.194  -1.311   1.012 +0.00 -0.00    -0.005 C  
DOCKED: ATOM     36  C40 UNL     1       3.939  -1.359   0.131 +0.00 +0.00    +0.008 C  
DOCKED: ATOM     37  C41 UNL     1       4.785  -1.318   2.484 +0.00 +0.00    +0.008 C  
DOCKED: ENDBRANCH   1  35
DOCKED: BRANCH   1  38
DOCKED: ATOM     38  C19 UNL     1       7.624  -2.337   1.277 +0.00 +0.00    +0.046 C  
DOCKED: BRANCH  38  39
DOCKED: ATOM     39  C18 UNL     1       8.475  -1.077   1.034 +0.00 +0.00    +0.135 C  
DOCKED: BRANCH  39  40
DOCKED: ATOM     40  O4  UNL     1       7.756  -0.111   0.262 +0.00 -0.00    -0.390 OA 
DOCKED: ATOM     41  H34 UNL     1       8.277   0.101  -0.533 +0.00 +0.00    +0.210 HD 
DOCKED: ENDBRANCH  39  40
DOCKED: BRANCH  39  42
DOCKED: ATOM     42  C13 UNL     1       8.987  -0.389   2.341 +0.00 +0.00    +0.102 C  
DOCKED: BRANCH  42  45
DOCKED: ATOM     43  C12 UNL     1       9.509   2.016   2.727 +0.00 +0.00    +0.234 C  
DOCKED: ATOM     44  O3  UNL     1      10.512   1.772   3.392 +0.00 -0.00    -0.274 OA 
DOCKED: ATOM     45  N3  UNL     1       8.665   1.042   2.239 +0.00 -0.00    -0.308 N  
DOCKED: ATOM     46  H22 UNL     1       8.013   1.297   1.506 +0.00 +0.00    +0.149 HD 
DOCKED: BRANCH  43  47
DOCKED: ATOM     47  C4  UNL     1       9.137   3.447   2.293 +0.00 +0.00    +0.160 C  
DOCKED: BRANCH  47  48
DOCKED: ATOM     48  N1  UNL     1       7.891   3.418   1.532 +0.00 -0.00    -0.302 N  
DOCKED: ATOM     49  C5  UNL     1       7.214   4.594   1.280 +0.00 +0.00    +0.234 C  
DOCKED: ATOM     50  O1  UNL     1       7.560   5.675   1.759 +0.00 -0.00    -0.274 OA 
DOCKED: ATOM     51  H9  UNL     1       7.823   2.704   0.818 +0.00 +0.00    +0.150 HD 
DOCKED: BRANCH  49  52
DOCKED: ATOM     52  C6  UNL     1       5.977   4.465   0.356 +0.00 +0.00    +0.161 C  
DOCKED: BRANCH  52  53
DOCKED: ATOM     53  N2  UNL     1       4.959   3.774   1.143 +0.00 -0.00    -0.304 N  
DOCKED: ATOM     54  C7  UNL     1       5.085   2.451   1.488 +0.00 +0.00    +0.211 C  
DOCKED: ATOM     55  C8  UNL     1       4.035   1.963   2.450 +0.00 +0.00    +0.109 C  
DOCKED: ATOM     56  O2  UNL     1       5.955   1.711   1.037 +0.00 -0.00    -0.276 OA 
DOCKED: ATOM     57  H11 UNL     1       4.364   4.372   1.709 +0.00 +0.00    +0.149 HD 
DOCKED: ENDBRANCH  52  53
DOCKED: BRANCH  52  58
DOCKED: ATOM     58  C9  UNL     1       5.519   5.849  -0.178 +0.00 +0.00    +0.012 C  
DOCKED: ATOM     59  C10 UNL     1       6.128   6.115  -1.562 +0.00 +0.00    +0.009 C  
DOCKED: ATOM     60  C11 UNL     1       3.998   6.036  -0.264 +0.00 +0.00    +0.009 C  
DOCKED: ENDBRANCH  52  58
DOCKED: ENDBRANCH  49  52
DOCKED: ENDBRANCH  47  48
DOCKED: BRANCH  47  61
DOCKED: ATOM     61  C3  UNL     1       9.038   4.379   3.510 +0.00 +0.00    +0.042 C  
DOCKED: BRANCH  61  62
DOCKED: ATOM     62  C2  UNL     1       8.443   3.709   4.753 +0.00 +0.00    +0.071 C  
DOCKED: BRANCH  62  64
DOCKED: ATOM     63  C1  UNL     1       6.093   5.122   4.602 +0.00 +0.00    +0.084 C  
DOCKED: ATOM     64  S1  UNL     1       6.664   3.411   4.509 +0.00 -0.00    -0.164 S  
DOCKED: ENDBRANCH  62  64
DOCKED: ENDBRANCH  61  62
DOCKED: ENDBRANCH  47  61
DOCKED: ENDBRANCH  43  47
DOCKED: ENDBRANCH  42  45
DOCKED: BRANCH  42  65
DOCKED: ATOM     65  C14 UNL     1       8.376  -0.890   3.669 +0.00 +0.00    +0.028 C  
DOCKED: BRANCH  65  66
DOCKED: ATOM     66  C15 UNL     1       7.761   0.160   4.611 +0.00 -0.00    -0.015 C  
DOCKED: ATOM     67  C16 UNL     1       8.700   0.396   5.799 +0.00 +0.00    +0.007 C  
DOCKED: ATOM     68  C17 UNL     1       6.381  -0.245   5.130 +0.00 +0.00    +0.007 C  
DOCKED: ENDBRANCH  65  66
DOCKED: ENDBRANCH  42  65
DOCKED: ENDBRANCH  39  42
DOCKED: ENDBRANCH  38  39
DOCKED: ENDBRANCH   1  38
DOCKED: TORSDOF 30
DOCKED: TER
DOCKED: ENDMDL
________________________________________________________________________________


    FINAL DOCKED STATE:
    ________________________


Run:   11 / 20
Time taken for this run:   4.973s

DOCKED: MODEL        11
DOCKED: USER    Run = 11
DOCKED: USER
DOCKED: USER    Estimated Free Energy of Binding    =  +8.95 kcal/mol  [=(1)+(2)+(3)-(4)]
DOCKED: USER
DOCKED: USER    (1) Final Intermolecular Energy     =  +0.00 kcal/mol
DOCKED: USER        vdW + Hbond + desolv Energy     =  +0.00 kcal/mol
DOCKED: USER        Electrostatic Energy            =  +0.00 kcal/mol
DOCKED: USER        Moving Ligand-Fixed Receptor    =  +0.00 kcal/mol
DOCKED: USER        Moving Ligand-Moving Receptor   =  +0.00 kcal/mol
DOCKED: USER    (2) Final Total Internal Energy     = -24.14 kcal/mol
DOCKED: USER    (3) Torsional Free Energy           =  +8.95 kcal/mol
DOCKED: USER    (4) Unbound System's Energy         = -24.14 kcal/mol
DOCKED: USER
DOCKED: USER
DOCKED: REMARK  Name = ligands/ligand_3.pdb
DOCKED: REMARK  39 active torsions:
DOCKED: REMARK  status: ('A' for Active; 'I' for Inactive)
DOCKED: REMARK    1  A    between atoms: C1_1  and  S1_2
DOCKED: REMARK    2  A    between atoms: S1_2  and  C2_3
DOCKED: REMARK    3  A    between atoms: C2_3  and  C3_4
DOCKED: REMARK    4  A    between atoms: C3_4  and  C4_5
DOCKED: REMARK    5  A    between atoms: C4_5  and  N1_6
DOCKED: REMARK    6  A    between atoms: C4_5  and  C12_17
DOCKED: REMARK    7  A    between atoms: C5_7  and  C6_9
DOCKED: REMARK    8  A    between atoms: C6_9  and  N2_10
DOCKED: REMARK    9  A    between atoms: C6_9  and  C9_14
DOCKED: REMARK   10  A    between atoms: C7_11  and  C8_12
DOCKED: REMARK   11  A    between atoms: C9_14  and  C10_15
DOCKED: REMARK   12  A    between atoms: C9_14  and  C11_16
DOCKED: REMARK   13  A    between atoms: N3_19  and  C13_20
DOCKED: REMARK   14  A    between atoms: C13_20  and  C14_21
DOCKED: REMARK   15  A    between atoms: C13_20  and  C18_25
DOCKED: REMARK   16  A    between atoms: C14_21  and  C15_22
DOCKED: REMARK   17  A    between atoms: C15_22  and  C16_23
DOCKED: REMARK   18  A    between atoms: C15_22  and  C17_24
DOCKED: REMARK   19  A    between atoms: C18_25  and  O4_26
DOCKED: REMARK   20  A    between atoms: C18_25  and  C19_27
DOCKED: REMARK   21  A    between atoms: C19_27  and  C20_28
DOCKED: REMARK   22  A    between atoms: C20_28  and  C21_29
DOCKED: REMARK   23  A    between atoms: C20_28  and  C39_57
DOCKED: REMARK   24  A    between atoms: N4_31  and  C22_32
DOCKED: REMARK   25  A    between atoms: C22_32  and  C23_33
DOCKED: REMARK   26  A    between atoms: C22_32  and  C24_34
DOCKED: REMARK   27  A    between atoms: N5_36  and  C25_37
DOCKED: REMARK   28  A    between atoms: C25_37  and  C26_38
DOCKED: REMARK   29  A    between atoms: C25_37  and  C29_43
DOCKED: REMARK   30  A    between atoms: C26_38  and  C27_39
DOCKED: REMARK   31  A    between atoms: C27_39  and  C28_40
DOCKED: REMARK   32  A    between atoms: C28_40  and  O8_42
DOCKED: REMARK   33  A    between atoms: N6_45  and  C30_46
DOCKED: REMARK   34  A    between atoms: C30_46  and  C31_47
DOCKED: REMARK   35  A    between atoms: C30_46  and  C38_54
DOCKED: REMARK   36  A    between atoms: C31_47  and  C32_48
DOCKED: REMARK   37  A    between atoms: C38_54  and  O11_56
DOCKED: REMARK   38  A    between atoms: C39_57  and  C40_58
DOCKED: REMARK   39  A    between atoms: C39_57  and  C41_59
DOCKED: REMARK                            x       y       z     vdW  Elec       q    Type
DOCKED: REMARK                         _______ _______ _______ _____ _____    ______ ____
DOCKED: USER                              x       y       z     vdW  Elec       q    Type
DOCKED: USER                           _______ _______ _______ _____ _____    ______ ____
DOCKED: ROOT
DOCKED: ATOM      1  C20 UNL     1      11.356  -7.493  -6.542 +0.00 +0.00    +0.080 C  
DOCKED: ENDROOT
DOCKED: BRANCH   1   2
DOCKED: ATOM      2  C21 UNL     1      11.399  -6.843  -5.151 +0.00 +0.00    +0.217 C  
DOCKED: ATOM      3  O5  UNL     1      11.037  -7.417  -4.131 +0.00 -0.00    -0.275 OA 
DOCKED: ATOM      4  N4  UNL     1      11.849  -5.537  -5.152 +0.00 -0.00    -0.304 N  
DOCKED: ATOM      5  H38 UNL     1      11.784  -5.053  -6.043 +0.00 +0.00    +0.149 HD 
DOCKED: BRANCH   4   6
DOCKED: ATOM      6  C22 UNL     1      11.534  -4.678  -4.011 +0.00 +0.00    +0.156 C  
DOCKED: ATOM      7  C23 UNL     1      10.032  -4.605  -3.778 +0.00 +0.00    +0.038 C  
DOCKED: BRANCH   6   8
DOCKED: ATOM      8  C24 UNL     1      12.232  -5.308  -2.788 +0.00 +0.00    +0.234 C  
DOCKED: ATOM      9  O6  UNL     1      13.439  -5.168  -2.579 +0.00 -0.00    -0.274 OA 
DOCKED: ATOM     10  N5  UNL     1      11.418  -6.053  -1.972 +0.00 -0.00    -0.302 N  
DOCKED: ATOM     11  H43 UNL     1      10.507  -6.343  -2.334 +0.00 +0.00    +0.150 HD 
DOCKED: BRANCH  10  12
DOCKED: ATOM     12  C25 UNL     1      11.954  -6.808  -0.851 +0.00 +0.00    +0.159 C  
DOCKED: BRANCH  12  13
DOCKED: ATOM     13  C29 UNL     1      12.829  -7.971  -1.360 +0.00 +0.00    +0.234 C  
DOCKED: ATOM     14  O9  UNL     1      14.034  -8.045  -1.129 +0.00 -0.00    -0.274 OA 
DOCKED: ATOM     15  N6  UNL     1      12.167  -8.861  -2.181 +0.00 -0.00    -0.301 N  
DOCKED: ATOM     16  H50 UNL     1      11.254  -8.593  -2.530 +0.00 +0.00    +0.150 HD 
DOCKED: BRANCH  15  17
DOCKED: ATOM     17  C30 UNL     1      12.905  -9.868  -2.949 +0.00 +0.00    +0.186 C  
DOCKED: BRANCH  17  18
DOCKED: ATOM     18  C38 UNL     1      11.994 -10.347  -4.080 +0.00 +0.00    +0.326 C  
DOCKED: ATOM     19  O10 UNL     1      12.347 -10.652  -5.214 +0.00 -0.00    -0.249 OA 
DOCKED: BRANCH  18  20
DOCKED: ATOM     20  O11 UNL     1      10.690 -10.366  -3.744 +0.00 -0.00    -0.479 OA 
DOCKED: ATOM     21  H59 UNL     1      10.440  -9.420  -3.674 +0.00 +0.00    +0.295 HD 
DOCKED: ENDBRANCH  18  20
DOCKED: ENDBRANCH  17  18
DOCKED: BRANCH  17  22
DOCKED: ATOM     22  C31 UNL     1      13.295 -11.078  -2.088 +0.00 +0.00    +0.069 C  
DOCKED: BRANCH  22  23
DOCKED: ATOM     23  C32 UNL     1      12.348 -11.325  -0.931 +0.00 -0.00    -0.045 A  
DOCKED: ATOM     24  C33 UNL     1      11.231 -12.154  -1.094 +0.00 +0.00    +0.004 A  
DOCKED: ATOM     25  C34 UNL     1      10.363 -12.378  -0.024 +0.00 +0.00    +0.000 A  
DOCKED: ATOM     26  C35 UNL     1      10.601 -11.781   1.212 +0.00 +0.00    +0.000 A  
DOCKED: ATOM     27  C36 UNL     1      11.712 -10.964   1.384 +0.00 +0.00    +0.000 A  
DOCKED: ATOM     28  C37 UNL     1      12.586 -10.740   0.322 +0.00 +0.00    +0.004 A  
DOCKED: ENDBRANCH  22  23
DOCKED: ENDBRANCH  17  22
DOCKED: ENDBRANCH  15  17
DOCKED: ENDBRANCH  12  13
DOCKED: BRANCH  12  29
DOCKED: ATOM     29  C26 UNL     1      10.840  -7.301   0.095 +0.00 +0.00    +0.043 C  
DOCKED: BRANCH  29  30
DOCKED: ATOM     30  C27 UNL     1       9.457  -7.538  -0.521 +0.00 +0.00    +0.123 C  
DOCKED: BRANCH  30  31
DOCKED: ATOM     31  C28 UNL     1       9.429  -8.536  -1.651 +0.00 +0.00    +0.305 C  
DOCKED: ATOM     32  O7  UNL     1       9.616  -9.738  -1.582 +0.00 -0.00    -0.251 OA 
DOCKED: BRANCH  31  33
DOCKED: ATOM     33  O8  UNL     1       9.100  -7.958  -2.822 +0.00 -0.00    -0.481 OA 
DOCKED: ATOM     34  H49 UNL     1       9.356  -8.612  -3.504 +0.00 +0.00    +0.295 HD 
DOCKED: ENDBRANCH  31  33
DOCKED: ENDBRANCH  30  31
DOCKED: ENDBRANCH  29  30
DOCKED: ENDBRANCH  12  29
DOCKED: ENDBRANCH  10  12
DOCKED: ENDBRANCH   6   8
DOCKED: ENDBRANCH   4   6
DOCKED: ENDBRANCH   1   2
DOCKED: BRANCH   1  35
DOCKED: ATOM     35  C39 UNL     1      12.561  -7.056  -7.420 +0.00 -0.00    -0.005 C  
DOCKED: ATOM     36  C40 UNL     1      13.897  -7.514  -6.820 +0.00 +0.00    +0.008 C  
DOCKED: ATOM     37  C41 UNL     1      12.491  -7.473  -8.888 +0.00 +0.00    +0.008 C  
DOCKED: ENDBRANCH   1  35
DOCKED: BRANCH   1  38
DOCKED: ATOM     38  C19 UNL     1       9.952  -7.469  -7.201 +0.00 +0.00    +0.046 C  
DOCKED: BRANCH  38  39
DOCKED: ATOM     39  C18 UNL     1       8.876  -8.395  -6.605 +0.00 +0.00    +0.135 C  
DOCKED: BRANCH  39  40
DOCKED: ATOM     40  O4  UNL     1       9.441  -9.283  -5.636 +0.00 -0.00    -0.390 OA 
DOCKED: ATOM     41  H34 UNL     1       9.520  -8.808  -4.789 +0.00 +0.00    +0.210 HD 
DOCKED: ENDBRANCH  39  40
DOCKED: BRANCH  39  42
DOCKED: ATOM     42  C13 UNL     1       7.674  -7.640  -5.950 +0.00 +0.00    +0.102 C  
DOCKED: BRANCH  42  45
DOCKED: ATOM     43  C12 UNL     1       5.903  -9.111  -4.998 +0.00 +0.00    +0.234 C  
DOCKED: ATOM     44  O3  UNL     1       5.110  -8.876  -5.905 +0.00 -0.00    -0.274 OA 
DOCKED: ATOM     45  N3  UNL     1       7.137  -8.507  -4.890 +0.00 -0.00    -0.308 N  
DOCKED: ATOM     46  H22 UNL     1       7.822  -8.925  -4.271 +0.00 +0.00    +0.149 HD 
DOCKED: BRANCH  43  47
DOCKED: ATOM     47  C4  UNL     1       5.631 -10.184  -3.925 +0.00 +0.00    +0.160 C  
DOCKED: BRANCH  47  48
DOCKED: ATOM     48  N1  UNL     1       6.413 -11.381  -4.222 +0.00 -0.00    -0.302 N  
DOCKED: ATOM     49  C5  UNL     1       7.781 -11.367  -4.043 +0.00 +0.00    +0.234 C  
DOCKED: ATOM     50  O1  UNL     1       8.401 -10.347  -3.736 +0.00 -0.00    -0.274 OA 
DOCKED: ATOM     51  H9  UNL     1       5.951 -12.266  -4.055 +0.00 +0.00    +0.150 HD 
DOCKED: BRANCH  49  52
DOCKED: ATOM     52  C6  UNL     1       8.496 -12.725  -4.262 +0.00 +0.00    +0.161 C  
DOCKED: BRANCH  52  53
DOCKED: ATOM     53  N2  UNL     1       9.679 -12.430  -5.066 +0.00 -0.00    -0.304 N  
DOCKED: ATOM     54  C7  UNL     1      10.072 -13.243  -6.100 +0.00 +0.00    +0.211 C  
DOCKED: ATOM     55  C8  UNL     1      11.201 -12.684  -6.926 +0.00 +0.00    +0.109 C  
DOCKED: ATOM     56  O2  UNL     1       9.578 -14.343  -6.325 +0.00 -0.00    -0.276 OA 
DOCKED: ATOM     57  H11 UNL     1       9.973 -11.458  -5.069 +0.00 +0.00    +0.149 HD 
DOCKED: ENDBRANCH  52  53
DOCKED: BRANCH  52  58
DOCKED: ATOM     58  C9  UNL     1       8.816 -13.422  -2.913 +0.00 +0.00    +0.012 C  
DOCKED: ATOM     59  C10 UNL     1       7.540 -14.024  -2.307 +0.00 +0.00    +0.009 C  
DOCKED: ATOM     60  C11 UNL     1       9.888 -14.518  -2.992 +0.00 +0.00    +0.009 C  
DOCKED: ENDBRANCH  52  58
DOCKED: ENDBRANCH  49  52
DOCKED: ENDBRANCH  47  48
DOCKED: BRANCH  47  61
DOCKED: ATOM     61  C3  UNL     1       5.933  -9.641  -2.520 +0.00 +0.00    +0.042 C  
DOCKED: BRANCH  61  62
DOCKED: ATOM     62  C2  UNL     1       5.576 -10.616  -1.393 +0.00 +0.00    +0.071 C  
DOCKED: BRANCH  62  64
DOCKED: ATOM     63  C1  UNL     1       7.196  -9.839   0.684 +0.00 +0.00    +0.084 C  
DOCKED: ATOM     64  S1  UNL     1       7.087 -11.164  -0.540 +0.00 -0.00    -0.164 S  
DOCKED: ENDBRANCH  62  64
DOCKED: ENDBRANCH  61  62
DOCKED: ENDBRANCH  47  61
DOCKED: ENDBRANCH  43  47
DOCKED: ENDBRANCH  42  45
DOCKED: BRANCH  42  65
DOCKED: ATOM     65  C14 UNL     1       7.991  -6.278  -5.293 +0.00 +0.00    +0.028 C  
DOCKED: BRANCH  65  66
DOCKED: ATOM     66  C15 UNL     1       6.843  -5.551  -4.570 +0.00 -0.00    -0.015 C  
DOCKED: ATOM     67  C16 UNL     1       6.764  -6.033  -3.117 +0.00 +0.00    +0.007 C  
DOCKED: ATOM     68  C17 UNL     1       5.489  -5.761  -5.249 +0.00 +0.00    +0.007 C  
DOCKED: ENDBRANCH  65  66
DOCKED: ENDBRANCH  42  65
DOCKED: ENDBRANCH  39  42
DOCKED: ENDBRANCH  38  39
DOCKED: ENDBRANCH   1  38
DOCKED: TORSDOF 30
DOCKED: TER
DOCKED: ENDMDL
________________________________________________________________________________


    FINAL DOCKED STATE:
    ________________________


Run:   12 / 20
Time taken for this run:   4.973s

DOCKED: MODEL        12
DOCKED: USER    Run = 12
DOCKED: USER
DOCKED: USER    Estimated Free Energy of Binding    =  +8.95 kcal/mol  [=(1)+(2)+(3)-(4)]
DOCKED: USER
DOCKED: USER    (1) Final Intermolecular Energy     =  +0.00 kcal/mol
DOCKED: USER        vdW + Hbond + desolv Energy     =  +0.00 kcal/mol
DOCKED: USER        Electrostatic Energy            =  +0.00 kcal/mol
DOCKED: USER        Moving Ligand-Fixed Receptor    =  +0.00 kcal/mol
DOCKED: USER        Moving Ligand-Moving Receptor   =  +0.00 kcal/mol
DOCKED: USER    (2) Final Total Internal Energy     = -24.15 kcal/mol
DOCKED: USER    (3) Torsional Free Energy           =  +8.95 kcal/mol
DOCKED: USER    (4) Unbound System's Energy         = -24.15 kcal/mol
DOCKED: USER
DOCKED: USER
DOCKED: REMARK  Name = ligands/ligand_3.pdb
DOCKED: REMARK  39 active torsions:
DOCKED: REMARK  status: ('A' for Active; 'I' for Inactive)
DOCKED: REMARK    1  A    between atoms: C1_1  and  S1_2
DOCKED: REMARK    2  A    between atoms: S1_2  and  C2_3
DOCKED: REMARK    3  A    between atoms: C2_3  and  C3_4
DOCKED: REMARK    4  A    between atoms: C3_4  and  C4_5
DOCKED: REMARK    5  A    between atoms: C4_5  and  N1_6
DOCKED: REMARK    6  A    between atoms: C4_5  and  C12_17
DOCKED: REMARK    7  A    between atoms: C5_7  and  C6_9
DOCKED: REMARK    8  A    between atoms: C6_9  and  N2_10
DOCKED: REMARK    9  A    between atoms: C6_9  and  C9_14
DOCKED: REMARK   10  A    between atoms: C7_11  and  C8_12
DOCKED: REMARK   11  A    between atoms: C9_14  and  C10_15
DOCKED: REMARK   12  A    between atoms: C9_14  and  C11_16
DOCKED: REMARK   13  A    between atoms: N3_19  and  C13_20
DOCKED: REMARK   14  A    between atoms: C13_20  and  C14_21
DOCKED: REMARK   15  A    between atoms: C13_20  and  C18_25
DOCKED: REMARK   16  A    between atoms: C14_21  and  C15_22
DOCKED: REMARK   17  A    between atoms: C15_22  and  C16_23
DOCKED: REMARK   18  A    between atoms: C15_22  and  C17_24
DOCKED: REMARK   19  A    between atoms: C18_25  and  O4_26
DOCKED: REMARK   20  A    between atoms: C18_25  and  C19_27
DOCKED: REMARK   21  A    between atoms: C19_27  and  C20_28
DOCKED: REMARK   22  A    between atoms: C20_28  and  C21_29
DOCKED: REMARK   23  A    between atoms: C20_28  and  C39_57
DOCKED: REMARK   24  A    between atoms: N4_31  and  C22_32
DOCKED: REMARK   25  A    between atoms: C22_32  and  C23_33
DOCKED: REMARK   26  A    between atoms: C22_32  and  C24_34
DOCKED: REMARK   27  A    between atoms: N5_36  and  C25_37
DOCKED: REMARK   28  A    between atoms: C25_37  and  C26_38
DOCKED: REMARK   29  A    between atoms: C25_37  and  C29_43
DOCKED: REMARK   30  A    between atoms: C26_38  and  C27_39
DOCKED: REMARK   31  A    between atoms: C27_39  and  C28_40
DOCKED: REMARK   32  A    between atoms: C28_40  and  O8_42
DOCKED: REMARK   33  A    between atoms: N6_45  and  C30_46
DOCKED: REMARK   34  A    between atoms: C30_46  and  C31_47
DOCKED: REMARK   35  A    between atoms: C30_46  and  C38_54
DOCKED: REMARK   36  A    between atoms: C31_47  and  C32_48
DOCKED: REMARK   37  A    between atoms: C38_54  and  O11_56
DOCKED: REMARK   38  A    between atoms: C39_57  and  C40_58
DOCKED: REMARK   39  A    between atoms: C39_57  and  C41_59
DOCKED: REMARK                            x       y       z     vdW  Elec       q    Type
DOCKED: REMARK                         _______ _______ _______ _____ _____    ______ ____
DOCKED: USER                              x       y       z     vdW  Elec       q    Type
DOCKED: USER                           _______ _______ _______ _____ _____    ______ ____
DOCKED: ROOT
DOCKED: ATOM      1  C20 UNL     1      11.419  -4.242  -1.231 +0.00 +0.00    +0.080 C  
DOCKED: ENDROOT
DOCKED: BRANCH   1   2
DOCKED: ATOM      2  C21 UNL     1      12.576  -3.420  -0.645 +0.00 +0.00    +0.217 C  
DOCKED: ATOM      3  O5  UNL     1      13.050  -3.625   0.466 +0.00 -0.00    -0.275 OA 
DOCKED: ATOM      4  N4  UNL     1      13.014  -2.398  -1.466 +0.00 -0.00    -0.304 N  
DOCKED: ATOM      5  H38 UNL     1      12.353  -2.091  -2.173 +0.00 +0.00    +0.149 HD 
DOCKED: BRANCH   4   6
DOCKED: ATOM      6  C22 UNL     1      13.776  -1.295  -0.881 +0.00 +0.00    +0.156 C  
DOCKED: ATOM      7  C23 UNL     1      13.005  -0.639   0.256 +0.00 +0.00    +0.038 C  
DOCKED: BRANCH   6   8
DOCKED: ATOM      8  C24 UNL     1      15.088  -1.908  -0.348 +0.00 +0.00    +0.234 C  
DOCKED: ATOM      9  O6  UNL     1      16.038  -2.166  -1.091 +0.00 -0.00    -0.274 OA 
DOCKED: ATOM     10  N5  UNL     1      15.106  -2.169   0.999 +0.00 -0.00    -0.302 N  
DOCKED: ATOM     11  H43 UNL     1      14.215  -2.179   1.501 +0.00 +0.00    +0.150 HD 
DOCKED: BRANCH  10  12
DOCKED: ATOM     12  C25 UNL     1      16.223  -2.857   1.623 +0.00 +0.00    +0.159 C  
DOCKED: BRANCH  12  13
DOCKED: ATOM     13  C29 UNL     1      16.267  -4.329   1.165 +0.00 +0.00    +0.234 C  
DOCKED: ATOM     14  O9  UNL     1      17.203  -4.795   0.517 +0.00 -0.00    -0.274 OA 
DOCKED: ATOM     15  N6  UNL     1      15.124  -5.046   1.451 +0.00 -0.00    -0.301 N  
DOCKED: ATOM     16  H50 UNL     1      14.305  -4.530   1.751 +0.00 +0.00    +0.150 HD 
DOCKED: BRANCH  15  17
DOCKED: ATOM     17  C30 UNL     1      14.898  -6.370   0.864 +0.00 +0.00    +0.186 C  
DOCKED: BRANCH  17  18
DOCKED: ATOM     18  C38 UNL     1      13.416  -6.706   1.030 +0.00 +0.00    +0.326 C  
DOCKED: ATOM     19  O10 UNL     1      12.735  -7.375   0.263 +0.00 -0.00    -0.249 OA 
DOCKED: BRANCH  18  20
DOCKED: ATOM     20  O11 UNL     1      12.860  -6.141   2.120 +0.00 -0.00    -0.479 OA 
DOCKED: ATOM     21  H59 UNL     1      12.853  -5.180   1.921 +0.00 +0.00    +0.295 HD 
DOCKED: ENDBRANCH  18  20
DOCKED: ENDBRANCH  17  18
DOCKED: BRANCH  17  22
DOCKED: ATOM     22  C31 UNL     1      15.728  -7.459   1.561 +0.00 +0.00    +0.069 C  
DOCKED: BRANCH  22  23
DOCKED: ATOM     23  C32 UNL     1      16.014  -7.159   3.018 +0.00 -0.00    -0.045 A  
DOCKED: ATOM     24  C33 UNL     1      17.213  -6.539   3.392 +0.00 +0.00    +0.004 A  
DOCKED: ATOM     25  C34 UNL     1      17.470  -6.264   4.737 +0.00 +0.00    +0.000 A  
DOCKED: ATOM     26  C35 UNL     1      16.538  -6.604   5.715 +0.00 +0.00    +0.000 A  
DOCKED: ATOM     27  C36 UNL     1      15.342  -7.211   5.350 +0.00 +0.00    +0.000 A  
DOCKED: ATOM     28  C37 UNL     1      15.076  -7.483   4.010 +0.00 +0.00    +0.004 A  
DOCKED: ENDBRANCH  22  23
DOCKED: ENDBRANCH  17  22
DOCKED: ENDBRANCH  15  17
DOCKED: ENDBRANCH  12  13
DOCKED: BRANCH  12  29
DOCKED: ATOM     29  C26 UNL     1      16.185  -2.739   3.160 +0.00 +0.00    +0.043 C  
DOCKED: BRANCH  29  30
DOCKED: ATOM     30  C27 UNL     1      14.810  -2.556   3.812 +0.00 +0.00    +0.123 C  
DOCKED: BRANCH  30  31
DOCKED: ATOM     31  C28 UNL     1      13.822  -3.659   3.526 +0.00 +0.00    +0.305 C  
DOCKED: ATOM     32  O7  UNL     1      13.863  -4.811   3.919 +0.00 -0.00    -0.251 OA 
DOCKED: BRANCH  31  33
DOCKED: ATOM     33  O8  UNL     1      12.782  -3.220   2.791 +0.00 -0.00    -0.481 OA 
DOCKED: ATOM     34  H49 UNL     1      12.333  -4.035   2.483 +0.00 +0.00    +0.295 HD 
DOCKED: ENDBRANCH  31  33
DOCKED: ENDBRANCH  30  31
DOCKED: ENDBRANCH  29  30
DOCKED: ENDBRANCH  12  29
DOCKED: ENDBRANCH  10  12
DOCKED: ENDBRANCH   6   8
DOCKED: ENDBRANCH   4   6
DOCKED: ENDBRANCH   1   2
DOCKED: BRANCH   1  35
DOCKED: ATOM     35  C39 UNL     1      11.553  -4.410  -2.770 +0.00 -0.00    -0.005 C  
DOCKED: ATOM     36  C40 UNL     1      12.801  -5.218  -3.148 +0.00 +0.00    +0.008 C  
DOCKED: ATOM     37  C41 UNL     1      10.331  -4.996  -3.477 +0.00 +0.00    +0.008 C  
DOCKED: ENDBRANCH   1  35
DOCKED: BRANCH   1  38
DOCKED: ATOM     38  C19 UNL     1      10.024  -3.844  -0.679 +0.00 +0.00    +0.046 C  
DOCKED: BRANCH  38  39
DOCKED: ATOM     39  C18 UNL     1       9.716  -4.205   0.786 +0.00 +0.00    +0.135 C  
DOCKED: BRANCH  39  40
DOCKED: ATOM     40  O4  UNL     1      10.735  -5.047   1.334 +0.00 -0.00    -0.390 OA 
DOCKED: ATOM     41  H34 UNL     1      11.468  -4.486   1.643 +0.00 +0.00    +0.210 HD 
DOCKED: ENDBRANCH  39  40
DOCKED: BRANCH  39  42
DOCKED: ATOM     42  C13 UNL     1       9.534  -2.967   1.724 +0.00 +0.00    +0.102 C  
DOCKED: BRANCH  42  45
DOCKED: ATOM     43  C12 UNL     1       8.956  -3.540   4.079 +0.00 +0.00    +0.234 C  
DOCKED: ATOM     44  O3  UNL     1       7.780  -3.210   3.953 +0.00 -0.00    -0.274 OA 
DOCKED: ATOM     45  N3  UNL     1       9.898  -3.391   3.085 +0.00 -0.00    -0.308 N  
DOCKED: ATOM     46  H22 UNL     1      10.770  -3.902   3.169 +0.00 +0.00    +0.149 HD 
DOCKED: BRANCH  43  47
DOCKED: ATOM     47  C4  UNL     1       9.483  -4.242   5.346 +0.00 +0.00    +0.160 C  
DOCKED: BRANCH  47  48
DOCKED: ATOM     48  N1  UNL     1       9.653  -5.668   5.079 +0.00 -0.00    -0.302 N  
DOCKED: ATOM     49  C5  UNL     1      10.679  -6.094   4.260 +0.00 +0.00    +0.234 C  
DOCKED: ATOM     50  O1  UNL     1      11.411  -5.312   3.650 +0.00 -0.00    -0.274 OA 
DOCKED: ATOM     51  H9  UNL     1       9.394  -6.294   5.830 +0.00 +0.00    +0.150 HD 
DOCKED: BRANCH  49  52
DOCKED: ATOM     52  C6  UNL     1      10.848  -7.631   4.149 +0.00 +0.00    +0.161 C  
DOCKED: BRANCH  52  53
DOCKED: ATOM     53  N2  UNL     1      10.982  -7.917   2.723 +0.00 -0.00    -0.304 N  
DOCKED: ATOM     54  C7  UNL     1      10.297  -8.944   2.123 +0.00 +0.00    +0.211 C  
DOCKED: ATOM     55  C8  UNL     1      10.419  -8.971   0.622 +0.00 +0.00    +0.109 C  
DOCKED: ATOM     56  O2  UNL     1       9.663  -9.792   2.744 +0.00 -0.00    -0.276 OA 
DOCKED: ATOM     57  H11 UNL     1      11.298  -7.140   2.150 +0.00 +0.00    +0.149 HD 
DOCKED: ENDBRANCH  52  53
DOCKED: BRANCH  52  58
DOCKED: ATOM     58  C9  UNL     1      12.044  -8.134   5.001 +0.00 +0.00    +0.012 C  
DOCKED: ATOM     59  C10 UNL     1      11.662  -8.167   6.488 +0.00 +0.00    +0.009 C  
DOCKED: ATOM     60  C11 UNL     1      12.585  -9.513   4.601 +0.00 +0.00    +0.009 C  
DOCKED: ENDBRANCH  52  58
DOCKED: ENDBRANCH  49  52
DOCKED: ENDBRANCH  47  48
DOCKED: BRANCH  47  61
DOCKED: ATOM     61  C3  UNL     1      10.791  -3.594   5.826 +0.00 +0.00    +0.042 C  
DOCKED: BRANCH  61  62
DOCKED: ATOM     62  C2  UNL     1      11.331  -4.190   7.131 +0.00 +0.00    +0.071 C  
DOCKED: BRANCH  62  64
DOCKED: ATOM     63  C1  UNL     1      14.009  -3.595   7.017 +0.00 +0.00    +0.084 C  
DOCKED: ATOM     64  S1  UNL     1      12.919  -5.023   6.825 +0.00 -0.00    -0.164 S  
DOCKED: ENDBRANCH  62  64
DOCKED: ENDBRANCH  61  62
DOCKED: ENDBRANCH  47  61
DOCKED: ENDBRANCH  43  47
DOCKED: ENDBRANCH  42  45
DOCKED: BRANCH  42  65
DOCKED: ATOM     65  C14 UNL     1      10.391  -1.724   1.399 +0.00 +0.00    +0.028 C  
DOCKED: BRANCH  65  66
DOCKED: ATOM     66  C15 UNL     1      10.281  -0.515   2.346 +0.00 -0.00    -0.015 C  
DOCKED: ATOM     67  C16 UNL     1      11.284  -0.671   3.495 +0.00 +0.00    +0.007 C  
DOCKED: ATOM     68  C17 UNL     1       8.875  -0.340   2.921 +0.00 +0.00    +0.007 C  
DOCKED: ENDBRANCH  65  66
DOCKED: ENDBRANCH  42  65
DOCKED: ENDBRANCH  39  42
DOCKED: ENDBRANCH  38  39
DOCKED: ENDBRANCH   1  38
DOCKED: TORSDOF 30
DOCKED: TER
DOCKED: ENDMDL
________________________________________________________________________________


    FINAL DOCKED STATE:
    ________________________


Run:   13 / 20
Time taken for this run:   4.973s

DOCKED: MODEL        13
DOCKED: USER    Run = 13
DOCKED: USER
DOCKED: USER    Estimated Free Energy of Binding    =  +8.95 kcal/mol  [=(1)+(2)+(3)-(4)]
DOCKED: USER
DOCKED: USER    (1) Final Intermolecular Energy     =  +0.00 kcal/mol
DOCKED: USER        vdW + Hbond + desolv Energy     =  +0.00 kcal/mol
DOCKED: USER        Electrostatic Energy            =  +0.00 kcal/mol
DOCKED: USER        Moving Ligand-Fixed Receptor    =  +0.00 kcal/mol
DOCKED: USER        Moving Ligand-Moving Receptor   =  +0.00 kcal/mol
DOCKED: USER    (2) Final Total Internal Energy     = -24.13 kcal/mol
DOCKED: USER    (3) Torsional Free Energy           =  +8.95 kcal/mol
DOCKED: USER    (4) Unbound System's Energy         = -24.13 kcal/mol
DOCKED: USER
DOCKED: USER
DOCKED: REMARK  Name = ligands/ligand_3.pdb
DOCKED: REMARK  39 active torsions:
DOCKED: REMARK  status: ('A' for Active; 'I' for Inactive)
DOCKED: REMARK    1  A    between atoms: C1_1  and  S1_2
DOCKED: REMARK    2  A    between atoms: S1_2  and  C2_3
DOCKED: REMARK    3  A    between atoms: C2_3  and  C3_4
DOCKED: REMARK    4  A    between atoms: C3_4  and  C4_5
DOCKED: REMARK    5  A    between atoms: C4_5  and  N1_6
DOCKED: REMARK    6  A    between atoms: C4_5  and  C12_17
DOCKED: REMARK    7  A    between atoms: C5_7  and  C6_9
DOCKED: REMARK    8  A    between atoms: C6_9  and  N2_10
DOCKED: REMARK    9  A    between atoms: C6_9  and  C9_14
DOCKED: REMARK   10  A    between atoms: C7_11  and  C8_12
DOCKED: REMARK   11  A    between atoms: C9_14  and  C10_15
DOCKED: REMARK   12  A    between atoms: C9_14  and  C11_16
DOCKED: REMARK   13  A    between atoms: N3_19  and  C13_20
DOCKED: REMARK   14  A    between atoms: C13_20  and  C14_21
DOCKED: REMARK   15  A    between atoms: C13_20  and  C18_25
DOCKED: REMARK   16  A    between atoms: C14_21  and  C15_22
DOCKED: REMARK   17  A    between atoms: C15_22  and  C16_23
DOCKED: REMARK   18  A    between atoms: C15_22  and  C17_24
DOCKED: REMARK   19  A    between atoms: C18_25  and  O4_26
DOCKED: REMARK   20  A    between atoms: C18_25  and  C19_27
DOCKED: REMARK   21  A    between atoms: C19_27  and  C20_28
DOCKED: REMARK   22  A    between atoms: C20_28  and  C21_29
DOCKED: REMARK   23  A    between atoms: C20_28  and  C39_57
DOCKED: REMARK   24  A    between atoms: N4_31  and  C22_32
DOCKED: REMARK   25  A    between atoms: C22_32  and  C23_33
DOCKED: REMARK   26  A    between atoms: C22_32  and  C24_34
DOCKED: REMARK   27  A    between atoms: N5_36  and  C25_37
DOCKED: REMARK   28  A    between atoms: C25_37  and  C26_38
DOCKED: REMARK   29  A    between atoms: C25_37  and  C29_43
DOCKED: REMARK   30  A    between atoms: C26_38  and  C27_39
DOCKED: REMARK   31  A    between atoms: C27_39  and  C28_40
DOCKED: REMARK   32  A    between atoms: C28_40  and  O8_42
DOCKED: REMARK   33  A    between atoms: N6_45  and  C30_46
DOCKED: REMARK   34  A    between atoms: C30_46  and  C31_47
DOCKED: REMARK   35  A    between atoms: C30_46  and  C38_54
DOCKED: REMARK   36  A    between atoms: C31_47  and  C32_48
DOCKED: REMARK   37  A    between atoms: C38_54  and  O11_56
DOCKED: REMARK   38  A    between atoms: C39_57  and  C40_58
DOCKED: REMARK   39  A    between atoms: C39_57  and  C41_59
DOCKED: REMARK                            x       y       z     vdW  Elec       q    Type
DOCKED: REMARK                         _______ _______ _______ _____ _____    ______ ____
DOCKED: USER                              x       y       z     vdW  Elec       q    Type
DOCKED: USER                           _______ _______ _______ _____ _____    ______ ____
DOCKED: ROOT
DOCKED: ATOM      1  C20 UNL     1      10.187  -2.338  -3.317 +0.00 +0.00    +0.080 C  
DOCKED: ENDROOT
DOCKED: BRANCH   1   2
DOCKED: ATOM      2  C21 UNL     1       8.727  -2.039  -2.946 +0.00 +0.00    +0.217 C  
DOCKED: ATOM      3  O5  UNL     1       7.934  -1.511  -3.717 +0.00 -0.00    -0.275 OA 
DOCKED: ATOM      4  N4  UNL     1       8.393  -2.381  -1.650 +0.00 -0.00    -0.304 N  
DOCKED: ATOM      5  H38 UNL     1       9.173  -2.470  -1.006 +0.00 +0.00    +0.149 HD 
DOCKED: BRANCH   4   6
DOCKED: ATOM      6  C22 UNL     1       7.214  -1.770  -1.037 +0.00 +0.00    +0.156 C  
DOCKED: ATOM      7  C23 UNL     1       7.312  -0.251  -1.055 +0.00 +0.00    +0.038 C  
DOCKED: BRANCH   6   8
DOCKED: ATOM      8  C24 UNL     1       6.001  -2.234  -1.869 +0.00 +0.00    +0.234 C  
DOCKED: ATOM      9  O6  UNL     1       5.504  -3.354  -1.733 +0.00 -0.00    -0.274 OA 
DOCKED: ATOM     10  N5  UNL     1       5.540  -1.323  -2.786 +0.00 -0.00    -0.302 N  
DOCKED: ATOM     11  H43 UNL     1       6.144  -0.535  -3.030 +0.00 +0.00    +0.150 HD 
DOCKED: BRANCH  10  12
DOCKED: ATOM     12  C25 UNL     1       4.484  -1.661  -3.726 +0.00 +0.00    +0.159 C  
DOCKED: BRANCH  12  13
DOCKED: ATOM     13  C29 UNL     1       4.984  -2.717  -4.733 +0.00 +0.00    +0.234 C  
DOCKED: ATOM     14  O9  UNL     1       4.512  -3.851  -4.794 +0.00 -0.00    -0.274 OA 
DOCKED: ATOM     15  N6  UNL     1       6.070  -2.316  -5.482 +0.00 -0.00    -0.301 N  
DOCKED: ATOM     16  H50 UNL     1       6.559  -1.476  -5.195 +0.00 +0.00    +0.150 HD 
DOCKED: BRANCH  15  17
DOCKED: ATOM     17  C30 UNL     1       6.822  -3.279  -6.293 +0.00 +0.00    +0.186 C  
DOCKED: BRANCH  17  18
DOCKED: ATOM     18  C38 UNL     1       8.193  -2.668  -6.586 +0.00 +0.00    +0.326 C  
DOCKED: ATOM     19  O10 UNL     1       9.256  -3.274  -6.655 +0.00 -0.00    -0.249 OA 
DOCKED: BRANCH  18  20
DOCKED: ATOM     20  O11 UNL     1       8.162  -1.328  -6.724 +0.00 -0.00    -0.479 OA 
DOCKED: ATOM     21  H59 UNL     1       7.982  -0.993  -5.819 +0.00 +0.00    +0.295 HD 
DOCKED: ENDBRANCH  18  20
DOCKED: ENDBRANCH  17  18
DOCKED: BRANCH  17  22
DOCKED: ATOM     22  C31 UNL     1       6.123  -3.578  -7.627 +0.00 +0.00    +0.069 C  
DOCKED: BRANCH  22  23
DOCKED: ATOM     23  C32 UNL     1       5.276  -2.430  -8.135 +0.00 -0.00    -0.045 A  
DOCKED: ATOM     24  C33 UNL     1       5.836  -1.448  -8.962 +0.00 +0.00    +0.004 A  
DOCKED: ATOM     25  C34 UNL     1       5.049  -0.392  -9.427 +0.00 +0.00    +0.000 A  
DOCKED: ATOM     26  C35 UNL     1       3.704  -0.308  -9.074 +0.00 +0.00    +0.000 A  
DOCKED: ATOM     27  C36 UNL     1       3.140  -1.283  -8.261 +0.00 +0.00    +0.000 A  
DOCKED: ATOM     28  C37 UNL     1       3.917  -2.343  -7.797 +0.00 +0.00    +0.004 A  
DOCKED: ENDBRANCH  22  23
DOCKED: ENDBRANCH  17  22
DOCKED: ENDBRANCH  15  17
DOCKED: ENDBRANCH  12  13
DOCKED: BRANCH  12  29
DOCKED: ATOM     29  C26 UNL     1       3.926  -0.412  -4.438 +0.00 +0.00    +0.043 C  
DOCKED: BRANCH  29  30
DOCKED: ATOM     30  C27 UNL     1       4.872   0.784  -4.592 +0.00 +0.00    +0.123 C  
DOCKED: BRANCH  30  31
DOCKED: ATOM     31  C28 UNL     1       6.140   0.496  -5.356 +0.00 +0.00    +0.305 C  
DOCKED: ATOM     32  O7  UNL     1       6.248   0.250  -6.544 +0.00 -0.00    -0.251 OA 
DOCKED: BRANCH  31  33
DOCKED: ATOM     33  O8  UNL     1       7.230   0.595  -4.572 +0.00 -0.00    -0.481 OA 
DOCKED: ATOM     34  H49 UNL     1       7.945   0.161  -5.083 +0.00 +0.00    +0.295 HD 
DOCKED: ENDBRANCH  31  33
DOCKED: ENDBRANCH  30  31
DOCKED: ENDBRANCH  29  30
DOCKED: ENDBRANCH  12  29
DOCKED: ENDBRANCH  10  12
DOCKED: ENDBRANCH   6   8
DOCKED: ENDBRANCH   4   6
DOCKED: ENDBRANCH   1   2
DOCKED: BRANCH   1  35
DOCKED: ATOM     35  C39 UNL     1      10.686  -3.661  -2.672 +0.00 -0.00    -0.005 C  
DOCKED: ATOM     36  C40 UNL     1       9.894  -4.874  -3.178 +0.00 +0.00    +0.008 C  
DOCKED: ATOM     37  C41 UNL     1      12.182  -3.936  -2.807 +0.00 +0.00    +0.008 C  
DOCKED: ENDBRANCH   1  35
DOCKED: BRANCH   1  38
DOCKED: ATOM     38  C19 UNL     1      11.124  -1.105  -3.223 +0.00 +0.00    +0.046 C  
DOCKED: BRANCH  38  39
DOCKED: ATOM     39  C18 UNL     1      10.965  -0.014  -4.298 +0.00 +0.00    +0.135 C  
DOCKED: BRANCH  39  40
DOCKED: ATOM     40  O4  UNL     1      10.075  -0.438  -5.335 +0.00 -0.00    -0.390 OA 
DOCKED: ATOM     41  H34 UNL     1       9.160  -0.297  -5.035 +0.00 +0.00    +0.210 HD 
DOCKED: ENDBRANCH  39  40
DOCKED: BRANCH  39  42
DOCKED: ATOM     42  C13 UNL     1      10.467   1.361  -3.744 +0.00 +0.00    +0.102 C  
DOCKED: BRANCH  42  45
DOCKED: ATOM     43  C12 UNL     1      10.255   3.149  -5.466 +0.00 +0.00    +0.234 C  
DOCKED: ATOM     44  O3  UNL     1      11.267   3.736  -5.093 +0.00 -0.00    -0.274 OA 
DOCKED: ATOM     45  N3  UNL     1       9.745   2.036  -4.834 +0.00 -0.00    -0.308 N  
DOCKED: ATOM     46  H22 UNL     1       9.067   1.471  -5.332 +0.00 +0.00    +0.149 HD 
DOCKED: BRANCH  43  47
DOCKED: ATOM     47  C4  UNL     1       9.495   3.551  -6.745 +0.00 +0.00    +0.160 C  
DOCKED: BRANCH  47  48
DOCKED: ATOM     48  N1  UNL     1       9.812   2.610  -7.817 +0.00 -0.00    -0.302 N  
DOCKED: ATOM     49  C5  UNL     1       9.314   1.324  -7.770 +0.00 +0.00    +0.234 C  
DOCKED: ATOM     50  O1  UNL     1       8.687   0.890  -6.802 +0.00 -0.00    -0.274 OA 
DOCKED: ATOM     51  H9  UNL     1       9.925   3.011  -8.740 +0.00 +0.00    +0.150 HD 
DOCKED: BRANCH  49  52
DOCKED: ATOM     52  C6  UNL     1       9.603   0.452  -9.018 +0.00 +0.00    +0.161 C  
DOCKED: BRANCH  52  53
DOCKED: ATOM     53  N2  UNL     1      10.057  -0.839  -8.508 +0.00 -0.00    -0.304 N  
DOCKED: ATOM     54  C7  UNL     1      11.120  -1.504  -9.068 +0.00 +0.00    +0.211 C  
DOCKED: ATOM     55  C8  UNL     1      11.557  -2.723  -8.299 +0.00 +0.00    +0.109 C  
DOCKED: ATOM     56  O2  UNL     1      11.657  -1.166 -10.118 +0.00 -0.00    -0.276 OA 
DOCKED: ATOM     57  H11 UNL     1       9.807  -1.040  -7.545 +0.00 +0.00    +0.149 HD 
DOCKED: ENDBRANCH  52  53
DOCKED: BRANCH  52  58
DOCKED: ATOM     58  C9  UNL     1       8.360   0.355  -9.943 +0.00 +0.00    +0.012 C  
DOCKED: ATOM     59  C10 UNL     1       8.126   1.690 -10.665 +0.00 +0.00    +0.009 C  
DOCKED: ATOM     60  C11 UNL     1       8.421  -0.766 -10.989 +0.00 +0.00    +0.009 C  
DOCKED: ENDBRANCH  52  58
DOCKED: ENDBRANCH  49  52
DOCKED: ENDBRANCH  47  48
DOCKED: BRANCH  47  61
DOCKED: ATOM     61  C3  UNL     1       7.983   3.624  -6.483 +0.00 +0.00    +0.042 C  
DOCKED: BRANCH  61  62
DOCKED: ATOM     62  C2  UNL     1       7.170   4.102  -7.690 +0.00 +0.00    +0.071 C  
DOCKED: BRANCH  62  64
DOCKED: ATOM     63  C1  UNL     1       4.661   3.145  -7.115 +0.00 +0.00    +0.084 C  
DOCKED: ATOM     64  S1  UNL     1       6.033   2.790  -8.235 +0.00 -0.00    -0.164 S  
DOCKED: ENDBRANCH  62  64
DOCKED: ENDBRANCH  61  62
DOCKED: ENDBRANCH  47  61
DOCKED: ENDBRANCH  43  47
DOCKED: ENDBRANCH  42  45
DOCKED: BRANCH  42  65
DOCKED: ATOM     65  C14 UNL     1       9.505   1.310  -2.536 +0.00 +0.00    +0.028 C  
DOCKED: BRANCH  65  66
DOCKED: ATOM     66  C15 UNL     1       8.941   2.645  -2.019 +0.00 -0.00    -0.015 C  
DOCKED: ATOM     67  C16 UNL     1       7.655   2.989  -2.780 +0.00 +0.00    +0.007 C  
DOCKED: ATOM     68  C17 UNL     1       9.934   3.800  -2.153 +0.00 +0.00    +0.007 C  
DOCKED: ENDBRANCH  65  66
DOCKED: ENDBRANCH  42  65
DOCKED: ENDBRANCH  39  42
DOCKED: ENDBRANCH  38  39
DOCKED: ENDBRANCH   1  38
DOCKED: TORSDOF 30
DOCKED: TER
DOCKED: ENDMDL
________________________________________________________________________________


    FINAL DOCKED STATE:
    ________________________


Run:   14 / 20
Time taken for this run:   4.973s

DOCKED: MODEL        14
DOCKED: USER    Run = 14
DOCKED: USER
DOCKED: USER    Estimated Free Energy of Binding    =  +8.95 kcal/mol  [=(1)+(2)+(3)-(4)]
DOCKED: USER
DOCKED: USER    (1) Final Intermolecular Energy     =  +0.00 kcal/mol
DOCKED: USER        vdW + Hbond + desolv Energy     =  +0.00 kcal/mol
DOCKED: USER        Electrostatic Energy            =  +0.00 kcal/mol
DOCKED: USER        Moving Ligand-Fixed Receptor    =  +0.00 kcal/mol
DOCKED: USER        Moving Ligand-Moving Receptor   =  +0.00 kcal/mol
DOCKED: USER    (2) Final Total Internal Energy     = -24.13 kcal/mol
DOCKED: USER    (3) Torsional Free Energy           =  +8.95 kcal/mol
DOCKED: USER    (4) Unbound System's Energy         = -24.13 kcal/mol
DOCKED: USER
DOCKED: USER
DOCKED: REMARK  Name = ligands/ligand_3.pdb
DOCKED: REMARK  39 active torsions:
DOCKED: REMARK  status: ('A' for Active; 'I' for Inactive)
DOCKED: REMARK    1  A    between atoms: C1_1  and  S1_2
DOCKED: REMARK    2  A    between atoms: S1_2  and  C2_3
DOCKED: REMARK    3  A    between atoms: C2_3  and  C3_4
DOCKED: REMARK    4  A    between atoms: C3_4  and  C4_5
DOCKED: REMARK    5  A    between atoms: C4_5  and  N1_6
DOCKED: REMARK    6  A    between atoms: C4_5  and  C12_17
DOCKED: REMARK    7  A    between atoms: C5_7  and  C6_9
DOCKED: REMARK    8  A    between atoms: C6_9  and  N2_10
DOCKED: REMARK    9  A    between atoms: C6_9  and  C9_14
DOCKED: REMARK   10  A    between atoms: C7_11  and  C8_12
DOCKED: REMARK   11  A    between atoms: C9_14  and  C10_15
DOCKED: REMARK   12  A    between atoms: C9_14  and  C11_16
DOCKED: REMARK   13  A    between atoms: N3_19  and  C13_20
DOCKED: REMARK   14  A    between atoms: C13_20  and  C14_21
DOCKED: REMARK   15  A    between atoms: C13_20  and  C18_25
DOCKED: REMARK   16  A    between atoms: C14_21  and  C15_22
DOCKED: REMARK   17  A    between atoms: C15_22  and  C16_23
DOCKED: REMARK   18  A    between atoms: C15_22  and  C17_24
DOCKED: REMARK   19  A    between atoms: C18_25  and  O4_26
DOCKED: REMARK   20  A    between atoms: C18_25  and  C19_27
DOCKED: REMARK   21  A    between atoms: C19_27  and  C20_28
DOCKED: REMARK   22  A    between atoms: C20_28  and  C21_29
DOCKED: REMARK   23  A    between atoms: C20_28  and  C39_57
DOCKED: REMARK   24  A    between atoms: N4_31  and  C22_32
DOCKED: REMARK   25  A    between atoms: C22_32  and  C23_33
DOCKED: REMARK   26  A    between atoms: C22_32  and  C24_34
DOCKED: REMARK   27  A    between atoms: N5_36  and  C25_37
DOCKED: REMARK   28  A    between atoms: C25_37  and  C26_38
DOCKED: REMARK   29  A    between atoms: C25_37  and  C29_43
DOCKED: REMARK   30  A    between atoms: C26_38  and  C27_39
DOCKED: REMARK   31  A    between atoms: C27_39  and  C28_40
DOCKED: REMARK   32  A    between atoms: C28_40  and  O8_42
DOCKED: REMARK   33  A    between atoms: N6_45  and  C30_46
DOCKED: REMARK   34  A    between atoms: C30_46  and  C31_47
DOCKED: REMARK   35  A    between atoms: C30_46  and  C38_54
DOCKED: REMARK   36  A    between atoms: C31_47  and  C32_48
DOCKED: REMARK   37  A    between atoms: C38_54  and  O11_56
DOCKED: REMARK   38  A    between atoms: C39_57  and  C40_58
DOCKED: REMARK   39  A    between atoms: C39_57  and  C41_59
DOCKED: REMARK                            x       y       z     vdW  Elec       q    Type
DOCKED: REMARK                         _______ _______ _______ _____ _____    ______ ____
DOCKED: USER                              x       y       z     vdW  Elec       q    Type
DOCKED: USER                           _______ _______ _______ _____ _____    ______ ____
DOCKED: ROOT
DOCKED: ATOM      1  C20 UNL     1      13.734   0.481  -0.444 +0.00 +0.00    +0.080 C  
DOCKED: ENDROOT
DOCKED: BRANCH   1   2
DOCKED: ATOM      2  C21 UNL     1      12.255   0.690  -0.089 +0.00 +0.00    +0.217 C  
DOCKED: ATOM      3  O5  UNL     1      11.354  -0.020  -0.521 +0.00 -0.00    -0.275 OA 
DOCKED: ATOM      4  N4  UNL     1      12.019   1.775   0.733 +0.00 -0.00    -0.304 N  
DOCKED: ATOM      5  H38 UNL     1      12.749   2.482   0.743 +0.00 +0.00    +0.149 HD 
DOCKED: BRANCH   4   6
DOCKED: ATOM      6  C22 UNL     1      10.673   2.343   0.790 +0.00 +0.00    +0.156 C  
DOCKED: ATOM      7  C23 UNL     1      10.186   2.739  -0.596 +0.00 +0.00    +0.038 C  
DOCKED: BRANCH   6   8
DOCKED: ATOM      8  C24 UNL     1       9.763   1.245   1.379 +0.00 +0.00    +0.234 C  
DOCKED: ATOM      9  O6  UNL     1       9.724   1.007   2.588 +0.00 -0.00    -0.274 OA 
DOCKED: ATOM     10  N5  UNL     1       9.028   0.541   0.459 +0.00 -0.00    -0.302 N  
DOCKED: ATOM     11  H43 UNL     1       9.297   0.605  -0.526 +0.00 +0.00    +0.150 HD 
DOCKED: BRANCH  10  12
DOCKED: ATOM     12  C25 UNL     1       8.220  -0.604   0.849 +0.00 +0.00    +0.159 C  
DOCKED: BRANCH  12  13
DOCKED: ATOM     13  C29 UNL     1       9.126  -1.769   1.297 +0.00 +0.00    +0.234 C  
DOCKED: ATOM     14  O9  UNL     1       9.130  -2.200   2.448 +0.00 -0.00    -0.274 OA 
DOCKED: ATOM     15  N6  UNL     1      10.001  -2.212   0.328 +0.00 -0.00    -0.301 N  
DOCKED: ATOM     16  H50 UNL     1      10.116  -1.641  -0.502 +0.00 +0.00    +0.150 HD 
DOCKED: BRANCH  15  17
DOCKED: ATOM     17  C30 UNL     1      11.096  -3.127   0.663 +0.00 +0.00    +0.186 C  
DOCKED: BRANCH  17  18
DOCKED: ATOM     18  C38 UNL     1      12.138  -3.033  -0.451 +0.00 +0.00    +0.326 C  
DOCKED: ATOM     19  O10 UNL     1      13.353  -3.111  -0.314 +0.00 -0.00    -0.249 OA 
DOCKED: BRANCH  18  20
DOCKED: ATOM     20  O11 UNL     1      11.603  -2.793  -1.664 +0.00 -0.00    -0.479 OA 
DOCKED: ATOM     21  H59 UNL     1      11.270  -1.871  -1.607 +0.00 +0.00    +0.295 HD 
DOCKED: ENDBRANCH  18  20
DOCKED: ENDBRANCH  17  18
DOCKED: BRANCH  17  22
DOCKED: ATOM     22  C31 UNL     1      10.618  -4.584   0.765 +0.00 +0.00    +0.069 C  
DOCKED: BRANCH  22  23
DOCKED: ATOM     23  C32 UNL     1       9.412  -4.885  -0.102 +0.00 -0.00    -0.045 A  
DOCKED: ATOM     24  C33 UNL     1       8.117  -4.743   0.413 +0.00 +0.00    +0.004 A  
DOCKED: ATOM     25  C34 UNL     1       7.010  -5.021  -0.391 +0.00 +0.00    +0.000 A  
DOCKED: ATOM     26  C35 UNL     1       7.184  -5.440  -1.708 +0.00 +0.00    +0.000 A  
DOCKED: ATOM     27  C36 UNL     1       8.466  -5.575  -2.228 +0.00 +0.00    +0.000 A  
DOCKED: ATOM     28  C37 UNL     1       9.575  -5.294  -1.434 +0.00 +0.00    +0.004 A  
DOCKED: ENDBRANCH  22  23
DOCKED: ENDBRANCH  17  22
DOCKED: ENDBRANCH  15  17
DOCKED: ENDBRANCH  12  13
DOCKED: BRANCH  12  29
DOCKED: ATOM     29  C26 UNL     1       7.251  -1.032  -0.272 +0.00 +0.00    +0.043 C  
DOCKED: BRANCH  29  30
DOCKED: ATOM     30  C27 UNL     1       7.668  -0.715  -1.713 +0.00 +0.00    +0.123 C  
DOCKED: BRANCH  30  31
DOCKED: ATOM     31  C28 UNL     1       8.977  -1.327  -2.143 +0.00 +0.00    +0.305 C  
DOCKED: ATOM     32  O7  UNL     1       9.217  -2.506  -2.330 +0.00 -0.00    -0.251 OA 
DOCKED: BRANCH  31  33
DOCKED: ATOM     33  O8  UNL     1       9.915  -0.389  -2.377 +0.00 -0.00    -0.481 OA 
DOCKED: ATOM     34  H49 UNL     1      10.759  -0.885  -2.417 +0.00 +0.00    +0.295 HD 
DOCKED: ENDBRANCH  31  33
DOCKED: ENDBRANCH  30  31
DOCKED: ENDBRANCH  29  30
DOCKED: ENDBRANCH  12  29
DOCKED: ENDBRANCH  10  12
DOCKED: ENDBRANCH   6   8
DOCKED: ENDBRANCH   4   6
DOCKED: ENDBRANCH   1   2
DOCKED: BRANCH   1  35
DOCKED: ATOM     35  C39 UNL     1      14.668   0.835   0.747 +0.00 -0.00    -0.005 C  
DOCKED: ATOM     36  C40 UNL     1      14.410  -0.068   1.960 +0.00 +0.00    +0.008 C  
DOCKED: ATOM     37  C41 UNL     1      16.162   0.849   0.429 +0.00 +0.00    +0.008 C  
DOCKED: ENDBRANCH   1  35
DOCKED: BRANCH   1  38
DOCKED: ATOM     38  C19 UNL     1      14.127   1.027  -1.842 +0.00 +0.00    +0.046 C  
DOCKED: BRANCH  38  39
DOCKED: ATOM     39  C18 UNL     1      13.588   0.274  -3.071 +0.00 +0.00    +0.135 C  
DOCKED: BRANCH  39  40
DOCKED: ATOM     40  O4  UNL     1      12.959  -0.953  -2.689 +0.00 -0.00    -0.390 OA 
DOCKED: ATOM     41  H34 UNL     1      12.044  -0.762  -2.419 +0.00 +0.00    +0.210 HD 
DOCKED: ENDBRANCH  39  40
DOCKED: BRANCH  39  42
DOCKED: ATOM     42  C13 UNL     1      12.582   1.101  -3.937 +0.00 +0.00    +0.102 C  
DOCKED: BRANCH  42  45
DOCKED: ATOM     43  C12 UNL     1      11.722  -0.066  -5.963 +0.00 +0.00    +0.234 C  
DOCKED: ATOM     44  O3  UNL     1      12.397   0.609  -6.734 +0.00 -0.00    -0.274 OA 
DOCKED: ATOM     45  N3  UNL     1      11.685   0.143  -4.602 +0.00 -0.00    -0.308 N  
DOCKED: ATOM     46  H22 UNL     1      11.310  -0.593  -4.014 +0.00 +0.00    +0.149 HD 
DOCKED: BRANCH  43  47
DOCKED: ATOM     47  C4  UNL     1      10.907  -1.287  -6.435 +0.00 +0.00    +0.160 C  
DOCKED: BRANCH  47  48
DOCKED: ATOM     48  N1  UNL     1      11.604  -2.514  -6.060 +0.00 -0.00    -0.302 N  
DOCKED: ATOM     49  C5  UNL     1      11.650  -2.899  -4.736 +0.00 +0.00    +0.234 C  
DOCKED: ATOM     50  O1  UNL     1      11.210  -2.195  -3.824 +0.00 -0.00    -0.274 OA 
DOCKED: ATOM     51  H9  UNL     1      11.583  -3.263  -6.741 +0.00 +0.00    +0.150 HD 
DOCKED: BRANCH  49  52
DOCKED: ATOM     52  C6  UNL     1      12.300  -4.279  -4.465 +0.00 +0.00    +0.161 C  
DOCKED: BRANCH  52  53
DOCKED: ATOM     53  N2  UNL     1      13.194  -4.084  -3.327 +0.00 -0.00    -0.304 N  
DOCKED: ATOM     54  C7  UNL     1      14.456  -4.626  -3.297 +0.00 +0.00    +0.211 C  
DOCKED: ATOM     55  C8  UNL     1      15.294  -4.168  -2.132 +0.00 +0.00    +0.109 C  
DOCKED: ATOM     56  O2  UNL     1      14.868  -5.436  -4.122 +0.00 -0.00    -0.276 OA 
DOCKED: ATOM     57  H11 UNL     1      12.998  -3.270  -2.752 +0.00 +0.00    +0.149 HD 
DOCKED: ENDBRANCH  52  53
DOCKED: BRANCH  52  58
DOCKED: ATOM     58  C9  UNL     1      11.227  -5.377  -4.234 +0.00 +0.00    +0.012 C  
DOCKED: ATOM     59  C10 UNL     1      10.567  -5.766  -5.565 +0.00 +0.00    +0.009 C  
DOCKED: ATOM     60  C11 UNL     1      11.745  -6.650  -3.550 +0.00 +0.00    +0.009 C  
DOCKED: ENDBRANCH  52  58
DOCKED: ENDBRANCH  49  52
DOCKED: ENDBRANCH  47  48
DOCKED: BRANCH  47  61
DOCKED: ATOM     61  C3  UNL     1       9.482  -1.246  -5.865 +0.00 +0.00    +0.042 C  
DOCKED: BRANCH  61  62
DOCKED: ATOM     62  C2  UNL     1       8.582  -2.378  -6.372 +0.00 +0.00    +0.071 C  
DOCKED: BRANCH  62  64
DOCKED: ATOM     63  C1  UNL     1       6.626  -2.575  -4.455 +0.00 +0.00    +0.084 C  
DOCKED: ATOM     64  S1  UNL     1       8.106  -3.463  -4.991 +0.00 -0.00    -0.164 S  
DOCKED: ENDBRANCH  62  64
DOCKED: ENDBRANCH  61  62
DOCKED: ENDBRANCH  47  61
DOCKED: ENDBRANCH  43  47
DOCKED: ENDBRANCH  42  45
DOCKED: BRANCH  42  65
DOCKED: ATOM     65  C14 UNL     1      11.681   2.102  -3.179 +0.00 +0.00    +0.028 C  
DOCKED: BRANCH  65  66
DOCKED: ATOM     66  C15 UNL     1      10.642   2.888  -3.999 +0.00 -0.00    -0.015 C  
DOCKED: ATOM     67  C16 UNL     1       9.347   2.075  -4.101 +0.00 +0.00    +0.007 C  
DOCKED: ATOM     68  C17 UNL     1      11.135   3.233  -5.405 +0.00 +0.00    +0.007 C  
DOCKED: ENDBRANCH  65  66
DOCKED: ENDBRANCH  42  65
DOCKED: ENDBRANCH  39  42
DOCKED: ENDBRANCH  38  39
DOCKED: ENDBRANCH   1  38
DOCKED: TORSDOF 30
DOCKED: TER
DOCKED: ENDMDL
________________________________________________________________________________


    FINAL DOCKED STATE:
    ________________________


Run:   15 / 20
Time taken for this run:   4.973s

DOCKED: MODEL        15
DOCKED: USER    Run = 15
DOCKED: USER
DOCKED: USER    Estimated Free Energy of Binding    =  +8.95 kcal/mol  [=(1)+(2)+(3)-(4)]
DOCKED: USER
DOCKED: USER    (1) Final Intermolecular Energy     =  +0.00 kcal/mol
DOCKED: USER        vdW + Hbond + desolv Energy     =  +0.00 kcal/mol
DOCKED: USER        Electrostatic Energy            =  +0.00 kcal/mol
DOCKED: USER        Moving Ligand-Fixed Receptor    =  +0.00 kcal/mol
DOCKED: USER        Moving Ligand-Moving Receptor   =  +0.00 kcal/mol
DOCKED: USER    (2) Final Total Internal Energy     = -23.86 kcal/mol
DOCKED: USER    (3) Torsional Free Energy           =  +8.95 kcal/mol
DOCKED: USER    (4) Unbound System's Energy         = -23.86 kcal/mol
DOCKED: USER
DOCKED: USER
DOCKED: REMARK  Name = ligands/ligand_3.pdb
DOCKED: REMARK  39 active torsions:
DOCKED: REMARK  status: ('A' for Active; 'I' for Inactive)
DOCKED: REMARK    1  A    between atoms: C1_1  and  S1_2
DOCKED: REMARK    2  A    between atoms: S1_2  and  C2_3
DOCKED: REMARK    3  A    between atoms: C2_3  and  C3_4
DOCKED: REMARK    4  A    between atoms: C3_4  and  C4_5
DOCKED: REMARK    5  A    between atoms: C4_5  and  N1_6
DOCKED: REMARK    6  A    between atoms: C4_5  and  C12_17
DOCKED: REMARK    7  A    between atoms: C5_7  and  C6_9
DOCKED: REMARK    8  A    between atoms: C6_9  and  N2_10
DOCKED: REMARK    9  A    between atoms: C6_9  and  C9_14
DOCKED: REMARK   10  A    between atoms: C7_11  and  C8_12
DOCKED: REMARK   11  A    between atoms: C9_14  and  C10_15
DOCKED: REMARK   12  A    between atoms: C9_14  and  C11_16
DOCKED: REMARK   13  A    between atoms: N3_19  and  C13_20
DOCKED: REMARK   14  A    between atoms: C13_20  and  C14_21
DOCKED: REMARK   15  A    between atoms: C13_20  and  C18_25
DOCKED: REMARK   16  A    between atoms: C14_21  and  C15_22
DOCKED: REMARK   17  A    between atoms: C15_22  and  C16_23
DOCKED: REMARK   18  A    between atoms: C15_22  and  C17_24
DOCKED: REMARK   19  A    between atoms: C18_25  and  O4_26
DOCKED: REMARK   20  A    between atoms: C18_25  and  C19_27
DOCKED: REMARK   21  A    between atoms: C19_27  and  C20_28
DOCKED: REMARK   22  A    between atoms: C20_28  and  C21_29
DOCKED: REMARK   23  A    between atoms: C20_28  and  C39_57
DOCKED: REMARK   24  A    between atoms: N4_31  and  C22_32
DOCKED: REMARK   25  A    between atoms: C22_32  and  C23_33
DOCKED: REMARK   26  A    between atoms: C22_32  and  C24_34
DOCKED: REMARK   27  A    between atoms: N5_36  and  C25_37
DOCKED: REMARK   28  A    between atoms: C25_37  and  C26_38
DOCKED: REMARK   29  A    between atoms: C25_37  and  C29_43
DOCKED: REMARK   30  A    between atoms: C26_38  and  C27_39
DOCKED: REMARK   31  A    between atoms: C27_39  and  C28_40
DOCKED: REMARK   32  A    between atoms: C28_40  and  O8_42
DOCKED: REMARK   33  A    between atoms: N6_45  and  C30_46
DOCKED: REMARK   34  A    between atoms: C30_46  and  C31_47
DOCKED: REMARK   35  A    between atoms: C30_46  and  C38_54
DOCKED: REMARK   36  A    between atoms: C31_47  and  C32_48
DOCKED: REMARK   37  A    between atoms: C38_54  and  O11_56
DOCKED: REMARK   38  A    between atoms: C39_57  and  C40_58
DOCKED: REMARK   39  A    between atoms: C39_57  and  C41_59
DOCKED: REMARK                            x       y       z     vdW  Elec       q    Type
DOCKED: REMARK                         _______ _______ _______ _____ _____    ______ ____
DOCKED: USER                              x       y       z     vdW  Elec       q    Type
DOCKED: USER                           _______ _______ _______ _____ _____    ______ ____
DOCKED: ROOT
DOCKED: ATOM      1  C20 UNL     1       4.413  -1.107   0.491 +0.00 +0.00    +0.080 C  
DOCKED: ENDROOT
DOCKED: BRANCH   1   2
DOCKED: ATOM      2  C21 UNL     1       3.848  -2.455   0.021 +0.00 +0.00    +0.217 C  
DOCKED: ATOM      3  O5  UNL     1       4.250  -3.534   0.440 +0.00 -0.00    -0.275 OA 
DOCKED: ATOM      4  N4  UNL     1       2.870  -2.349  -0.949 +0.00 -0.00    -0.304 N  
DOCKED: ATOM      5  H38 UNL     1       2.862  -1.477  -1.469 +0.00 +0.00    +0.149 HD 
DOCKED: BRANCH   4   6
DOCKED: ATOM      6  C22 UNL     1       2.567  -3.512  -1.782 +0.00 +0.00    +0.156 C  
DOCKED: ATOM      7  C23 UNL     1       3.812  -4.008  -2.503 +0.00 +0.00    +0.038 C  
DOCKED: BRANCH   6   8
DOCKED: ATOM      8  C24 UNL     1       2.037  -4.603  -0.829 +0.00 +0.00    +0.234 C  
DOCKED: ATOM      9  O6  UNL     1       0.886  -4.581  -0.386 +0.00 -0.00    -0.274 OA 
DOCKED: ATOM     10  N5  UNL     1       2.944  -5.576  -0.493 +0.00 -0.00    -0.302 N  
DOCKED: ATOM     11  H43 UNL     1       3.934  -5.398  -0.676 +0.00 +0.00    +0.150 HD 
DOCKED: BRANCH  10  12
DOCKED: ATOM     12  C25 UNL     1       2.629  -6.600   0.491 +0.00 +0.00    +0.159 C  
DOCKED: BRANCH  12  13
DOCKED: ATOM     13  C29 UNL     1       2.515  -5.974   1.895 +0.00 +0.00    +0.234 C  
DOCKED: ATOM     14  O9  UNL     1       1.453  -5.916   2.512 +0.00 -0.00    -0.274 OA 
DOCKED: ATOM     15  N6  UNL     1       3.680  -5.393   2.353 +0.00 -0.00    -0.301 N  
DOCKED: ATOM     16  H50 UNL     1       4.432  -5.254   1.688 +0.00 +0.00    +0.150 HD 
DOCKED: BRANCH  15  17
DOCKED: ATOM     17  C30 UNL     1       3.677  -4.537   3.543 +0.00 +0.00    +0.186 C  
DOCKED: BRANCH  17  18
DOCKED: ATOM     18  C38 UNL     1       4.899  -3.622   3.460 +0.00 +0.00    +0.326 C  
DOCKED: ATOM     19  O10 UNL     1       4.964  -2.463   3.853 +0.00 -0.00    -0.249 OA 
DOCKED: BRANCH  18  20
DOCKED: ATOM     20  O11 UNL     1       5.952  -4.192   2.841 +0.00 -0.00    -0.479 OA 
DOCKED: ATOM     21  H59 UNL     1       5.671  -4.273   1.904 +0.00 +0.00    +0.295 HD 
DOCKED: ENDBRANCH  18  20
DOCKED: ENDBRANCH  17  18
DOCKED: BRANCH  17  22
DOCKED: ATOM     22  C31 UNL     1       3.766  -5.355   4.840 +0.00 +0.00    +0.069 C  
DOCKED: BRANCH  22  23
DOCKED: ATOM     23  C32 UNL     1       4.142  -6.805   4.615 +0.00 -0.00    -0.045 A  
DOCKED: ATOM     24  C33 UNL     1       5.483  -7.171   4.441 +0.00 +0.00    +0.004 A  
DOCKED: ATOM     25  C34 UNL     1       5.823  -8.509   4.234 +0.00 +0.00    +0.000 A  
DOCKED: ATOM     26  C35 UNL     1       4.834  -9.489   4.199 +0.00 +0.00    +0.000 A  
DOCKED: ATOM     27  C36 UNL     1       3.502  -9.135   4.379 +0.00 +0.00    +0.000 A  
DOCKED: ATOM     28  C37 UNL     1       3.155  -7.803   4.591 +0.00 +0.00    +0.004 A  
DOCKED: ENDBRANCH  22  23
DOCKED: ENDBRANCH  17  22
DOCKED: ENDBRANCH  15  17
DOCKED: ENDBRANCH  12  13
DOCKED: BRANCH  12  29
DOCKED: ATOM     29  C26 UNL     1       3.647  -7.757   0.462 +0.00 +0.00    +0.043 C  
DOCKED: BRANCH  29  30
DOCKED: ATOM     30  C27 UNL     1       5.054  -7.436  -0.056 +0.00 +0.00    +0.123 C  
DOCKED: BRANCH  30  31
DOCKED: ATOM     31  C28 UNL     1       5.763  -6.328   0.681 +0.00 +0.00    +0.305 C  
DOCKED: ATOM     32  O7  UNL     1       6.289  -6.387   1.778 +0.00 -0.00    -0.251 OA 
DOCKED: BRANCH  31  33
DOCKED: ATOM     33  O8  UNL     1       5.821  -5.198  -0.049 +0.00 -0.00    -0.481 OA 
DOCKED: ATOM     34  H49 UNL     1       5.914  -4.480   0.610 +0.00 +0.00    +0.295 HD 
DOCKED: ENDBRANCH  31  33
DOCKED: ENDBRANCH  30  31
DOCKED: ENDBRANCH  29  30
DOCKED: ENDBRANCH  12  29
DOCKED: ENDBRANCH  10  12
DOCKED: ENDBRANCH   6   8
DOCKED: ENDBRANCH   4   6
DOCKED: ENDBRANCH   1   2
DOCKED: BRANCH   1  35
DOCKED: ATOM     35  C39 UNL     1       3.353   0.026   0.399 +0.00 -0.00    -0.005 C  
DOCKED: ATOM     36  C40 UNL     1       2.217  -0.175   1.409 +0.00 +0.00    +0.008 C  
DOCKED: ATOM     37  C41 UNL     1       3.898   1.448   0.520 +0.00 +0.00    +0.008 C  
DOCKED: ENDBRANCH   1  35
DOCKED: BRANCH   1  38
DOCKED: ATOM     38  C19 UNL     1       5.833  -0.797  -0.054 +0.00 +0.00    +0.046 C  
DOCKED: BRANCH  38  39
DOCKED: ATOM     39  C18 UNL     1       7.008  -1.587   0.549 +0.00 +0.00    +0.135 C  
DOCKED: BRANCH  39  40
DOCKED: ATOM     40  O4  UNL     1       6.606  -2.288   1.730 +0.00 -0.00    -0.390 OA 
DOCKED: ATOM     41  H34 UNL     1       5.640  -2.413   1.703 +0.00 +0.00    +0.210 HD 
DOCKED: ENDBRANCH  39  40
DOCKED: BRANCH  39  42
DOCKED: ATOM     42  C13 UNL     1       7.665  -2.608  -0.437 +0.00 +0.00    +0.102 C  
DOCKED: BRANCH  42  45
DOCKED: ATOM     43  C12 UNL     1       9.283  -4.275   0.462 +0.00 +0.00    +0.234 C  
DOCKED: ATOM     44  O3  UNL     1      10.234  -3.802  -0.154 +0.00 -0.00    -0.274 OA 
DOCKED: ATOM     45  N3  UNL     1       7.990  -3.817   0.336 +0.00 -0.00    -0.308 N  
DOCKED: ATOM     46  H22 UNL     1       7.316  -4.083   1.044 +0.00 +0.00    +0.149 HD 
DOCKED: BRANCH  43  47
DOCKED: ATOM     47  C4  UNL     1       9.457  -5.385   1.518 +0.00 +0.00    +0.160 C  
DOCKED: BRANCH  47  48
DOCKED: ATOM     48  N1  UNL     1       8.759  -5.007   2.744 +0.00 -0.00    -0.302 N  
DOCKED: ATOM     49  C5  UNL     1       9.324  -4.081   3.596 +0.00 +0.00    +0.234 C  
DOCKED: ATOM     50  O1  UNL     1      10.454  -3.622   3.424 +0.00 -0.00    -0.274 OA 
DOCKED: ATOM     51  H9  UNL     1       7.748  -5.012   2.698 +0.00 +0.00    +0.150 HD 
DOCKED: BRANCH  49  52
DOCKED: ATOM     52  C6  UNL     1       8.441  -3.656   4.797 +0.00 +0.00    +0.161 C  
DOCKED: BRANCH  52  53
DOCKED: ATOM     53  N2  UNL     1       7.667  -2.505   4.337 +0.00 -0.00    -0.304 N  
DOCKED: ATOM     54  C7  UNL     1       8.095  -1.216   4.543 +0.00 +0.00    +0.211 C  
DOCKED: ATOM     55  C8  UNL     1       7.265  -0.173   3.843 +0.00 +0.00    +0.109 C  
DOCKED: ATOM     56  O2  UNL     1       9.050  -0.923   5.257 +0.00 -0.00    -0.276 OA 
DOCKED: ATOM     57  H11 UNL     1       7.021  -2.689   3.576 +0.00 +0.00    +0.149 HD 
DOCKED: ENDBRANCH  52  53
DOCKED: BRANCH  52  58
DOCKED: ATOM     58  C9  UNL     1       7.565  -4.833   5.304 +0.00 +0.00    +0.012 C  
DOCKED: ATOM     59  C10 UNL     1       8.449  -6.028   5.689 +0.00 +0.00    +0.009 C  
DOCKED: ATOM     60  C11 UNL     1       6.652  -4.493   6.490 +0.00 +0.00    +0.009 C  
DOCKED: ENDBRANCH  52  58
DOCKED: ENDBRANCH  49  52
DOCKED: ENDBRANCH  47  48
DOCKED: BRANCH  47  61
DOCKED: ATOM     61  C3  UNL     1       8.965  -6.736   0.977 +0.00 +0.00    +0.042 C  
DOCKED: BRANCH  61  62
DOCKED: ATOM     62  C2  UNL     1       8.901  -7.839   2.039 +0.00 +0.00    +0.071 C  
DOCKED: BRANCH  62  64
DOCKED: ATOM     63  C1  UNL     1       8.098  -8.983  -0.325 +0.00 +0.00    +0.084 C  
DOCKED: ATOM     64  S1  UNL     1       7.859  -9.210   1.452 +0.00 -0.00    -0.164 S  
DOCKED: ENDBRANCH  62  64
DOCKED: ENDBRANCH  61  62
DOCKED: ENDBRANCH  47  61
DOCKED: ENDBRANCH  43  47
DOCKED: ENDBRANCH  42  45
DOCKED: BRANCH  42  65
DOCKED: ATOM     65  C14 UNL     1       6.803  -3.062  -1.635 +0.00 +0.00    +0.028 C  
DOCKED: BRANCH  65  66
DOCKED: ATOM     66  C15 UNL     1       7.509  -3.816  -2.776 +0.00 -0.00    -0.015 C  
DOCKED: ATOM     67  C16 UNL     1       7.473  -5.323  -2.496 +0.00 +0.00    +0.007 C  
DOCKED: ATOM     68  C17 UNL     1       8.959  -3.371  -2.971 +0.00 +0.00    +0.007 C  
DOCKED: ENDBRANCH  65  66
DOCKED: ENDBRANCH  42  65
DOCKED: ENDBRANCH  39  42
DOCKED: ENDBRANCH  38  39
DOCKED: ENDBRANCH   1  38
DOCKED: TORSDOF 30
DOCKED: TER
DOCKED: ENDMDL
________________________________________________________________________________


    FINAL DOCKED STATE:
    ________________________


Run:   16 / 20
Time taken for this run:   4.973s

DOCKED: MODEL        16
DOCKED: USER    Run = 16
DOCKED: USER
DOCKED: USER    Estimated Free Energy of Binding    =  +8.95 kcal/mol  [=(1)+(2)+(3)-(4)]
DOCKED: USER
DOCKED: USER    (1) Final Intermolecular Energy     =  +0.00 kcal/mol
DOCKED: USER        vdW + Hbond + desolv Energy     =  +0.00 kcal/mol
DOCKED: USER        Electrostatic Energy            =  +0.00 kcal/mol
DOCKED: USER        Moving Ligand-Fixed Receptor    =  +0.00 kcal/mol
DOCKED: USER        Moving Ligand-Moving Receptor   =  +0.00 kcal/mol
DOCKED: USER    (2) Final Total Internal Energy     = -23.58 kcal/mol
DOCKED: USER    (3) Torsional Free Energy           =  +8.95 kcal/mol
DOCKED: USER    (4) Unbound System's Energy         = -23.58 kcal/mol
DOCKED: USER
DOCKED: USER
DOCKED: REMARK  Name = ligands/ligand_3.pdb
DOCKED: REMARK  39 active torsions:
DOCKED: REMARK  status: ('A' for Active; 'I' for Inactive)
DOCKED: REMARK    1  A    between atoms: C1_1  and  S1_2
DOCKED: REMARK    2  A    between atoms: S1_2  and  C2_3
DOCKED: REMARK    3  A    between atoms: C2_3  and  C3_4
DOCKED: REMARK    4  A    between atoms: C3_4  and  C4_5
DOCKED: REMARK    5  A    between atoms: C4_5  and  N1_6
DOCKED: REMARK    6  A    between atoms: C4_5  and  C12_17
DOCKED: REMARK    7  A    between atoms: C5_7  and  C6_9
DOCKED: REMARK    8  A    between atoms: C6_9  and  N2_10
DOCKED: REMARK    9  A    between atoms: C6_9  and  C9_14
DOCKED: REMARK   10  A    between atoms: C7_11  and  C8_12
DOCKED: REMARK   11  A    between atoms: C9_14  and  C10_15
DOCKED: REMARK   12  A    between atoms: C9_14  and  C11_16
DOCKED: REMARK   13  A    between atoms: N3_19  and  C13_20
DOCKED: REMARK   14  A    between atoms: C13_20  and  C14_21
DOCKED: REMARK   15  A    between atoms: C13_20  and  C18_25
DOCKED: REMARK   16  A    between atoms: C14_21  and  C15_22
DOCKED: REMARK   17  A    between atoms: C15_22  and  C16_23
DOCKED: REMARK   18  A    between atoms: C15_22  and  C17_24
DOCKED: REMARK   19  A    between atoms: C18_25  and  O4_26
DOCKED: REMARK   20  A    between atoms: C18_25  and  C19_27
DOCKED: REMARK   21  A    between atoms: C19_27  and  C20_28
DOCKED: REMARK   22  A    between atoms: C20_28  and  C21_29
DOCKED: REMARK   23  A    between atoms: C20_28  and  C39_57
DOCKED: REMARK   24  A    between atoms: N4_31  and  C22_32
DOCKED: REMARK   25  A    between atoms: C22_32  and  C23_33
DOCKED: REMARK   26  A    between atoms: C22_32  and  C24_34
DOCKED: REMARK   27  A    between atoms: N5_36  and  C25_37
DOCKED: REMARK   28  A    between atoms: C25_37  and  C26_38
DOCKED: REMARK   29  A    between atoms: C25_37  and  C29_43
DOCKED: REMARK   30  A    between atoms: C26_38  and  C27_39
DOCKED: REMARK   31  A    between atoms: C27_39  and  C28_40
DOCKED: REMARK   32  A    between atoms: C28_40  and  O8_42
DOCKED: REMARK   33  A    between atoms: N6_45  and  C30_46
DOCKED: REMARK   34  A    between atoms: C30_46  and  C31_47
DOCKED: REMARK   35  A    between atoms: C30_46  and  C38_54
DOCKED: REMARK   36  A    between atoms: C31_47  and  C32_48
DOCKED: REMARK   37  A    between atoms: C38_54  and  O11_56
DOCKED: REMARK   38  A    between atoms: C39_57  and  C40_58
DOCKED: REMARK   39  A    between atoms: C39_57  and  C41_59
DOCKED: REMARK                            x       y       z     vdW  Elec       q    Type
DOCKED: REMARK                         _______ _______ _______ _____ _____    ______ ____
DOCKED: USER                              x       y       z     vdW  Elec       q    Type
DOCKED: USER                           _______ _______ _______ _____ _____    ______ ____
DOCKED: ROOT
DOCKED: ATOM      1  C20 UNL     1      10.165   1.826  -3.858 +0.00 +0.00    +0.080 C  
DOCKED: ENDROOT
DOCKED: BRANCH   1   2
DOCKED: ATOM      2  C21 UNL     1      10.237   2.077  -2.344 +0.00 +0.00    +0.217 C  
DOCKED: ATOM      3  O5  UNL     1       9.430   2.774  -1.741 +0.00 -0.00    -0.275 OA 
DOCKED: ATOM      4  N4  UNL     1      11.316   1.477  -1.723 +0.00 -0.00    -0.304 N  
DOCKED: ATOM      5  H38 UNL     1      12.091   1.235  -2.332 +0.00 +0.00    +0.149 HD 
DOCKED: BRANCH   4   6
DOCKED: ATOM      6  C22 UNL     1      11.749   1.974  -0.418 +0.00 +0.00    +0.156 C  
DOCKED: ATOM      7  C23 UNL     1      12.879   1.125   0.144 +0.00 +0.00    +0.038 C  
DOCKED: BRANCH   6   8
DOCKED: ATOM      8  C24 UNL     1      12.233   3.422  -0.643 +0.00 +0.00    +0.234 C  
DOCKED: ATOM      9  O6  UNL     1      12.071   4.305   0.202 +0.00 -0.00    -0.274 OA 
DOCKED: ATOM     10  N5  UNL     1      12.828   3.656  -1.857 +0.00 -0.00    -0.302 N  
DOCKED: ATOM     11  H43 UNL     1      12.698   2.965  -2.600 +0.00 +0.00    +0.150 HD 
DOCKED: BRANCH  10  12
DOCKED: ATOM     12  C25 UNL     1      13.223   4.995  -2.262 +0.00 +0.00    +0.159 C  
DOCKED: BRANCH  12  13
DOCKED: ATOM     13  C29 UNL     1      12.983   5.189  -3.773 +0.00 +0.00    +0.234 C  
DOCKED: ATOM     14  O9  UNL     1      12.358   6.145  -4.227 +0.00 -0.00    -0.274 OA 
DOCKED: ATOM     15  N6  UNL     1      13.436   4.148  -4.557 +0.00 -0.00    -0.301 N  
DOCKED: ATOM     16  H50 UNL     1      13.704   3.288  -4.092 +0.00 +0.00    +0.150 HD 
DOCKED: BRANCH  15  17
DOCKED: ATOM     17  C30 UNL     1      13.062   4.053  -5.971 +0.00 +0.00    +0.186 C  
DOCKED: BRANCH  17  18
DOCKED: ATOM     18  C38 UNL     1      13.456   2.660  -6.462 +0.00 +0.00    +0.326 C  
DOCKED: ATOM     19  O10 UNL     1      12.873   2.002  -7.317 +0.00 -0.00    -0.249 OA 
DOCKED: BRANCH  18  20
DOCKED: ATOM     20  O11 UNL     1      14.524   2.148  -5.819 +0.00 -0.00    -0.479 OA 
DOCKED: ATOM     21  H59 UNL     1      14.362   2.355  -4.873 +0.00 +0.00    +0.295 HD 
DOCKED: ENDBRANCH  18  20
DOCKED: ENDBRANCH  17  18
DOCKED: BRANCH  17  22
DOCKED: ATOM     22  C31 UNL     1      13.789   5.099  -6.830 +0.00 +0.00    +0.069 C  
DOCKED: BRANCH  22  23
DOCKED: ATOM     23  C32 UNL     1      15.153   5.479  -6.293 +0.00 -0.00    -0.045 A  
DOCKED: ATOM     24  C33 UNL     1      15.305   6.613  -5.484 +0.00 +0.00    +0.004 A  
DOCKED: ATOM     25  C34 UNL     1      16.564   6.958  -4.991 +0.00 +0.00    +0.000 A  
DOCKED: ATOM     26  C35 UNL     1      17.678   6.179  -5.298 +0.00 +0.00    +0.000 A  
DOCKED: ATOM     27  C36 UNL     1      17.534   5.048  -6.092 +0.00 +0.00    +0.000 A  
DOCKED: ATOM     28  C37 UNL     1      16.279   4.694  -6.584 +0.00 +0.00    +0.004 A  
DOCKED: ENDBRANCH  22  23
DOCKED: ENDBRANCH  17  22
DOCKED: ENDBRANCH  15  17
DOCKED: ENDBRANCH  12  13
DOCKED: BRANCH  12  29
DOCKED: ATOM     29  C26 UNL     1      14.682   5.306  -1.871 +0.00 +0.00    +0.043 C  
DOCKED: BRANCH  29  30
DOCKED: ATOM     30  C27 UNL     1      15.666   4.130  -1.851 +0.00 +0.00    +0.123 C  
DOCKED: BRANCH  30  31
DOCKED: ATOM     31  C28 UNL     1      15.540   3.180  -3.015 +0.00 +0.00    +0.305 C  
DOCKED: ATOM     32  O7  UNL     1      16.130   3.231  -4.079 +0.00 -0.00    -0.251 OA 
DOCKED: BRANCH  31  33
DOCKED: ATOM     33  O8  UNL     1      14.702   2.162  -2.741 +0.00 -0.00    -0.481 OA 
DOCKED: ATOM     34  H49 UNL     1      14.623   1.670  -3.584 +0.00 +0.00    +0.295 HD 
DOCKED: ENDBRANCH  31  33
DOCKED: ENDBRANCH  30  31
DOCKED: ENDBRANCH  29  30
DOCKED: ENDBRANCH  12  29
DOCKED: ENDBRANCH  10  12
DOCKED: ENDBRANCH   6   8
DOCKED: ENDBRANCH   4   6
DOCKED: ENDBRANCH   1   2
DOCKED: BRANCH   1  35
DOCKED: ATOM     35  C39 UNL     1       8.850   2.381  -4.472 +0.00 -0.00    -0.005 C  
DOCKED: ATOM     36  C40 UNL     1       9.002   3.842  -4.915 +0.00 +0.00    +0.008 C  
DOCKED: ATOM     37  C41 UNL     1       8.261   1.559  -5.617 +0.00 +0.00    +0.008 C  
DOCKED: ENDBRANCH   1  35
DOCKED: BRANCH   1  38
DOCKED: ATOM     38  C19 UNL     1      10.597   0.396  -4.278 +0.00 +0.00    +0.046 C  
DOCKED: BRANCH  38  39
DOCKED: ATOM     39  C18 UNL     1      12.100   0.152  -4.508 +0.00 +0.00    +0.135 C  
DOCKED: BRANCH  39  40
DOCKED: ATOM     40  O4  UNL     1      12.884   1.225  -3.976 +0.00 -0.00    -0.390 OA 
DOCKED: ATOM     41  H34 UNL     1      13.752   1.223  -4.418 +0.00 +0.00    +0.210 HD 
DOCKED: ENDBRANCH  39  40
DOCKED: BRANCH  39  42
DOCKED: ATOM     42  C13 UNL     1      12.627  -1.194  -3.911 +0.00 +0.00    +0.102 C  
DOCKED: BRANCH  42  45
DOCKED: ATOM     43  C12 UNL     1      14.837  -1.763  -2.911 +0.00 +0.00    +0.234 C  
DOCKED: ATOM     44  O3  UNL     1      14.815  -2.919  -3.325 +0.00 -0.00    -0.274 OA 
DOCKED: ATOM     45  N3  UNL     1      13.797  -0.875  -3.077 +0.00 -0.00    -0.308 N  
DOCKED: ATOM     46  H22 UNL     1      13.981   0.111  -2.933 +0.00 +0.00    +0.149 HD 
DOCKED: BRANCH  43  47
DOCKED: ATOM     47  C4  UNL     1      16.081  -1.156  -2.232 +0.00 +0.00    +0.160 C  
DOCKED: BRANCH  47  48
DOCKED: ATOM     48  N1  UNL     1      17.046  -0.754  -3.251 +0.00 -0.00    -0.302 N  
DOCKED: ATOM     49  C5  UNL     1      16.674   0.143  -4.231 +0.00 +0.00    +0.234 C  
DOCKED: ATOM     50  O1  UNL     1      15.519   0.554  -4.352 +0.00 -0.00    -0.274 OA 
DOCKED: ATOM     51  H9  UNL     1      18.013  -0.716  -2.956 +0.00 +0.00    +0.150 HD 
DOCKED: BRANCH  49  52
DOCKED: ATOM     52  C6  UNL     1      17.810   0.600  -5.182 +0.00 +0.00    +0.161 C  
DOCKED: BRANCH  52  53
DOCKED: ATOM     53  N2  UNL     1      17.177   1.467  -6.173 +0.00 -0.00    -0.304 N  
DOCKED: ATOM     54  C7  UNL     1      17.332   1.259  -7.521 +0.00 +0.00    +0.211 C  
DOCKED: ATOM     55  C8  UNL     1      16.463   2.136  -8.383 +0.00 +0.00    +0.109 C  
DOCKED: ATOM     56  O2  UNL     1      18.128   0.454  -7.997 +0.00 -0.00    -0.276 OA 
DOCKED: ATOM     57  H11 UNL     1      16.363   1.980  -5.848 +0.00 +0.00    +0.149 HD 
DOCKED: ENDBRANCH  52  53
DOCKED: BRANCH  52  58
DOCKED: ATOM     58  C9  UNL     1      18.964   1.283  -4.401 +0.00 +0.00    +0.012 C  
DOCKED: ATOM     59  C10 UNL     1      19.585   2.408  -5.243 +0.00 +0.00    +0.009 C  
DOCKED: ATOM     60  C11 UNL     1      18.568   1.854  -3.033 +0.00 +0.00    +0.009 C  
DOCKED: ENDBRANCH  52  58
DOCKED: ENDBRANCH  49  52
DOCKED: ENDBRANCH  47  48
DOCKED: BRANCH  47  61
DOCKED: ATOM     61  C3  UNL     1      15.689   0.020  -1.325 +0.00 +0.00    +0.042 C  
DOCKED: BRANCH  61  62
DOCKED: ATOM     62  C2  UNL     1      16.515   0.106  -0.036 +0.00 +0.00    +0.071 C  
DOCKED: BRANCH  62  64
DOCKED: ATOM     63  C1  UNL     1      15.826   2.466   1.188 +0.00 +0.00    +0.084 C  
DOCKED: ATOM     64  S1  UNL     1      17.163   1.793   0.177 +0.00 -0.00    -0.164 S  
DOCKED: ENDBRANCH  62  64
DOCKED: ENDBRANCH  61  62
DOCKED: ENDBRANCH  47  61
DOCKED: ENDBRANCH  43  47
DOCKED: ENDBRANCH  42  45
DOCKED: BRANCH  42  65
DOCKED: ATOM     65  C14 UNL     1      11.645  -1.984  -3.018 +0.00 +0.00    +0.028 C  
DOCKED: BRANCH  65  66
DOCKED: ATOM     66  C15 UNL     1      11.546  -1.580  -1.536 +0.00 -0.00    -0.015 C  
DOCKED: ATOM     67  C16 UNL     1      12.287  -2.608  -0.673 +0.00 +0.00    +0.007 C  
DOCKED: ATOM     68  C17 UNL     1      10.101  -1.459  -1.051 +0.00 +0.00    +0.007 C  
DOCKED: ENDBRANCH  65  66
DOCKED: ENDBRANCH  42  65
DOCKED: ENDBRANCH  39  42
DOCKED: ENDBRANCH  38  39
DOCKED: ENDBRANCH   1  38
DOCKED: TORSDOF 30
DOCKED: TER
DOCKED: ENDMDL
________________________________________________________________________________


    FINAL DOCKED STATE:
    ________________________


Run:   17 / 20
Time taken for this run:   4.973s

DOCKED: MODEL        17
DOCKED: USER    Run = 17
DOCKED: USER
DOCKED: USER    Estimated Free Energy of Binding    =  +8.95 kcal/mol  [=(1)+(2)+(3)-(4)]
DOCKED: USER
DOCKED: USER    (1) Final Intermolecular Energy     =  +0.00 kcal/mol
DOCKED: USER        vdW + Hbond + desolv Energy     =  +0.00 kcal/mol
DOCKED: USER        Electrostatic Energy            =  +0.00 kcal/mol
DOCKED: USER        Moving Ligand-Fixed Receptor    =  +0.00 kcal/mol
DOCKED: USER        Moving Ligand-Moving Receptor   =  +0.00 kcal/mol
DOCKED: USER    (2) Final Total Internal Energy     = -24.14 kcal/mol
DOCKED: USER    (3) Torsional Free Energy           =  +8.95 kcal/mol
DOCKED: USER    (4) Unbound System's Energy         = -24.14 kcal/mol
DOCKED: USER
DOCKED: USER
DOCKED: REMARK  Name = ligands/ligand_3.pdb
DOCKED: REMARK  39 active torsions:
DOCKED: REMARK  status: ('A' for Active; 'I' for Inactive)
DOCKED: REMARK    1  A    between atoms: C1_1  and  S1_2
DOCKED: REMARK    2  A    between atoms: S1_2  and  C2_3
DOCKED: REMARK    3  A    between atoms: C2_3  and  C3_4
DOCKED: REMARK    4  A    between atoms: C3_4  and  C4_5
DOCKED: REMARK    5  A    between atoms: C4_5  and  N1_6
DOCKED: REMARK    6  A    between atoms: C4_5  and  C12_17
DOCKED: REMARK    7  A    between atoms: C5_7  and  C6_9
DOCKED: REMARK    8  A    between atoms: C6_9  and  N2_10
DOCKED: REMARK    9  A    between atoms: C6_9  and  C9_14
DOCKED: REMARK   10  A    between atoms: C7_11  and  C8_12
DOCKED: REMARK   11  A    between atoms: C9_14  and  C10_15
DOCKED: REMARK   12  A    between atoms: C9_14  and  C11_16
DOCKED: REMARK   13  A    between atoms: N3_19  and  C13_20
DOCKED: REMARK   14  A    between atoms: C13_20  and  C14_21
DOCKED: REMARK   15  A    between atoms: C13_20  and  C18_25
DOCKED: REMARK   16  A    between atoms: C14_21  and  C15_22
DOCKED: REMARK   17  A    between atoms: C15_22  and  C16_23
DOCKED: REMARK   18  A    between atoms: C15_22  and  C17_24
DOCKED: REMARK   19  A    between atoms: C18_25  and  O4_26
DOCKED: REMARK   20  A    between atoms: C18_25  and  C19_27
DOCKED: REMARK   21  A    between atoms: C19_27  and  C20_28
DOCKED: REMARK   22  A    between atoms: C20_28  and  C21_29
DOCKED: REMARK   23  A    between atoms: C20_28  and  C39_57
DOCKED: REMARK   24  A    between atoms: N4_31  and  C22_32
DOCKED: REMARK   25  A    between atoms: C22_32  and  C23_33
DOCKED: REMARK   26  A    between atoms: C22_32  and  C24_34
DOCKED: REMARK   27  A    between atoms: N5_36  and  C25_37
DOCKED: REMARK   28  A    between atoms: C25_37  and  C26_38
DOCKED: REMARK   29  A    between atoms: C25_37  and  C29_43
DOCKED: REMARK   30  A    between atoms: C26_38  and  C27_39
DOCKED: REMARK   31  A    between atoms: C27_39  and  C28_40
DOCKED: REMARK   32  A    between atoms: C28_40  and  O8_42
DOCKED: REMARK   33  A    between atoms: N6_45  and  C30_46
DOCKED: REMARK   34  A    between atoms: C30_46  and  C31_47
DOCKED: REMARK   35  A    between atoms: C30_46  and  C38_54
DOCKED: REMARK   36  A    between atoms: C31_47  and  C32_48
DOCKED: REMARK   37  A    between atoms: C38_54  and  O11_56
DOCKED: REMARK   38  A    between atoms: C39_57  and  C40_58
DOCKED: REMARK   39  A    between atoms: C39_57  and  C41_59
DOCKED: REMARK                            x       y       z     vdW  Elec       q    Type
DOCKED: REMARK                         _______ _______ _______ _____ _____    ______ ____
DOCKED: USER                              x       y       z     vdW  Elec       q    Type
DOCKED: USER                           _______ _______ _______ _____ _____    ______ ____
DOCKED: ROOT
DOCKED: ATOM      1  C20 UNL     1       7.869  -1.250   0.063 +0.00 +0.00    +0.080 C  
DOCKED: ENDROOT
DOCKED: BRANCH   1   2
DOCKED: ATOM      2  C21 UNL     1       7.102  -1.611  -1.218 +0.00 +0.00    +0.217 C  
DOCKED: ATOM      3  O5  UNL     1       6.586  -2.706  -1.405 +0.00 -0.00    -0.275 OA 
DOCKED: ATOM      4  N4  UNL     1       7.076  -0.603  -2.163 +0.00 -0.00    -0.304 N  
DOCKED: ATOM      5  H38 UNL     1       7.804   0.100  -2.073 +0.00 +0.00    +0.149 HD 
DOCKED: BRANCH   4   6
DOCKED: ATOM      6  C22 UNL     1       6.781  -0.943  -3.554 +0.00 +0.00    +0.156 C  
DOCKED: ATOM      7  C23 UNL     1       7.742  -2.001  -4.076 +0.00 +0.00    +0.038 C  
DOCKED: BRANCH   6   8
DOCKED: ATOM      8  C24 UNL     1       5.336  -1.484  -3.572 +0.00 +0.00    +0.234 C  
DOCKED: ATOM      9  O6  UNL     1       4.357  -0.735  -3.535 +0.00 -0.00    -0.274 OA 
DOCKED: ATOM     10  N5  UNL     1       5.225  -2.851  -3.603 +0.00 -0.00    -0.302 N  
DOCKED: ATOM     11  H43 UNL     1       6.050  -3.408  -3.370 +0.00 +0.00    +0.150 HD 
DOCKED: BRANCH  10  12
DOCKED: ATOM     12  C25 UNL     1       3.933  -3.510  -3.499 +0.00 +0.00    +0.159 C  
DOCKED: BRANCH  12  13
DOCKED: ATOM     13  C29 UNL     1       3.341  -3.305  -2.090 +0.00 +0.00    +0.234 C  
DOCKED: ATOM     14  O9  UNL     1       2.297  -2.686  -1.893 +0.00 -0.00    -0.274 OA 
DOCKED: ATOM     15  N6  UNL     1       4.134  -3.781  -1.067 +0.00 -0.00    -0.301 N  
DOCKED: ATOM     16  H50 UNL     1       5.088  -4.041  -1.290 +0.00 +0.00    +0.150 HD 
DOCKED: BRANCH  15  17
DOCKED: ATOM     17  C30 UNL     1       3.846  -3.441   0.330 +0.00 +0.00    +0.186 C  
DOCKED: BRANCH  17  18
DOCKED: ATOM     18  C38 UNL     1       5.109  -3.719   1.145 +0.00 +0.00    +0.326 C  
DOCKED: ATOM     19  O10 UNL     1       5.501  -3.079   2.113 +0.00 -0.00    -0.249 OA 
DOCKED: BRANCH  18  20
DOCKED: ATOM     20  O11 UNL     1       5.835  -4.750   0.670 +0.00 -0.00    -0.479 OA 
DOCKED: ATOM     21  H59 UNL     1       6.199  -4.422  -0.181 +0.00 +0.00    +0.295 HD 
DOCKED: ENDBRANCH  18  20
DOCKED: ENDBRANCH  17  18
DOCKED: BRANCH  17  22
DOCKED: ATOM     22  C31 UNL     1       2.697  -4.284   0.902 +0.00 +0.00    +0.069 C  
DOCKED: BRANCH  22  23
DOCKED: ATOM     23  C32 UNL     1       2.569  -5.648   0.255 +0.00 -0.00    -0.045 A  
DOCKED: ATOM     24  C33 UNL     1       3.289  -6.740   0.755 +0.00 +0.00    +0.004 A  
DOCKED: ATOM     25  C34 UNL     1       3.166  -7.994   0.154 +0.00 +0.00    +0.000 A  
DOCKED: ATOM     26  C35 UNL     1       2.327  -8.169  -0.945 +0.00 +0.00    +0.000 A  
DOCKED: ATOM     27  C36 UNL     1       1.603  -7.092  -1.441 +0.00 +0.00    +0.000 A  
DOCKED: ATOM     28  C37 UNL     1       1.717  -5.838  -0.844 +0.00 +0.00    +0.004 A  
DOCKED: ENDBRANCH  22  23
DOCKED: ENDBRANCH  17  22
DOCKED: ENDBRANCH  15  17
DOCKED: ENDBRANCH  12  13
DOCKED: BRANCH  12  29
DOCKED: ATOM     29  C26 UNL     1       4.018  -5.004  -3.871 +0.00 +0.00    +0.043 C  
DOCKED: BRANCH  29  30
DOCKED: ATOM     30  C27 UNL     1       5.364  -5.703  -3.647 +0.00 +0.00    +0.123 C  
DOCKED: BRANCH  30  31
DOCKED: ATOM     31  C28 UNL     1       5.865  -5.672  -2.225 +0.00 +0.00    +0.305 C  
DOCKED: ATOM     32  O7  UNL     1       5.398  -6.254  -1.263 +0.00 -0.00    -0.251 OA 
DOCKED: BRANCH  31  33
DOCKED: ATOM     33  O8  UNL     1       6.988  -4.938  -2.107 +0.00 -0.00    -0.481 OA 
DOCKED: ATOM     34  H49 UNL     1       7.092  -4.796  -1.143 +0.00 +0.00    +0.295 HD 
DOCKED: ENDBRANCH  31  33
DOCKED: ENDBRANCH  30  31
DOCKED: ENDBRANCH  29  30
DOCKED: ENDBRANCH  12  29
DOCKED: ENDBRANCH  10  12
DOCKED: ENDBRANCH   6   8
DOCKED: ENDBRANCH   4   6
DOCKED: ENDBRANCH   1   2
DOCKED: BRANCH   1  35
DOCKED: ATOM     35  C39 UNL     1       7.679   0.244   0.446 +0.00 -0.00    -0.005 C  
DOCKED: ATOM     36  C40 UNL     1       6.210   0.573   0.741 +0.00 +0.00    +0.008 C  
DOCKED: ATOM     37  C41 UNL     1       8.554   0.745   1.594 +0.00 +0.00    +0.008 C  
DOCKED: ENDBRANCH   1  35
DOCKED: BRANCH   1  38
DOCKED: ATOM     38  C19 UNL     1       9.312  -1.818   0.110 +0.00 +0.00    +0.046 C  
DOCKED: BRANCH  38  39
DOCKED: ATOM     39  C18 UNL     1       9.467  -3.340   0.282 +0.00 +0.00    +0.135 C  
DOCKED: BRANCH  39  40
DOCKED: ATOM     40  O4  UNL     1       8.209  -3.955   0.578 +0.00 -0.00    -0.390 OA 
DOCKED: ATOM     41  H34 UNL     1       7.739  -4.117  -0.259 +0.00 +0.00    +0.210 HD 
DOCKED: ENDBRANCH  39  40
DOCKED: BRANCH  39  42
DOCKED: ATOM     42  C13 UNL     1      10.098  -4.062  -0.952 +0.00 +0.00    +0.102 C  
DOCKED: BRANCH  42  45
DOCKED: ATOM     43  C12 UNL     1      10.404  -6.522  -0.707 +0.00 +0.00    +0.234 C  
DOCKED: ATOM     44  O3  UNL     1      11.623  -6.437  -0.588 +0.00 -0.00    -0.274 OA 
DOCKED: ATOM     45  N3  UNL     1       9.588  -5.442  -0.961 +0.00 -0.00    -0.308 N  
DOCKED: ATOM     46  H22 UNL     1       8.592  -5.545  -0.803 +0.00 +0.00    +0.149 HD 
DOCKED: BRANCH  43  47
DOCKED: ATOM     47  C4  UNL     1       9.646  -7.848  -0.496 +0.00 +0.00    +0.160 C  
DOCKED: BRANCH  47  48
DOCKED: ATOM     48  N1  UNL     1       8.981  -7.828   0.804 +0.00 -0.00    -0.302 N  
DOCKED: ATOM     49  C5  UNL     1       7.876  -7.025   0.996 +0.00 +0.00    +0.234 C  
DOCKED: ATOM     50  O1  UNL     1       7.473  -6.234   0.142 +0.00 -0.00    -0.274 OA 
DOCKED: ATOM     51  H9  UNL     1       8.997  -8.696   1.324 +0.00 +0.00    +0.150 HD 
DOCKED: BRANCH  49  52
DOCKED: ATOM     52  C6  UNL     1       7.171  -7.179   2.368 +0.00 +0.00    +0.161 C  
DOCKED: BRANCH  52  53
DOCKED: ATOM     53  N2  UNL     1       6.916  -5.820   2.841 +0.00 -0.00    -0.304 N  
DOCKED: ATOM     54  C7  UNL     1       7.153  -5.451   4.142 +0.00 +0.00    +0.211 C  
DOCKED: ATOM     55  C8  UNL     1       7.006  -3.974   4.399 +0.00 +0.00    +0.109 C  
DOCKED: ATOM     56  O2  UNL     1       7.430  -6.246   5.035 +0.00 -0.00    -0.276 OA 
DOCKED: ATOM     57  H11 UNL     1       6.908  -5.102   2.123 +0.00 +0.00    +0.149 HD 
DOCKED: ENDBRANCH  52  53
DOCKED: BRANCH  52  58
DOCKED: ATOM     58  C9  UNL     1       5.892  -8.050   2.256 +0.00 +0.00    +0.012 C  
DOCKED: ATOM     59  C10 UNL     1       6.265  -9.538   2.176 +0.00 +0.00    +0.009 C  
DOCKED: ATOM     60  C11 UNL     1       4.879  -7.857   3.392 +0.00 +0.00    +0.009 C  
DOCKED: ENDBRANCH  52  58
DOCKED: ENDBRANCH  49  52
DOCKED: ENDBRANCH  47  48
DOCKED: BRANCH  47  61
DOCKED: ATOM     61  C3  UNL     1       8.652  -8.097  -1.639 +0.00 +0.00    +0.042 C  
DOCKED: BRANCH  61  62
DOCKED: ATOM     62  C2  UNL     1       7.962  -9.464  -1.569 +0.00 +0.00    +0.071 C  
DOCKED: BRANCH  62  64
DOCKED: ATOM     63  C1  UNL     1       5.592  -9.092  -2.906 +0.00 +0.00    +0.084 C  
DOCKED: ATOM     64  S1  UNL     1       6.191  -9.251  -1.209 +0.00 -0.00    -0.164 S  
DOCKED: ENDBRANCH  62  64
DOCKED: ENDBRANCH  61  62
DOCKED: ENDBRANCH  47  61
DOCKED: ENDBRANCH  43  47
DOCKED: ENDBRANCH  42  45
DOCKED: BRANCH  42  65
DOCKED: ATOM     65  C14 UNL     1       9.780  -3.460  -2.340 +0.00 +0.00    +0.028 C  
DOCKED: BRANCH  65  66
DOCKED: ATOM     66  C15 UNL     1      10.342  -4.185  -3.576 +0.00 -0.00    -0.015 C  
DOCKED: ATOM     67  C16 UNL     1       9.365  -5.280  -4.017 +0.00 +0.00    +0.007 C  
DOCKED: ATOM     68  C17 UNL     1      11.718  -4.803  -3.326 +0.00 +0.00    +0.007 C  
DOCKED: ENDBRANCH  65  66
DOCKED: ENDBRANCH  42  65
DOCKED: ENDBRANCH  39  42
DOCKED: ENDBRANCH  38  39
DOCKED: ENDBRANCH   1  38
DOCKED: TORSDOF 30
DOCKED: TER
DOCKED: ENDMDL
________________________________________________________________________________


    FINAL DOCKED STATE:
    ________________________


Run:   18 / 20
Time taken for this run:   4.973s

DOCKED: MODEL        18
DOCKED: USER    Run = 18
DOCKED: USER
DOCKED: USER    Estimated Free Energy of Binding    =  +8.95 kcal/mol  [=(1)+(2)+(3)-(4)]
DOCKED: USER
DOCKED: USER    (1) Final Intermolecular Energy     =  +0.00 kcal/mol
DOCKED: USER        vdW + Hbond + desolv Energy     =  +0.00 kcal/mol
DOCKED: USER        Electrostatic Energy            =  +0.00 kcal/mol
DOCKED: USER        Moving Ligand-Fixed Receptor    =  +0.00 kcal/mol
DOCKED: USER        Moving Ligand-Moving Receptor   =  +0.00 kcal/mol
DOCKED: USER    (2) Final Total Internal Energy     = -24.12 kcal/mol
DOCKED: USER    (3) Torsional Free Energy           =  +8.95 kcal/mol
DOCKED: USER    (4) Unbound System's Energy         = -24.12 kcal/mol
DOCKED: USER
DOCKED: USER
DOCKED: REMARK  Name = ligands/ligand_3.pdb
DOCKED: REMARK  39 active torsions:
DOCKED: REMARK  status: ('A' for Active; 'I' for Inactive)
DOCKED: REMARK    1  A    between atoms: C1_1  and  S1_2
DOCKED: REMARK    2  A    between atoms: S1_2  and  C2_3
DOCKED: REMARK    3  A    between atoms: C2_3  and  C3_4
DOCKED: REMARK    4  A    between atoms: C3_4  and  C4_5
DOCKED: REMARK    5  A    between atoms: C4_5  and  N1_6
DOCKED: REMARK    6  A    between atoms: C4_5  and  C12_17
DOCKED: REMARK    7  A    between atoms: C5_7  and  C6_9
DOCKED: REMARK    8  A    between atoms: C6_9  and  N2_10
DOCKED: REMARK    9  A    between atoms: C6_9  and  C9_14
DOCKED: REMARK   10  A    between atoms: C7_11  and  C8_12
DOCKED: REMARK   11  A    between atoms: C9_14  and  C10_15
DOCKED: REMARK   12  A    between atoms: C9_14  and  C11_16
DOCKED: REMARK   13  A    between atoms: N3_19  and  C13_20
DOCKED: REMARK   14  A    between atoms: C13_20  and  C14_21
DOCKED: REMARK   15  A    between atoms: C13_20  and  C18_25
DOCKED: REMARK   16  A    between atoms: C14_21  and  C15_22
DOCKED: REMARK   17  A    between atoms: C15_22  and  C16_23
DOCKED: REMARK   18  A    between atoms: C15_22  and  C17_24
DOCKED: REMARK   19  A    between atoms: C18_25  and  O4_26
DOCKED: REMARK   20  A    between atoms: C18_25  and  C19_27
DOCKED: REMARK   21  A    between atoms: C19_27  and  C20_28
DOCKED: REMARK   22  A    between atoms: C20_28  and  C21_29
DOCKED: REMARK   23  A    between atoms: C20_28  and  C39_57
DOCKED: REMARK   24  A    between atoms: N4_31  and  C22_32
DOCKED: REMARK   25  A    between atoms: C22_32  and  C23_33
DOCKED: REMARK   26  A    between atoms: C22_32  and  C24_34
DOCKED: REMARK   27  A    between atoms: N5_36  and  C25_37
DOCKED: REMARK   28  A    between atoms: C25_37  and  C26_38
DOCKED: REMARK   29  A    between atoms: C25_37  and  C29_43
DOCKED: REMARK   30  A    between atoms: C26_38  and  C27_39
DOCKED: REMARK   31  A    between atoms: C27_39  and  C28_40
DOCKED: REMARK   32  A    between atoms: C28_40  and  O8_42
DOCKED: REMARK   33  A    between atoms: N6_45  and  C30_46
DOCKED: REMARK   34  A    between atoms: C30_46  and  C31_47
DOCKED: REMARK   35  A    between atoms: C30_46  and  C38_54
DOCKED: REMARK   36  A    between atoms: C31_47  and  C32_48
DOCKED: REMARK   37  A    between atoms: C38_54  and  O11_56
DOCKED: REMARK   38  A    between atoms: C39_57  and  C40_58
DOCKED: REMARK   39  A    between atoms: C39_57  and  C41_59
DOCKED: REMARK                            x       y       z     vdW  Elec       q    Type
DOCKED: REMARK                         _______ _______ _______ _____ _____    ______ ____
DOCKED: USER                              x       y       z     vdW  Elec       q    Type
DOCKED: USER                           _______ _______ _______ _____ _____    ______ ____
DOCKED: ROOT
DOCKED: ATOM      1  C20 UNL     1      16.751  -5.348  -0.684 +0.00 +0.00    +0.080 C  
DOCKED: ENDROOT
DOCKED: BRANCH   1   2
DOCKED: ATOM      2  C21 UNL     1      17.450  -4.035  -0.303 +0.00 +0.00    +0.217 C  
DOCKED: ATOM      3  O5  UNL     1      17.153  -2.950  -0.790 +0.00 -0.00    -0.275 OA 
DOCKED: ATOM      4  N4  UNL     1      18.475  -4.186   0.612 +0.00 -0.00    -0.304 N  
DOCKED: ATOM      5  H38 UNL     1      18.867  -5.120   0.678 +0.00 +0.00    +0.149 HD 
DOCKED: BRANCH   4   6
DOCKED: ATOM      6  C22 UNL     1      19.484  -3.134   0.727 +0.00 +0.00    +0.156 C  
DOCKED: ATOM      7  C23 UNL     1      20.153  -2.867  -0.613 +0.00 +0.00    +0.038 C  
DOCKED: BRANCH   6   8
DOCKED: ATOM      8  C24 UNL     1      18.741  -1.871   1.210 +0.00 +0.00    +0.234 C  
DOCKED: ATOM      9  O6  UNL     1      18.419  -1.712   2.390 +0.00 -0.00    -0.274 OA 
DOCKED: ATOM     10  N5  UNL     1      18.444  -0.958   0.230 +0.00 -0.00    -0.302 N  
DOCKED: ATOM     11  H43 UNL     1      18.500  -1.261  -0.745 +0.00 +0.00    +0.150 HD 
DOCKED: BRANCH  10  12
DOCKED: ATOM     12  C25 UNL     1      17.640   0.221   0.510 +0.00 +0.00    +0.159 C  
DOCKED: BRANCH  12  13
DOCKED: ATOM     13  C29 UNL     1      16.193  -0.188   0.850 +0.00 +0.00    +0.234 C  
DOCKED: ATOM     14  O9  UNL     1      15.690   0.011   1.955 +0.00 -0.00    -0.274 OA 
DOCKED: ATOM     15  N6  UNL     1      15.550  -0.885  -0.151 +0.00 -0.00    -0.301 N  
DOCKED: ATOM     16  H50 UNL     1      16.111  -1.232  -0.921 +0.00 +0.00    +0.150 HD 
DOCKED: BRANCH  15  17
DOCKED: ATOM     17  C30 UNL     1      14.276  -1.565   0.103 +0.00 +0.00    +0.186 C  
DOCKED: BRANCH  17  18
DOCKED: ATOM     18  C38 UNL     1      14.071  -2.597  -1.006 +0.00 +0.00    +0.326 C  
DOCKED: ATOM     19  O10 UNL     1      13.531  -3.690  -0.887 +0.00 -0.00    -0.249 OA 
DOCKED: BRANCH  18  20
DOCKED: ATOM     20  O11 UNL     1      14.601  -2.223  -2.188 +0.00 -0.00    -0.479 OA 
DOCKED: ATOM     21  H59 UNL     1      15.571  -2.259  -2.044 +0.00 +0.00    +0.295 HD 
DOCKED: ENDBRANCH  18  20
DOCKED: ENDBRANCH  17  18
DOCKED: BRANCH  17  22
DOCKED: ATOM     22  C31 UNL     1      13.090  -0.588   0.089 +0.00 +0.00    +0.069 C  
DOCKED: BRANCH  22  23
DOCKED: ATOM     23  C32 UNL     1      13.333   0.644  -0.758 +0.00 -0.00    -0.045 A  
DOCKED: ATOM     24  C33 UNL     1      13.848   1.811  -0.179 +0.00 +0.00    +0.004 A  
DOCKED: ATOM     25  C34 UNL     1      14.071   2.943  -0.964 +0.00 +0.00    +0.000 A  
DOCKED: ATOM     26  C35 UNL     1      13.784   2.922  -2.327 +0.00 +0.00    +0.000 A  
DOCKED: ATOM     27  C36 UNL     1      13.281   1.765  -2.911 +0.00 +0.00    +0.000 A  
DOCKED: ATOM     28  C37 UNL     1      13.061   0.629  -2.134 +0.00 +0.00    +0.004 A  
DOCKED: ENDBRANCH  22  23
DOCKED: ENDBRANCH  17  22
DOCKED: ENDBRANCH  15  17
DOCKED: ENDBRANCH  12  13
DOCKED: BRANCH  12  29
DOCKED: ATOM     29  C26 UNL     1      17.689   1.238  -0.649 +0.00 +0.00    +0.043 C  
DOCKED: BRANCH  29  30
DOCKED: ATOM     30  C27 UNL     1      17.954   0.684  -2.053 +0.00 +0.00    +0.123 C  
DOCKED: BRANCH  30  31
DOCKED: ATOM     31  C28 UNL     1      16.947  -0.330  -2.534 +0.00 +0.00    +0.305 C  
DOCKED: ATOM     32  O7  UNL     1      15.780  -0.134  -2.824 +0.00 -0.00    -0.251 OA 
DOCKED: BRANCH  31  33
DOCKED: ATOM     33  O8  UNL     1      17.497  -1.550  -2.683 +0.00 -0.00    -0.481 OA 
DOCKED: ATOM     34  H49 UNL     1      16.734  -2.159  -2.763 +0.00 +0.00    +0.295 HD 
DOCKED: ENDBRANCH  31  33
DOCKED: ENDBRANCH  30  31
DOCKED: ENDBRANCH  29  30
DOCKED: ENDBRANCH  12  29
DOCKED: ENDBRANCH  10  12
DOCKED: ENDBRANCH   6   8
DOCKED: ENDBRANCH   4   6
DOCKED: ENDBRANCH   1   2
DOCKED: BRANCH   1  35
DOCKED: ATOM     35  C39 UNL     1      16.628  -6.309   0.530 +0.00 -0.00    -0.005 C  
DOCKED: ATOM     36  C40 UNL     1      15.727  -5.727   1.627 +0.00 +0.00    +0.008 C  
DOCKED: ATOM     37  C41 UNL     1      16.177  -7.731   0.201 +0.00 +0.00    +0.008 C  
DOCKED: ENDBRANCH   1  35
DOCKED: BRANCH   1  38
DOCKED: ATOM     38  C19 UNL     1      17.246  -5.956  -2.024 +0.00 +0.00    +0.046 C  
DOCKED: BRANCH  38  39
DOCKED: ATOM     39  C18 UNL     1      16.847  -5.226  -3.320 +0.00 +0.00    +0.135 C  
DOCKED: BRANCH  39  40
DOCKED: ATOM     40  O4  UNL     1      15.894  -4.192  -3.056 +0.00 -0.00    -0.390 OA 
DOCKED: ATOM     41  H34 UNL     1      16.371  -3.400  -2.751 +0.00 +0.00    +0.210 HD 
DOCKED: ENDBRANCH  39  40
DOCKED: BRANCH  39  42
DOCKED: ATOM     42  C13 UNL     1      18.051  -4.608  -4.101 +0.00 +0.00    +0.102 C  
DOCKED: BRANCH  42  45
DOCKED: ATOM     43  C12 UNL     1      17.408  -3.493  -6.234 +0.00 +0.00    +0.234 C  
DOCKED: ATOM     44  O3  UNL     1      17.829  -4.411  -6.932 +0.00 -0.00    -0.274 OA 
DOCKED: ATOM     45  N3  UNL     1      17.536  -3.459  -4.863 +0.00 -0.00    -0.308 N  
DOCKED: ATOM     46  H22 UNL     1      16.959  -2.808  -4.343 +0.00 +0.00    +0.149 HD 
DOCKED: BRANCH  43  47
DOCKED: ATOM     47  C4  UNL     1      16.609  -2.313  -6.821 +0.00 +0.00    +0.160 C  
DOCKED: BRANCH  47  48
DOCKED: ATOM     48  N1  UNL     1      15.188  -2.494  -6.532 +0.00 -0.00    -0.302 N  
DOCKED: ATOM     49  C5  UNL     1      14.726  -2.335  -5.242 +0.00 +0.00    +0.234 C  
DOCKED: ATOM     50  O1  UNL     1      15.479  -2.143  -4.285 +0.00 -0.00    -0.274 OA 
DOCKED: ATOM     51  H9  UNL     1      14.548  -2.230  -7.270 +0.00 +0.00    +0.150 HD 
DOCKED: BRANCH  49  52
DOCKED: ATOM     52  C6  UNL     1      13.188  -2.421  -5.070 +0.00 +0.00    +0.161 C  
DOCKED: BRANCH  52  53
DOCKED: ATOM     53  N2  UNL     1      12.962  -3.312  -3.934 +0.00 -0.00    -0.304 N  
DOCKED: ATOM     54  C7  UNL     1      12.036  -4.325  -3.982 +0.00 +0.00    +0.211 C  
DOCKED: ATOM     55  C8  UNL     1      12.072  -5.248  -2.792 +0.00 +0.00    +0.109 C  
DOCKED: ATOM     56  O2  UNL     1      11.224  -4.461  -4.892 +0.00 -0.00    -0.276 OA 
DOCKED: ATOM     57  H11 UNL     1      13.732  -3.384  -3.276 +0.00 +0.00    +0.149 HD 
DOCKED: ENDBRANCH  52  53
DOCKED: BRANCH  52  58
DOCKED: ATOM     58  C9  UNL     1      12.556  -1.015  -4.895 +0.00 +0.00    +0.012 C  
DOCKED: ATOM     59  C10 UNL     1      12.505  -0.281  -6.243 +0.00 +0.00    +0.009 C  
DOCKED: ATOM     60  C11 UNL     1      11.151  -1.011  -4.278 +0.00 +0.00    +0.009 C  
DOCKED: ENDBRANCH  52  58
DOCKED: ENDBRANCH  49  52
DOCKED: ENDBRANCH  47  48
DOCKED: BRANCH  47  61
DOCKED: ATOM     61  C3  UNL     1      17.132  -0.974  -6.280 +0.00 +0.00    +0.042 C  
DOCKED: BRANCH  61  62
DOCKED: ATOM     62  C2  UNL     1      16.440   0.250  -6.888 +0.00 +0.00    +0.071 C  
DOCKED: BRANCH  62  64
DOCKED: ATOM     63  C1  UNL     1      16.898   2.155  -4.964 +0.00 +0.00    +0.084 C  
DOCKED: ATOM     64  S1  UNL     1      15.532   1.158  -5.599 +0.00 -0.00    -0.164 S  
DOCKED: ENDBRANCH  62  64
DOCKED: ENDBRANCH  61  62
DOCKED: ENDBRANCH  47  61
DOCKED: ENDBRANCH  43  47
DOCKED: ENDBRANCH  42  45
DOCKED: BRANCH  42  65
DOCKED: ATOM     65  C14 UNL     1      19.231  -4.085  -3.251 +0.00 +0.00    +0.028 C  
DOCKED: BRANCH  65  66
DOCKED: ATOM     66  C15 UNL     1      20.398  -3.408  -3.990 +0.00 -0.00    -0.015 C  
DOCKED: ATOM     67  C16 UNL     1      20.108  -1.910  -4.144 +0.00 +0.00    +0.007 C  
DOCKED: ATOM     68  C17 UNL     1      20.660  -4.018  -5.368 +0.00 +0.00    +0.007 C  
DOCKED: ENDBRANCH  65  66
DOCKED: ENDBRANCH  42  65
DOCKED: ENDBRANCH  39  42
DOCKED: ENDBRANCH  38  39
DOCKED: ENDBRANCH   1  38
DOCKED: TORSDOF 30
DOCKED: TER
DOCKED: ENDMDL
________________________________________________________________________________


    FINAL DOCKED STATE:
    ________________________


Run:   19 / 20
Time taken for this run:   4.973s

DOCKED: MODEL        19
DOCKED: USER    Run = 19
DOCKED: USER
DOCKED: USER    Estimated Free Energy of Binding    =  +8.95 kcal/mol  [=(1)+(2)+(3)-(4)]
DOCKED: USER
DOCKED: USER    (1) Final Intermolecular Energy     =  +0.00 kcal/mol
DOCKED: USER        vdW + Hbond + desolv Energy     =  +0.00 kcal/mol
DOCKED: USER        Electrostatic Energy            =  +0.00 kcal/mol
DOCKED: USER        Moving Ligand-Fixed Receptor    =  +0.00 kcal/mol
DOCKED: USER        Moving Ligand-Moving Receptor   =  +0.00 kcal/mol
DOCKED: USER    (2) Final Total Internal Energy     = -24.15 kcal/mol
DOCKED: USER    (3) Torsional Free Energy           =  +8.95 kcal/mol
DOCKED: USER    (4) Unbound System's Energy         = -24.15 kcal/mol
DOCKED: USER
DOCKED: USER
DOCKED: REMARK  Name = ligands/ligand_3.pdb
DOCKED: REMARK  39 active torsions:
DOCKED: REMARK  status: ('A' for Active; 'I' for Inactive)
DOCKED: REMARK    1  A    between atoms: C1_1  and  S1_2
DOCKED: REMARK    2  A    between atoms: S1_2  and  C2_3
DOCKED: REMARK    3  A    between atoms: C2_3  and  C3_4
DOCKED: REMARK    4  A    between atoms: C3_4  and  C4_5
DOCKED: REMARK    5  A    between atoms: C4_5  and  N1_6
DOCKED: REMARK    6  A    between atoms: C4_5  and  C12_17
DOCKED: REMARK    7  A    between atoms: C5_7  and  C6_9
DOCKED: REMARK    8  A    between atoms: C6_9  and  N2_10
DOCKED: REMARK    9  A    between atoms: C6_9  and  C9_14
DOCKED: REMARK   10  A    between atoms: C7_11  and  C8_12
DOCKED: REMARK   11  A    between atoms: C9_14  and  C10_15
DOCKED: REMARK   12  A    between atoms: C9_14  and  C11_16
DOCKED: REMARK   13  A    between atoms: N3_19  and  C13_20
DOCKED: REMARK   14  A    between atoms: C13_20  and  C14_21
DOCKED: REMARK   15  A    between atoms: C13_20  and  C18_25
DOCKED: REMARK   16  A    between atoms: C14_21  and  C15_22
DOCKED: REMARK   17  A    between atoms: C15_22  and  C16_23
DOCKED: REMARK   18  A    between atoms: C15_22  and  C17_24
DOCKED: REMARK   19  A    between atoms: C18_25  and  O4_26
DOCKED: REMARK   20  A    between atoms: C18_25  and  C19_27
DOCKED: REMARK   21  A    between atoms: C19_27  and  C20_28
DOCKED: REMARK   22  A    between atoms: C20_28  and  C21_29
DOCKED: REMARK   23  A    between atoms: C20_28  and  C39_57
DOCKED: REMARK   24  A    between atoms: N4_31  and  C22_32
DOCKED: REMARK   25  A    between atoms: C22_32  and  C23_33
DOCKED: REMARK   26  A    between atoms: C22_32  and  C24_34
DOCKED: REMARK   27  A    between atoms: N5_36  and  C25_37
DOCKED: REMARK   28  A    between atoms: C25_37  and  C26_38
DOCKED: REMARK   29  A    between atoms: C25_37  and  C29_43
DOCKED: REMARK   30  A    between atoms: C26_38  and  C27_39
DOCKED: REMARK   31  A    between atoms: C27_39  and  C28_40
DOCKED: REMARK   32  A    between atoms: C28_40  and  O8_42
DOCKED: REMARK   33  A    between atoms: N6_45  and  C30_46
DOCKED: REMARK   34  A    between atoms: C30_46  and  C31_47
DOCKED: REMARK   35  A    between atoms: C30_46  and  C38_54
DOCKED: REMARK   36  A    between atoms: C31_47  and  C32_48
DOCKED: REMARK   37  A    between atoms: C38_54  and  O11_56
DOCKED: REMARK   38  A    between atoms: C39_57  and  C40_58
DOCKED: REMARK   39  A    between atoms: C39_57  and  C41_59
DOCKED: REMARK                            x       y       z     vdW  Elec       q    Type
DOCKED: REMARK                         _______ _______ _______ _____ _____    ______ ____
DOCKED: USER                              x       y       z     vdW  Elec       q    Type
DOCKED: USER                           _______ _______ _______ _____ _____    ______ ____
DOCKED: ROOT
DOCKED: ATOM      1  C20 UNL     1      18.563  -2.715   2.719 +0.00 +0.00    +0.080 C  
DOCKED: ENDROOT
DOCKED: BRANCH   1   2
DOCKED: ATOM      2  C21 UNL     1      17.372  -3.436   3.366 +0.00 +0.00    +0.217 C  
DOCKED: ATOM      3  O5  UNL     1      16.464  -3.947   2.720 +0.00 -0.00    -0.275 OA 
DOCKED: ATOM      4  N4  UNL     1      17.389  -3.426   4.748 +0.00 -0.00    -0.304 N  
DOCKED: ATOM      5  H38 UNL     1      17.960  -2.701   5.173 +0.00 +0.00    +0.149 HD 
DOCKED: BRANCH   4   6
DOCKED: ATOM      6  C22 UNL     1      16.145  -3.671   5.475 +0.00 +0.00    +0.156 C  
DOCKED: ATOM      7  C23 UNL     1      15.062  -2.688   5.055 +0.00 +0.00    +0.038 C  
DOCKED: BRANCH   6   8
DOCKED: ATOM      8  C24 UNL     1      15.717  -5.112   5.130 +0.00 +0.00    +0.234 C  
DOCKED: ATOM      9  O6  UNL     1      16.236  -6.095   5.663 +0.00 -0.00    -0.274 OA 
DOCKED: ATOM     10  N5  UNL     1      14.741  -5.217   4.170 +0.00 -0.00    -0.302 N  
DOCKED: ATOM     11  H43 UNL     1      14.544  -4.398   3.590 +0.00 +0.00    +0.150 HD 
DOCKED: BRANCH  10  12
DOCKED: ATOM     12  C25 UNL     1      14.322  -6.510   3.652 +0.00 +0.00    +0.159 C  
DOCKED: BRANCH  12  13
DOCKED: ATOM     13  C29 UNL     1      15.460  -7.150   2.831 +0.00 +0.00    +0.234 C  
DOCKED: ATOM     14  O9  UNL     1      16.004  -8.202   3.160 +0.00 -0.00    -0.274 OA 
DOCKED: ATOM     15  N6  UNL     1      15.884  -6.390   1.761 +0.00 -0.00    -0.301 N  
DOCKED: ATOM     16  H50 UNL     1      15.568  -5.428   1.709 +0.00 +0.00    +0.150 HD 
DOCKED: BRANCH  15  17
DOCKED: ATOM     17  C30 UNL     1      17.114  -6.726   1.039 +0.00 +0.00    +0.186 C  
DOCKED: BRANCH  17  18
DOCKED: ATOM     18  C38 UNL     1      17.542  -5.488   0.250 +0.00 +0.00    +0.326 C  
DOCKED: ATOM     19  O10 UNL     1      18.694  -5.132   0.030 +0.00 -0.00    -0.249 OA 
DOCKED: BRANCH  18  20
DOCKED: ATOM     20  O11 UNL     1      16.505  -4.740  -0.174 +0.00 -0.00    -0.479 OA 
DOCKED: ATOM     21  H59 UNL     1      16.139  -4.341   0.645 +0.00 +0.00    +0.295 HD 
DOCKED: ENDBRANCH  18  20
DOCKED: ENDBRANCH  17  18
DOCKED: BRANCH  17  22
DOCKED: ATOM     22  C31 UNL     1      16.906  -7.886   0.054 +0.00 +0.00    +0.069 C  
DOCKED: BRANCH  22  23
DOCKED: ATOM     23  C32 UNL     1      15.499  -7.960  -0.502 +0.00 -0.00    -0.045 A  
DOCKED: ATOM     24  C33 UNL     1      14.526  -8.742   0.134 +0.00 +0.00    +0.004 A  
DOCKED: ATOM     25  C34 UNL     1      13.230  -8.806  -0.383 +0.00 +0.00    +0.000 A  
DOCKED: ATOM     26  C35 UNL     1      12.896  -8.093  -1.532 +0.00 +0.00    +0.000 A  
DOCKED: ATOM     27  C36 UNL     1      13.853  -7.308  -2.164 +0.00 +0.00    +0.000 A  
DOCKED: ATOM     28  C37 UNL     1      15.147  -7.236  -1.651 +0.00 +0.00    +0.004 A  
DOCKED: ENDBRANCH  22  23
DOCKED: ENDBRANCH  17  22
DOCKED: ENDBRANCH  15  17
DOCKED: ENDBRANCH  12  13
DOCKED: BRANCH  12  29
DOCKED: ATOM     29  C26 UNL     1      13.017  -6.407   2.837 +0.00 +0.00    +0.043 C  
DOCKED: BRANCH  29  30
DOCKED: ATOM     30  C27 UNL     1      12.729  -5.068   2.148 +0.00 +0.00    +0.123 C  
DOCKED: BRANCH  30  31
DOCKED: ATOM     31  C28 UNL     1      13.788  -4.615   1.175 +0.00 +0.00    +0.305 C  
DOCKED: ATOM     32  O7  UNL     1      14.071  -5.117   0.102 +0.00 -0.00    -0.251 OA 
DOCKED: BRANCH  31  33
DOCKED: ATOM     33  O8  UNL     1      14.404  -3.492   1.593 +0.00 -0.00    -0.481 OA 
DOCKED: ATOM     34  H49 UNL     1      15.205  -3.424   1.033 +0.00 +0.00    +0.295 HD 
DOCKED: ENDBRANCH  31  33
DOCKED: ENDBRANCH  30  31
DOCKED: ENDBRANCH  29  30
DOCKED: ENDBRANCH  12  29
DOCKED: ENDBRANCH  10  12
DOCKED: ENDBRANCH   6   8
DOCKED: ENDBRANCH   4   6
DOCKED: ENDBRANCH   1   2
DOCKED: BRANCH   1  35
DOCKED: ATOM     35  C39 UNL     1      19.874  -2.929   3.525 +0.00 -0.00    -0.005 C  
DOCKED: ATOM     36  C40 UNL     1      20.283  -4.407   3.565 +0.00 +0.00    +0.008 C  
DOCKED: ATOM     37  C41 UNL     1      21.065  -2.082   3.082 +0.00 +0.00    +0.008 C  
DOCKED: ENDBRANCH   1  35
DOCKED: BRANCH   1  38
DOCKED: ATOM     38  C19 UNL     1      18.244  -1.270   2.252 +0.00 +0.00    +0.046 C  
DOCKED: BRANCH  38  39
DOCKED: ATOM     39  C18 UNL     1      17.316  -1.110   1.035 +0.00 +0.00    +0.135 C  
DOCKED: BRANCH  39  40
DOCKED: ATOM     40  O4  UNL     1      17.061  -2.373   0.412 +0.00 -0.00    -0.390 OA 
DOCKED: ATOM     41  H34 UNL     1      16.334  -2.813   0.888 +0.00 +0.00    +0.210 HD 
DOCKED: ENDBRANCH  39  40
DOCKED: BRANCH  39  42
DOCKED: ATOM     42  C13 UNL     1      15.947  -0.429   1.360 +0.00 +0.00    +0.102 C  
DOCKED: BRANCH  42  45
DOCKED: ATOM     43  C12 UNL     1      14.405  -0.115  -0.572 +0.00 +0.00    +0.234 C  
DOCKED: ATOM     44  O3  UNL     1      14.573   1.100  -0.609 +0.00 -0.00    -0.274 OA 
DOCKED: ATOM     45  N3  UNL     1      14.965  -0.932   0.386 +0.00 -0.00    -0.308 N  
DOCKED: ATOM     46  H22 UNL     1      14.986  -1.930   0.212 +0.00 +0.00    +0.149 HD 
DOCKED: BRANCH  43  47
DOCKED: ATOM     47  C4  UNL     1      13.613  -0.870  -1.658 +0.00 +0.00    +0.160 C  
DOCKED: BRANCH  47  48
DOCKED: ATOM     48  N1  UNL     1      14.542  -1.578  -2.536 +0.00 -0.00    -0.302 N  
DOCKED: ATOM     49  C5  UNL     1      15.204  -2.697  -2.074 +0.00 +0.00    +0.234 C  
DOCKED: ATOM     50  O1  UNL     1      15.126  -3.079  -0.905 +0.00 -0.00    -0.274 OA 
DOCKED: ATOM     51  H9  UNL     1      14.314  -1.571  -3.522 +0.00 +0.00    +0.150 HD 
DOCKED: BRANCH  49  52
DOCKED: ATOM     52  C6  UNL     1      16.062  -3.444  -3.126 +0.00 +0.00    +0.161 C  
DOCKED: BRANCH  52  53
DOCKED: ATOM     53  N2  UNL     1      17.338  -3.727  -2.473 +0.00 -0.00    -0.304 N  
DOCKED: ATOM     54  C7  UNL     1      18.537  -3.549  -3.119 +0.00 +0.00    +0.211 C  
DOCKED: ATOM     55  C8  UNL     1      19.744  -3.713  -2.233 +0.00 +0.00    +0.109 C  
DOCKED: ATOM     56  O2  UNL     1      18.633  -3.307  -4.318 +0.00 -0.00    -0.276 OA 
DOCKED: ATOM     57  H11 UNL     1      17.323  -3.707  -1.457 +0.00 +0.00    +0.149 HD 
DOCKED: ENDBRANCH  52  53
DOCKED: BRANCH  52  58
DOCKED: ATOM     58  C9  UNL     1      15.339  -4.712  -3.654 +0.00 +0.00    +0.012 C  
DOCKED: ATOM     59  C10 UNL     1      14.206  -4.318  -4.613 +0.00 +0.00    +0.009 C  
DOCKED: ATOM     60  C11 UNL     1      16.249  -5.728  -4.357 +0.00 +0.00    +0.009 C  
DOCKED: ENDBRANCH  52  58
DOCKED: ENDBRANCH  49  52
DOCKED: ENDBRANCH  47  48
DOCKED: BRANCH  47  61
DOCKED: ATOM     61  C3  UNL     1      12.591  -1.825  -1.025 +0.00 +0.00    +0.042 C  
DOCKED: BRANCH  61  62
DOCKED: ATOM     62  C2  UNL     1      11.690  -2.529  -2.046 +0.00 +0.00    +0.071 C  
DOCKED: BRANCH  62  64
DOCKED: ATOM     63  C1  UNL     1      10.847  -4.770  -0.700 +0.00 +0.00    +0.084 C  
DOCKED: ATOM     64  S1  UNL     1      11.999  -4.322  -2.019 +0.00 -0.00    -0.164 S  
DOCKED: ENDBRANCH  62  64
DOCKED: ENDBRANCH  61  62
DOCKED: ENDBRANCH  47  61
DOCKED: ENDBRANCH  43  47
DOCKED: ENDBRANCH  42  45
DOCKED: BRANCH  42  65
DOCKED: ATOM     65  C14 UNL     1      15.359  -0.696   2.764 +0.00 +0.00    +0.028 C  
DOCKED: BRANCH  65  66
DOCKED: ATOM     66  C15 UNL     1      13.987  -0.082   3.091 +0.00 -0.00    -0.015 C  
DOCKED: ATOM     67  C16 UNL     1      12.876  -1.036   2.637 +0.00 +0.00    +0.007 C  
DOCKED: ATOM     68  C17 UNL     1      13.779   1.285   2.438 +0.00 +0.00    +0.007 C  
DOCKED: ENDBRANCH  65  66
DOCKED: ENDBRANCH  42  65
DOCKED: ENDBRANCH  39  42
DOCKED: ENDBRANCH  38  39
DOCKED: ENDBRANCH   1  38
DOCKED: TORSDOF 30
DOCKED: TER
DOCKED: ENDMDL
________________________________________________________________________________


    FINAL DOCKED STATE:
    ________________________


Run:   20 / 20
Time taken for this run:   4.973s

DOCKED: MODEL        20
DOCKED: USER    Run = 20
DOCKED: USER
DOCKED: USER    Estimated Free Energy of Binding    =  +8.95 kcal/mol  [=(1)+(2)+(3)-(4)]
DOCKED: USER
DOCKED: USER    (1) Final Intermolecular Energy     =  +0.00 kcal/mol
DOCKED: USER        vdW + Hbond + desolv Energy     =  +0.00 kcal/mol
DOCKED: USER        Electrostatic Energy            =  +0.00 kcal/mol
DOCKED: USER        Moving Ligand-Fixed Receptor    =  +0.00 kcal/mol
DOCKED: USER        Moving Ligand-Moving Receptor   =  +0.00 kcal/mol
DOCKED: USER    (2) Final Total Internal Energy     = -24.01 kcal/mol
DOCKED: USER    (3) Torsional Free Energy           =  +8.95 kcal/mol
DOCKED: USER    (4) Unbound System's Energy         = -24.01 kcal/mol
DOCKED: USER
DOCKED: USER
DOCKED: REMARK  Name = ligands/ligand_3.pdb
DOCKED: REMARK  39 active torsions:
DOCKED: REMARK  status: ('A' for Active; 'I' for Inactive)
DOCKED: REMARK    1  A    between atoms: C1_1  and  S1_2
DOCKED: REMARK    2  A    between atoms: S1_2  and  C2_3
DOCKED: REMARK    3  A    between atoms: C2_3  and  C3_4
DOCKED: REMARK    4  A    between atoms: C3_4  and  C4_5
DOCKED: REMARK    5  A    between atoms: C4_5  and  N1_6
DOCKED: REMARK    6  A    between atoms: C4_5  and  C12_17
DOCKED: REMARK    7  A    between atoms: C5_7  and  C6_9
DOCKED: REMARK    8  A    between atoms: C6_9  and  N2_10
DOCKED: REMARK    9  A    between atoms: C6_9  and  C9_14
DOCKED: REMARK   10  A    between atoms: C7_11  and  C8_12
DOCKED: REMARK   11  A    between atoms: C9_14  and  C10_15
DOCKED: REMARK   12  A    between atoms: C9_14  and  C11_16
DOCKED: REMARK   13  A    between atoms: N3_19  and  C13_20
DOCKED: REMARK   14  A    between atoms: C13_20  and  C14_21
DOCKED: REMARK   15  A    between atoms: C13_20  and  C18_25
DOCKED: REMARK   16  A    between atoms: C14_21  and  C15_22
DOCKED: REMARK   17  A    between atoms: C15_22  and  C16_23
DOCKED: REMARK   18  A    between atoms: C15_22  and  C17_24
DOCKED: REMARK   19  A    between atoms: C18_25  and  O4_26
DOCKED: REMARK   20  A    between atoms: C18_25  and  C19_27
DOCKED: REMARK   21  A    between atoms: C19_27  and  C20_28
DOCKED: REMARK   22  A    between atoms: C20_28  and  C21_29
DOCKED: REMARK   23  A    between atoms: C20_28  and  C39_57
DOCKED: REMARK   24  A    between atoms: N4_31  and  C22_32
DOCKED: REMARK   25  A    between atoms: C22_32  and  C23_33
DOCKED: REMARK   26  A    between atoms: C22_32  and  C24_34
DOCKED: REMARK   27  A    between atoms: N5_36  and  C25_37
DOCKED: REMARK   28  A    between atoms: C25_37  and  C26_38
DOCKED: REMARK   29  A    between atoms: C25_37  and  C29_43
DOCKED: REMARK   30  A    between atoms: C26_38  and  C27_39
DOCKED: REMARK   31  A    between atoms: C27_39  and  C28_40
DOCKED: REMARK   32  A    between atoms: C28_40  and  O8_42
DOCKED: REMARK   33  A    between atoms: N6_45  and  C30_46
DOCKED: REMARK   34  A    between atoms: C30_46  and  C31_47
DOCKED: REMARK   35  A    between atoms: C30_46  and  C38_54
DOCKED: REMARK   36  A    between atoms: C31_47  and  C32_48
DOCKED: REMARK   37  A    between atoms: C38_54  and  O11_56
DOCKED: REMARK   38  A    between atoms: C39_57  and  C40_58
DOCKED: REMARK   39  A    between atoms: C39_57  and  C41_59
DOCKED: REMARK                            x       y       z     vdW  Elec       q    Type
DOCKED: REMARK                         _______ _______ _______ _____ _____    ______ ____
DOCKED: USER                              x       y       z     vdW  Elec       q    Type
DOCKED: USER                           _______ _______ _______ _____ _____    ______ ____
DOCKED: ROOT
DOCKED: ATOM      1  C20 UNL     1       8.522  -2.233  -1.921 +0.00 +0.00    +0.080 C  
DOCKED: ENDROOT
DOCKED: BRANCH   1   2
DOCKED: ATOM      2  C21 UNL     1       8.767  -2.406  -3.427 +0.00 +0.00    +0.217 C  
DOCKED: ATOM      3  O5  UNL     1       8.981  -1.467  -4.185 +0.00 -0.00    -0.275 OA 
DOCKED: ATOM      4  N4  UNL     1       8.688  -3.714  -3.865 +0.00 -0.00    -0.304 N  
DOCKED: ATOM      5  H38 UNL     1       8.173  -4.347  -3.260 +0.00 +0.00    +0.149 HD 
DOCKED: BRANCH   4   6
DOCKED: ATOM      6  C22 UNL     1       8.464  -3.974  -5.287 +0.00 +0.00    +0.156 C  
DOCKED: ATOM      7  C23 UNL     1       8.655  -5.448  -5.611 +0.00 +0.00    +0.038 C  
DOCKED: BRANCH   6   8
DOCKED: ATOM      8  C24 UNL     1       7.010  -3.549  -5.582 +0.00 +0.00    +0.234 C  
DOCKED: ATOM      9  O6  UNL     1       6.674  -3.083  -6.673 +0.00 -0.00    -0.274 OA 
DOCKED: ATOM     10  N5  UNL     1       6.134  -3.702  -4.537 +0.00 -0.00    -0.302 N  
DOCKED: ATOM     11  H43 UNL     1       6.519  -3.841  -3.600 +0.00 +0.00    +0.150 HD 
DOCKED: BRANCH  10  12
DOCKED: ATOM     12  C25 UNL     1       4.761  -3.232  -4.624 +0.00 +0.00    +0.159 C  
DOCKED: BRANCH  12  13
DOCKED: ATOM     13  C29 UNL     1       4.412  -2.372  -3.393 +0.00 +0.00    +0.234 C  
DOCKED: ATOM     14  O9  UNL     1       4.034  -1.206  -3.484 +0.00 -0.00    -0.274 OA 
DOCKED: ATOM     15  N6  UNL     1       4.661  -2.986  -2.183 +0.00 -0.00    -0.301 N  
DOCKED: ATOM     16  H50 UNL     1       5.210  -3.839  -2.190 +0.00 +0.00    +0.150 HD 
DOCKED: BRANCH  15  17
DOCKED: ATOM     17  C30 UNL     1       4.629  -2.224  -0.931 +0.00 +0.00    +0.186 C  
DOCKED: BRANCH  17  18
DOCKED: ATOM     18  C38 UNL     1       5.298  -3.077   0.148 +0.00 +0.00    +0.326 C  
DOCKED: ATOM     19  O10 UNL     1       5.966  -2.662   1.088 +0.00 -0.00    -0.249 OA 
DOCKED: BRANCH  18  20
DOCKED: ATOM     20  O11 UNL     1       5.135  -4.401  -0.041 +0.00 -0.00    -0.479 OA 
DOCKED: ATOM     21  H59 UNL     1       5.715  -4.613  -0.805 +0.00 +0.00    +0.295 HD 
DOCKED: ENDBRANCH  18  20
DOCKED: ENDBRANCH  17  18
DOCKED: BRANCH  17  22
DOCKED: ATOM     22  C31 UNL     1       3.194  -1.908  -0.486 +0.00 +0.00    +0.069 C  
DOCKED: BRANCH  22  23
DOCKED: ATOM     23  C32 UNL     1       2.228  -3.055  -0.701 +0.00 -0.00    -0.045 A  
DOCKED: ATOM     24  C33 UNL     1       1.566  -3.203  -1.927 +0.00 +0.00    +0.004 A  
DOCKED: ATOM     25  C34 UNL     1       0.678  -4.263  -2.120 +0.00 +0.00    +0.000 A  
DOCKED: ATOM     26  C35 UNL     1       0.444  -5.180  -1.097 +0.00 +0.00    +0.000 A  
DOCKED: ATOM     27  C36 UNL     1       1.104  -5.044   0.119 +0.00 +0.00    +0.000 A  
DOCKED: ATOM     28  C37 UNL     1       1.996  -3.992   0.317 +0.00 +0.00    +0.004 A  
DOCKED: ENDBRANCH  22  23
DOCKED: ENDBRANCH  17  22
DOCKED: ENDBRANCH  15  17
DOCKED: ENDBRANCH  12  13
DOCKED: BRANCH  12  29
DOCKED: ATOM     29  C26 UNL     1       3.766  -4.396  -4.809 +0.00 +0.00    +0.043 C  
DOCKED: BRANCH  29  30
DOCKED: ATOM     30  C27 UNL     1       4.289  -5.811  -4.539 +0.00 +0.00    +0.123 C  
DOCKED: BRANCH  30  31
DOCKED: ATOM     31  C28 UNL     1       5.262  -5.919  -3.392 +0.00 +0.00    +0.305 C  
DOCKED: ATOM     32  O7  UNL     1       6.475  -6.005  -3.455 +0.00 -0.00    -0.251 OA 
DOCKED: BRANCH  31  33
DOCKED: ATOM     33  O8  UNL     1       4.639  -5.851  -2.200 +0.00 -0.00    -0.481 OA 
DOCKED: ATOM     34  H49 UNL     1       5.360  -5.892  -1.539 +0.00 +0.00    +0.295 HD 
DOCKED: ENDBRANCH  31  33
DOCKED: ENDBRANCH  30  31
DOCKED: ENDBRANCH  29  30
DOCKED: ENDBRANCH  12  29
DOCKED: ENDBRANCH  10  12
DOCKED: ENDBRANCH   6   8
DOCKED: ENDBRANCH   4   6
DOCKED: ENDBRANCH   1   2
DOCKED: BRANCH   1  35
DOCKED: ATOM     35  C39 UNL     1       8.746  -0.763  -1.466 +0.00 -0.00    -0.005 C  
DOCKED: ATOM     36  C40 UNL     1       7.520   0.114  -1.753 +0.00 +0.00    +0.008 C  
DOCKED: ATOM     37  C41 UNL     1       9.173  -0.584  -0.010 +0.00 +0.00    +0.008 C  
DOCKED: ENDBRANCH   1  35
DOCKED: BRANCH   1  38
DOCKED: ATOM     38  C19 UNL     1       9.155  -3.350  -1.050 +0.00 +0.00    +0.046 C  
DOCKED: BRANCH  38  39
DOCKED: ATOM     39  C18 UNL     1       8.286  -4.583  -0.743 +0.00 +0.00    +0.135 C  
DOCKED: BRANCH  39  40
DOCKED: ATOM     40  O4  UNL     1       7.142  -4.634  -1.602 +0.00 -0.00    -0.390 OA 
DOCKED: ATOM     41  H34 UNL     1       6.611  -5.415  -1.366 +0.00 +0.00    +0.210 HD 
DOCKED: ENDBRANCH  39  40
DOCKED: BRANCH  39  42
DOCKED: ATOM     42  C13 UNL     1       9.048  -5.944  -0.847 +0.00 +0.00    +0.102 C  
DOCKED: BRANCH  42  45
DOCKED: ATOM     43  C12 UNL     1       8.635  -8.109  -2.008 +0.00 +0.00    +0.234 C  
DOCKED: ATOM     44  O3  UNL     1       9.616  -8.654  -1.509 +0.00 -0.00    -0.274 OA 
DOCKED: ATOM     45  N3  UNL     1       8.318  -6.784  -1.810 +0.00 -0.00    -0.308 N  
DOCKED: ATOM     46  H22 UNL     1       7.381  -6.474  -2.044 +0.00 +0.00    +0.149 HD 
DOCKED: BRANCH  43  47
DOCKED: ATOM     47  C4  UNL     1       7.600  -8.886  -2.846 +0.00 +0.00    +0.160 C  
DOCKED: BRANCH  47  48
DOCKED: ATOM     48  N1  UNL     1       6.271  -8.711  -2.264 +0.00 -0.00    -0.302 N  
DOCKED: ATOM     49  C5  UNL     1       5.874  -9.510  -1.211 +0.00 +0.00    +0.234 C  
DOCKED: ATOM     50  O1  UNL     1       6.557 -10.447  -0.793 +0.00 -0.00    -0.274 OA 
DOCKED: ATOM     51  H9  UNL     1       5.904  -7.768  -2.271 +0.00 +0.00    +0.150 HD 
DOCKED: BRANCH  49  52
DOCKED: ATOM     52  C6  UNL     1       4.501  -9.153  -0.587 +0.00 +0.00    +0.161 C  
DOCKED: BRANCH  52  53
DOCKED: ATOM     53  N2  UNL     1       4.798  -8.423   0.643 +0.00 -0.00    -0.304 N  
DOCKED: ATOM     54  C7  UNL     1       5.491  -7.237   0.631 +0.00 +0.00    +0.211 C  
DOCKED: ATOM     55  C8  UNL     1       5.542  -6.541   1.965 +0.00 +0.00    +0.109 C  
DOCKED: ATOM     56  O2  UNL     1       6.051  -6.788  -0.365 +0.00 -0.00    -0.276 OA 
DOCKED: ATOM     57  H11 UNL     1       4.187  -8.623   1.429 +0.00 +0.00    +0.149 HD 
DOCKED: ENDBRANCH  52  53
DOCKED: BRANCH  52  58
DOCKED: ATOM     58  C9  UNL     1       3.612  -8.362  -1.582 +0.00 +0.00    +0.012 C  
DOCKED: ATOM     59  C10 UNL     1       3.364  -9.191  -2.851 +0.00 +0.00    +0.009 C  
DOCKED: ATOM     60  C11 UNL     1       2.258  -7.908  -1.018 +0.00 +0.00    +0.009 C  
DOCKED: ENDBRANCH  52  58
DOCKED: ENDBRANCH  49  52
DOCKED: ENDBRANCH  47  48
DOCKED: BRANCH  47  61
DOCKED: ATOM     61  C3  UNL     1       7.640  -8.441  -4.315 +0.00 +0.00    +0.042 C  
DOCKED: BRANCH  61  62
DOCKED: ATOM     62  C2  UNL     1       6.937  -9.409  -5.272 +0.00 +0.00    +0.071 C  
DOCKED: BRANCH  62  64
DOCKED: ATOM     63  C1  UNL     1       6.083  -7.406  -6.945 +0.00 +0.00    +0.084 C  
DOCKED: ATOM     64  S1  UNL     1       5.382  -8.677  -5.869 +0.00 -0.00    -0.164 S  
DOCKED: ENDBRANCH  62  64
DOCKED: ENDBRANCH  61  62
DOCKED: ENDBRANCH  47  61
DOCKED: ENDBRANCH  43  47
DOCKED: ENDBRANCH  42  45
DOCKED: BRANCH  42  65
DOCKED: ATOM     65  C14 UNL     1      10.513  -5.879  -1.334 +0.00 +0.00    +0.028 C  
DOCKED: BRANCH  65  66
DOCKED: ATOM     66  C15 UNL     1      10.756  -5.619  -2.831 +0.00 -0.00    -0.015 C  
DOCKED: ATOM     67  C16 UNL     1      11.331  -6.881  -3.485 +0.00 +0.00    +0.007 C  
DOCKED: ATOM     68  C17 UNL     1      11.700  -4.443  -3.083 +0.00 +0.00    +0.007 C  
DOCKED: ENDBRANCH  65  66
DOCKED: ENDBRANCH  42  65
DOCKED: ENDBRANCH  39  42
DOCKED: ENDBRANCH  38  39
DOCKED: ENDBRANCH   1  38
DOCKED: TORSDOF 30
DOCKED: TER
DOCKED: ENDMDL
________________________________________________________________________________


    CLUSTERING HISTOGRAM
    ____________________


________________________________________________________________________________
     |           |     |           |     |
Clus | Lowest    | Run | Mean      | Num | Histogram
-ter | Binding   |     | Binding   | in  |
Rank | Energy    |     | Energy    | Clus|    5    10   15   20   25   30   35
_____|___________|_____|___________|_____|____:____|____:____|____:____|____:___
   1 |     +8.95 |   1 |     +8.95 |   1 |#
   2 |     +8.95 |   2 |     +8.95 |   1 |#
   3 |     +8.95 |   3 |     +8.95 |   1 |#
   4 |     +8.95 |   4 |     +8.95 |   1 |#
   5 |     +8.95 |   5 |     +8.95 |   1 |#
   6 |     +8.95 |   6 |     +8.95 |   1 |#
   7 |     +8.95 |   7 |     +8.95 |   1 |#
   8 |     +8.95 |   8 |     +8.95 |   1 |#
   9 |     +8.95 |   9 |     +8.95 |   1 |#
  10 |     +8.95 |  10 |     +8.95 |   1 |#
  11 |     +8.95 |  11 |     +8.95 |   1 |#
  12 |     +8.95 |  12 |     +8.95 |   1 |#
  13 |     +8.95 |  13 |     +8.95 |   1 |#
  14 |     +8.95 |  14 |     +8.95 |   1 |#
  15 |     +8.95 |  15 |     +8.95 |   1 |#
  16 |     +8.95 |  16 |     +8.95 |   1 |#
  17 |     +8.95 |  17 |     +8.95 |   1 |#
  18 |     +8.95 |  18 |     +8.95 |   1 |#
  19 |     +8.95 |  19 |     +8.95 |   1 |#
  20 |     +8.95 |  20 |     +8.95 |   1 |#
_____|___________|_____|___________|_____|______________________________________


    RMSD TABLE
    __________


_______________________________________________________________________
     |      |      |           |         |                 |
Rank | Sub- | Run  | Binding   | Cluster | Reference       | Grep
     | Rank |      | Energy    | RMSD    | RMSD            | Pattern
_____|______|______|___________|_________|_________________|___________
   1      1      1       +8.95      0.00     11.40           RANKING
   2      1      2       +8.95      0.00      9.57           RANKING
   3      1      3       +8.95      0.00      5.58           RANKING
   4      1      4       +8.95      0.00      6.10           RANKING
   5      1      5       +8.95      0.00     11.58           RANKING
   6      1      6       +8.95      0.00     10.78           RANKING
   7      1      7       +8.95      0.00      6.29           RANKING
   8      1      8       +8.95      0.00     14.72           RANKING
   9      1      9       +8.95      0.00      6.51           RANKING
  10      1     10       +8.95      0.00      7.04           RANKING
  11      1     11       +8.95      0.00     11.37           RANKING
  12      1     12       +8.95      0.00     11.94           RANKING
  13      1     13       +8.95      0.00      6.18           RANKING
  14      1     14       +8.95      0.00      8.66           RANKING
  15      1     15       +8.95      0.00      6.64           RANKING
  16      1     16       +8.95      0.00     11.29           RANKING
  17      1     17       +8.95      0.00      6.23           RANKING
  18      1     18       +8.95      0.00     13.02           RANKING
  19      1     19       +8.95      0.00     13.53           RANKING
  20      1     20       +8.95      0.00      5.90           RANKING

Run time 100.222 sec
Idle time 0.429 sec
