REMARK  Name = ligands/ligand_34.pdb
REMARK  91 active torsions:
REMARK  status: ('A' for Active; 'I' for Inactive)
REMARK    1  A    between atoms: C1_1  and  C2_2
REMARK    2  A    between atoms: C2_2  and  C3_3
REMARK    3  A    between atoms: C3_3  and  C4_4
REMARK    4  A    between atoms: C3_3  and  C5_5
REMARK    5  A    between atoms: C5_5  and  N1_6
REMARK    6  A    between atoms: C5_5  and  C40_64
REMARK    7  A    between atoms: C6_7  and  C7_9
REMARK    8  A    between atoms: C7_9  and  C8_10
REMARK    9  A    between atoms: C7_9  and  N2_15
REMARK   10  A    between atoms: C8_10  and  C9_11
REMARK   11  A    between atoms: C9_11  and  C10_12
REMARK   12  A    between atoms: C10_12  and  O3_14
REMARK   13  A    between atoms: C11_16  and  C12_18
REMARK   14  A    between atoms: C12_18  and  C13_19
REMARK   15  A    between atoms: C12_18  and  N3_24
REMARK   16  A    between atoms: C13_19  and  C14_20
REMARK   17  A    between atoms: C14_20  and  C15_21
REMARK   18  A    between atoms: C15_21  and  O6_23
REMARK   19  A    between atoms: C16_25  and  C17_27
REMARK   20  A    between atoms: C17_27  and  N4_28
REMARK   21  A    between atoms: C17_27  and  C38_61
REMARK   22  A    between atoms: C18_29  and  C19_31
REMARK   23  A    between atoms: C19_31  and  C20_32
REMARK   24  A    between atoms: C19_31  and  N6_37
REMARK   25  A    between atoms: C20_32  and  C21_33
REMARK   26  A    between atoms: C21_33  and  C22_34
REMARK   27  A    between atoms: C22_34  and  C23_35
REMARK   28  A    between atoms: C23_35  and  N5_36
REMARK   29  A    between atoms: C24_38  and  C25_40
REMARK   30  A    between atoms: C25_40  and  N7_41
REMARK   31  A    between atoms: C25_40  and  C34_57
REMARK   32  A    between atoms: C26_42  and  C27_44
REMARK   33  A    between atoms: C27_44  and  C28_45
REMARK   34  A    between atoms: C27_44  and  N9_49
REMARK   35  A    between atoms: C28_45  and  C29_46
REMARK   36  A    between atoms: C30_50  and  C31_52
REMARK   37  A    between atoms: C31_52  and  N10_53
REMARK   38  A    between atoms: C31_52  and  C32_54
REMARK   39  A    between atoms: C32_54  and  C33_55
REMARK   40  A    between atoms: C32_54  and  O13_56
REMARK   41  A    between atoms: C34_57  and  C35_58
REMARK   42  A    between atoms: C34_57  and  C36_59
REMARK   43  A    between atoms: C36_59  and  C37_60
REMARK   44  A    between atoms: C38_61  and  C39_62
REMARK   45  A    between atoms: C38_61  and  O14_63
REMARK   46  A    between atoms: N11_66  and  C41_67
REMARK   47  A    between atoms: C41_67  and  C42_68
REMARK   48  A    between atoms: C41_67  and  C43_70
REMARK   49  A    between atoms: C42_68  and  O16_69
REMARK   50  A    between atoms: N12_72  and  C44_73
REMARK   51  A    between atoms: C44_73  and  C45_74
REMARK   52  A    between atoms: C44_73  and  C48_79
REMARK   53  A    between atoms: C45_74  and  C46_75
REMARK   54  A    between atoms: C46_75  and  C47_76
REMARK   55  A    between atoms: C47_76  and  O19_78
REMARK   56  A    between atoms: N13_81  and  C49_82
REMARK   57  A    between atoms: C49_82  and  C50_83
REMARK   58  A    between atoms: C49_82  and  C84_142
REMARK   59  A    between atoms: N14_85  and  C51_86
REMARK   60  A    between atoms: C51_86  and  C52_87
REMARK   61  A    between atoms: C51_86  and  C54_91
REMARK   62  A    between atoms: C52_87  and  C53_88
REMARK   63  A    between atoms: N16_93  and  C55_94
REMARK   64  A    between atoms: C55_94  and  C56_95
REMARK   65  A    between atoms: N17_97  and  C57_98
REMARK   66  A    between atoms: C57_98  and  C58_99
REMARK   67  A    between atoms: C57_98  and  C60_103
REMARK   68  A    between atoms: C58_99  and  C59_100
REMARK   69  A    between atoms: C59_100  and  O26_102
REMARK   70  A    between atoms: N18_105  and  C61_106
REMARK   71  A    between atoms: C61_106  and  C62_107
REMARK   72  A    between atoms: C61_106  and  C63_108
REMARK   73  A    between atoms: N19_110  and  C64_111
REMARK   74  A    between atoms: C64_111  and  C65_112
REMARK   75  A    between atoms: C64_111  and  C68_117
REMARK   76  A    between atoms: C65_112  and  C66_113
REMARK   77  A    between atoms: C66_113  and  C67_114
REMARK   78  A    between atoms: C67_114  and  O30_116
REMARK   79  A    between atoms: N20_119  and  C69_120
REMARK   80  A    between atoms: C69_120  and  C70_121
REMARK   81  A    between atoms: C69_120  and  C77_128
REMARK   82  A    between atoms: C70_121  and  C71_122
REMARK   83  A    between atoms: N21_130  and  C78_131
REMARK   84  A    between atoms: C78_131  and  C79_132
REMARK   85  A    between atoms: C78_131  and  C83_139
REMARK   86  A    between atoms: C79_132  and  C80_133
REMARK   87  A    between atoms: C80_133  and  C81_134
REMARK   88  A    between atoms: C81_134  and  N22_135
REMARK   89  A    between atoms: C83_139  and  O34_141
REMARK   90  A    between atoms: C84_142  and  C85_143
REMARK   91  A    between atoms: C84_142  and  C86_144
REMARK                            x       y       z     vdW  Elec       q    Type
REMARK                         _______ _______ _______ _____ _____    ______ ____
ROOT
ATOM      1  C43 UNL     1      -1.333  -0.773   5.498  0.00  0.00    +0.236 C 
ATOM      2  O17 UNL     1      -0.119  -0.568   5.567  0.00  0.00    -0.274 OA
ATOM      3  N12 UNL     1      -1.912  -1.420   4.421  0.00  0.00    -0.302 N 
ATOM      4  H75 UNL     1      -2.926  -1.396   4.346  0.00  0.00    +0.150 HD
ENDROOT
BRANCH   1   5
ATOM      5  C41 UNL     1      -2.282  -0.430   6.656  0.00  0.00    +0.184 C 
BRANCH   5   8
ATOM      6  C40 UNL     1      -3.411   1.625   5.896  0.00  0.00    +0.234 C 
ATOM      7  O15 UNL     1      -2.333   2.229   5.950  0.00  0.00    -0.274 OA
ATOM      8  N11 UNL     1      -3.478   0.275   6.174  0.00  0.00    -0.301 N 
ATOM      9  H70 UNL     1      -4.334  -0.244   6.002  0.00  0.00    +0.150 HD
BRANCH   6  10
ATOM     10  C5  UNL     1      -4.762   2.384   5.707  0.00  0.00    +0.162 C 
BRANCH  10  11
ATOM     11  N1  UNL     1      -4.478   3.812   5.469  0.00  0.00    -0.302 N 
ATOM     12  C6  UNL     1      -3.897   4.329   4.325  0.00  0.00    +0.234 C 
ATOM     13  O1  UNL     1      -3.757   3.701   3.278  0.00  0.00    -0.274 OA
ATOM     14  H11 UNL     1      -4.324   4.359   6.314  0.00  0.00    +0.150 HD
BRANCH  12  15
ATOM     15  C7  UNL     1      -3.445   5.806   4.473  0.00  0.00    +0.159 C 
BRANCH  15  16
ATOM     16  N2  UNL     1      -2.396   6.080   3.487  0.00  0.00    -0.302 N 
ATOM     17  C11 UNL     1      -1.362   6.947   3.769  0.00  0.00    +0.234 C 
ATOM     18  O4  UNL     1      -1.198   7.415   4.900  0.00  0.00    -0.274 OA
ATOM     19  H18 UNL     1      -2.515   5.666   2.562  0.00  0.00    +0.150 HD
BRANCH  17  20
ATOM     20  C12 UNL     1      -0.290   7.123   2.670  0.00  0.00    +0.159 C 
BRANCH  20  21
ATOM     21  N3  UNL     1       0.676   6.041   2.899  0.00  0.00    -0.302 N 
ATOM     22  C16 UNL     1       2.004   6.102   2.527  0.00  0.00    +0.236 C 
ATOM     23  O7  UNL     1       2.437   7.002   1.815  0.00  0.00    -0.274 OA
ATOM     24  H25 UNL     1       0.375   5.280   3.502  0.00  0.00    +0.150 HD
BRANCH  22  25
ATOM     25  C17 UNL     1       2.868   4.954   3.114  0.00  0.00    +0.187 C 
BRANCH  25  26
ATOM     26  N4  UNL     1       3.973   4.559   2.232  0.00  0.00    -0.300 N 
ATOM     27  C18 UNL     1       5.206   5.148   2.176  0.00  0.00    +0.234 C 
ATOM     28  O8  UNL     1       5.501   6.118   2.886  0.00  0.00    -0.274 OA
ATOM     29  H27 UNL     1       3.708   4.028   1.398  0.00  0.00    +0.150 HD
BRANCH  27  30
ATOM     30  C19 UNL     1       6.238   4.567   1.159  0.00  0.00    +0.159 C 
BRANCH  30  31
ATOM     31  N6  UNL     1       6.042   3.197   0.673  0.00  0.00    -0.302 N 
ATOM     32  C24 UNL     1       4.983   2.829  -0.136  0.00  0.00    +0.234 C 
ATOM     33  O9  UNL     1       3.955   3.493  -0.190  0.00  0.00    -0.274 OA
ATOM     34  H39 UNL     1       6.907   2.665   0.548  0.00  0.00    +0.150 HD
BRANCH  32  35
ATOM     35  C25 UNL     1       5.153   1.449  -0.810  0.00  0.00    +0.162 C 
BRANCH  35  36
ATOM     36  N7  UNL     1       4.994   0.438   0.241  0.00  0.00    -0.302 N 
ATOM     37  C26 UNL     1       3.777   0.151   0.837  0.00  0.00    +0.234 C 
ATOM     38  O10 UNL     1       2.732   0.748   0.601  0.00  0.00    -0.274 OA
ATOM     39  H41 UNL     1       5.775   0.402   0.906  0.00  0.00    +0.150 HD
BRANCH  37  40
ATOM     40  C27 UNL     1       3.838  -0.933   1.936  0.00  0.00    +0.168 C 
BRANCH  40  41
ATOM     41  N9  UNL     1       4.853  -1.950   1.658  0.00  0.00    -0.302 N 
ATOM     42  C30 UNL     1       4.664  -3.263   2.012  0.00  0.00    +0.233 C 
ATOM     43  O12 UNL     1       3.755  -3.610   2.770  0.00  0.00    -0.274 OA
ATOM     44  H47 UNL     1       5.611  -1.698   1.034  0.00  0.00    +0.150 HD
BRANCH  42  45
ATOM     45  C31 UNL     1       5.689  -4.258   1.421  0.00  0.00    +0.166 C 
BRANCH  45  46
ATOM     46  N10 UNL     1       5.597  -5.556   2.137  0.00  0.00    -0.318 NA
ATOM     47  H49 UNL     1       4.715  -5.981   1.836  0.00  0.00    +0.119 HD
ATOM     48  H50 UNL     1       5.442  -5.359   3.129  0.00  0.00    +0.119 HD
ENDBRANCH  45  46
BRANCH  45  49
ATOM     49  C32 UNL     1       5.462  -4.445  -0.099  0.00  0.00    +0.137 C 
ATOM     50  C33 UNL     1       6.601  -5.220  -0.762  0.00  0.00    +0.040 C 
BRANCH  49  51
ATOM     51  O13 UNL     1       4.224  -5.139  -0.343  0.00  0.00    -0.390 OA
ATOM     52  H55 UNL     1       4.132  -5.199  -1.311  0.00  0.00    +0.210 HD
ENDBRANCH  49  51
ENDBRANCH  45  49
ENDBRANCH  42  45
ENDBRANCH  40  41
BRANCH  40  53
ATOM     53  C28 UNL     1       3.917  -0.322   3.332  0.00  0.00    +0.127 C 
BRANCH  53  54
ATOM     54  C29 UNL     1       5.106   0.587   3.524  0.00  0.00    +0.213 C 
ATOM     55  N8  UNL     1       5.044   1.368   4.651  0.00  0.00    -0.329 N 
ATOM     56  O11 UNL     1       6.069   0.629   2.771  0.00  0.00    -0.276 OA
ATOM     57  H45 UNL     1       4.145   1.628   5.034  0.00  0.00    +0.145 HD
ATOM     58  H46 UNL     1       5.720   2.118   4.711  0.00  0.00    +0.145 HD
ENDBRANCH  53  54
ENDBRANCH  40  53
ENDBRANCH  37  40
ENDBRANCH  35  36
BRANCH  35  59
ATOM     59  C34 UNL     1       4.274   1.256  -2.076  0.00  0.00    +0.015 C 
ATOM     60  C35 UNL     1       4.561   2.372  -3.099  0.00  0.00    +0.010 C 
BRANCH  59  61
ATOM     61  C36 UNL     1       4.517  -0.085  -2.816  0.00  0.00    +0.002 C 
ATOM     62  C37 UNL     1       3.939  -1.320  -2.143  0.00  0.00    +0.004 C 
ENDBRANCH  59  61
ENDBRANCH  35  59
ENDBRANCH  32  35
ENDBRANCH  30  31
BRANCH  30  63
ATOM     63  C20 UNL     1       6.535   5.562   0.027  0.00  0.00    +0.032 C 
BRANCH  63  64
ATOM     64  C21 UNL     1       7.933   5.393  -0.600  0.00  0.00    +0.003 C 
BRANCH  64  65
ATOM     65  C22 UNL     1       8.046   4.248  -1.614  0.00  0.00    +0.015 C 
BRANCH  65  66
ATOM     66  C23 UNL     1       9.100   3.192  -1.267  0.00  0.00    +0.077 C 
BRANCH  66  67
ATOM     67  N5  UNL     1       8.809   2.495  -0.007  0.00  0.00    -0.330 NA
ATOM     68  H37 UNL     1       9.101   3.111   0.759  0.00  0.00    +0.118 HD
ATOM     69  H38 UNL     1       9.460   1.705   0.057  0.00  0.00    +0.118 HD
ENDBRANCH  66  67
ENDBRANCH  65  66
ENDBRANCH  64  65
ENDBRANCH  63  64
ENDBRANCH  30  63
ENDBRANCH  27  30
ENDBRANCH  25  26
BRANCH  25  70
ATOM     70  C38 UNL     1       3.290   5.283   4.574  0.00  0.00    +0.141 C 
ATOM     71  C39 UNL     1       2.176   5.035   5.592  0.00  0.00    +0.040 C 
BRANCH  70  72
ATOM     72  O14 UNL     1       4.398   4.465   4.992  0.00  0.00    -0.390 OA
ATOM     73  H69 UNL     1       5.172   4.917   4.590  0.00  0.00    +0.210 HD
ENDBRANCH  70  72
ENDBRANCH  25  70
ENDBRANCH  22  25
ENDBRANCH  20  21
BRANCH  20  74
ATOM     74  C13 UNL     1      -0.827   7.133   1.235  0.00  0.00    +0.043 C 
BRANCH  74  75
ATOM     75  C14 UNL     1      -1.923   8.177   0.989  0.00  0.00    +0.123 C 
BRANCH  75  76
ATOM     76  C15 UNL     1      -2.980   7.677   0.040  0.00  0.00    +0.305 C 
ATOM     77  O5  UNL     1      -3.371   8.258  -0.961  0.00  0.00    -0.251 OA
BRANCH  76  78
ATOM     78  O6  UNL     1      -3.516   6.502   0.426  0.00  0.00    -0.481 OA
ATOM     79  H24 UNL     1      -4.129   6.249  -0.314  0.00  0.00    +0.295 HD
ENDBRANCH  76  78
ENDBRANCH  75  76
ENDBRANCH  74  75
ENDBRANCH  20  74
ENDBRANCH  17  20
ENDBRANCH  15  16
BRANCH  15  80
ATOM     80  C8  UNL     1      -4.599   6.801   4.277  0.00  0.00    +0.043 C 
BRANCH  80  81
ATOM     81  C9  UNL     1      -5.723   6.741   5.314  0.00  0.00    +0.123 C 
BRANCH  81  82
ATOM     82  C10 UNL     1      -5.246   7.091   6.696  0.00  0.00    +0.305 C 
ATOM     83  O2  UNL     1      -5.327   8.182   7.234  0.00  0.00    -0.251 OA
BRANCH  82  84
ATOM     84  O3  UNL     1      -4.670   6.048   7.332  0.00  0.00    -0.481 OA
ATOM     85  H17 UNL     1      -4.379   6.455   8.183  0.00  0.00    +0.295 HD
ENDBRANCH  82  84
ENDBRANCH  81  82
ENDBRANCH  80  81
ENDBRANCH  15  80
ENDBRANCH  12  15
ENDBRANCH  10  11
BRANCH  10  86
ATOM     86  C3  UNL     1      -5.893   1.805   4.816  0.00  0.00    +0.015 C 
ATOM     87  C4  UNL     1      -5.404   1.125   3.536  0.00  0.00    +0.010 C 
BRANCH  86  89
ATOM     88  C1  UNL     1      -8.165   0.600   4.965  0.00  0.00    +0.004 C 
ATOM     89  C2  UNL     1      -6.817   0.859   5.630  0.00  0.00    +0.002 C 
ENDBRANCH  86  89
ENDBRANCH  10  86
ENDBRANCH   6  10
ENDBRANCH   5   8
BRANCH   5  90
ATOM     90  C42 UNL     1      -2.633  -1.716   7.417  0.00  0.00    +0.187 C 
BRANCH  90  91
ATOM     91  O16 UNL     1      -1.661  -2.023   8.418  0.00  0.00    -0.393 OA
ATOM     92  H74 UNL     1      -0.783  -2.060   7.990  0.00  0.00    +0.209 HD
ENDBRANCH  90  91
ENDBRANCH   5  90
ENDBRANCH   1   5
BRANCH   3  93
ATOM     93  C44 UNL     1      -1.199  -1.508   3.149  0.00  0.00    +0.159 C 
BRANCH  93  94
ATOM     94  C48 UNL     1      -2.105  -0.783   2.140  0.00  0.00    +0.234 C 
ATOM     95  O20 UNL     1      -3.321  -0.962   2.115  0.00  0.00    -0.274 OA
ATOM     96  N13 UNL     1      -1.450   0.120   1.337  0.00  0.00    -0.302 N 
ATOM     97  H82 UNL     1      -0.459   0.244   1.498  0.00  0.00    +0.150 HD
BRANCH  96  98
ATOM     98  C49 UNL     1      -2.173   1.330   0.915  0.00  0.00    +0.161 C 
BRANCH  98  99
ATOM     99  C50 UNL     1      -3.124   1.015  -0.271  0.00  0.00    +0.234 C 
ATOM    100  O21 UNL     1      -2.790   0.353  -1.256  0.00  0.00    -0.274 OA
ATOM    101  N14 UNL     1      -4.376   1.594  -0.144  0.00  0.00    -0.302 N 
ATOM    102  H84 UNL     1      -4.456   2.355   0.522  0.00  0.00    +0.150 HD
BRANCH 101 103
ATOM    103  C51 UNL     1      -5.287   1.664  -1.287  0.00  0.00    +0.168 C 
BRANCH 103 104
ATOM    104  C54 UNL     1      -4.921   2.949  -2.053  0.00  0.00    +0.234 C 
ATOM    105  O23 UNL     1      -4.712   4.023  -1.484  0.00  0.00    -0.274 OA
ATOM    106  N16 UNL     1      -4.838   2.778  -3.419  0.00  0.00    -0.305 N 
ATOM    107  H90 UNL     1      -5.019   1.862  -3.810  0.00  0.00    +0.149 HD
BRANCH 106 108
ATOM    108  C55 UNL     1      -4.174   3.752  -4.250  0.00  0.00    +0.200 C 
BRANCH 108 109
ATOM    109  C56 UNL     1      -2.722   3.312  -4.468  0.00  0.00    +0.231 C 
ATOM    110  O24 UNL     1      -1.842   3.451  -3.627  0.00  0.00    -0.274 OA
ATOM    111  N17 UNL     1      -2.491   2.632  -5.657  0.00  0.00    -0.302 N 
ATOM    112  H93 UNL     1      -3.226   2.690  -6.347  0.00  0.00    +0.150 HD
BRANCH 111 113
ATOM    113  C57 UNL     1      -1.127   2.598  -6.214  0.00  0.00    +0.169 C 
BRANCH 113 114
ATOM    114  C60 UNL     1      -0.079   1.774  -5.411  0.00  0.00    +0.234 C 
ATOM    115  O27 UNL     1       1.128   1.961  -5.567  0.00  0.00    -0.274 OA
ATOM    116  N18 UNL     1      -0.581   0.725  -4.660  0.00  0.00    -0.303 N 
ATOM    117  H98 UNL     1      -1.536   0.852  -4.338  0.00  0.00    +0.149 HD
BRANCH 116 118
ATOM    118  C61 UNL     1       0.329   0.032  -3.749  0.00  0.00    +0.156 C 
ATOM    119  C62 UNL     1       0.495   0.836  -2.470  0.00  0.00    +0.038 C 
BRANCH 118 120
ATOM    120  C63 UNL     1      -0.094  -1.408  -3.411  0.00  0.00    +0.234 C 
ATOM    121  O28 UNL     1       0.709  -2.348  -3.480  0.00  0.00    -0.274 OA
ATOM    122  N19 UNL     1      -1.383  -1.585  -2.929  0.00  0.00    -0.302 N 
ATOM    123  HA3 UNL     1      -1.809  -0.776  -2.481  0.00  0.00    +0.150 HD
BRANCH 122 124
ATOM    124  C64 UNL     1      -1.733  -2.898  -2.391  0.00  0.00    +0.159 C 
BRANCH 124 125
ATOM    125  C68 UNL     1      -1.793  -3.999  -3.487  0.00  0.00    +0.234 C 
ATOM    126  O31 UNL     1      -1.848  -3.761  -4.691  0.00  0.00    -0.274 OA
ATOM    127  N20 UNL     1      -1.858  -5.287  -2.975  0.00  0.00    -0.302 N 
ATOM    128  HB0 UNL     1      -1.457  -5.410  -2.052  0.00  0.00    +0.150 HD
BRANCH 127 129
ATOM    129  C69 UNL     1      -1.746  -6.435  -3.876  0.00  0.00    +0.163 C 
BRANCH 129 130
ATOM    130  C77 UNL     1      -2.911  -6.474  -4.901  0.00  0.00    +0.234 C 
ATOM    131  O32 UNL     1      -4.082  -6.274  -4.585  0.00  0.00    -0.274 OA
ATOM    132  N21 UNL     1      -2.507  -6.829  -6.181  0.00  0.00    -0.301 N 
ATOM    133  HB9 UNL     1      -1.593  -6.448  -6.416  0.00  0.00    +0.150 HD
BRANCH 132 134
ATOM    134  C78 UNL     1      -3.447  -6.830  -7.312  0.00  0.00    +0.182 C 
BRANCH 134 135
ATOM    135  C83 UNL     1      -3.805  -5.393  -7.721  0.00  0.00    +0.325 C 
ATOM    136  O33 UNL     1      -4.820  -5.038  -8.308  0.00  0.00    -0.249 OA
BRANCH 135 137
ATOM    137  O34 UNL     1      -2.800  -4.524  -7.473  0.00  0.00    -0.479 OA
ATOM    138  HD1 UNL     1      -3.149  -3.629  -7.658  0.00  0.00    +0.295 HD
ENDBRANCH 135 137
ENDBRANCH 134 135
BRANCH 134 139
ATOM    139  C79 UNL     1      -4.686  -7.708  -7.099  0.00  0.00    +0.035 C 
BRANCH 139 140
ATOM    140  C80 UNL     1      -5.280  -8.213  -8.427  0.00  0.00    +0.026 C 
BRANCH 140 141
ATOM    141  C81 UNL     1      -6.801  -8.087  -8.506  0.00  0.00    +0.145 C 
BRANCH 141 142
ATOM    142  N22 UNL     1      -7.425  -8.861  -7.435  0.00  0.00    -0.253 NA
ATOM    143  C82 UNL     1      -7.988  -8.267  -6.452  0.00  0.00    +0.188 C 
ATOM    144  N23 UNL     1      -8.155  -6.951  -6.199  0.00  0.00    -0.370 N 
ATOM    145  N24 UNL     1      -8.534  -9.022  -5.469  0.00  0.00    -0.370 N 
ATOM    146  HC7 UNL     1      -8.129  -6.677  -5.227  0.00  0.00    +0.159 HD
ATOM    147  HC8 UNL     1      -7.643  -6.306  -6.792  0.00  0.00    +0.159 HD
ATOM    148  HC9 UNL     1      -8.379 -10.000  -5.709  0.00  0.00    +0.159 HD
ATOM    149  HD0 UNL     1      -8.085  -8.859  -4.582  0.00  0.00    +0.159 HD
ENDBRANCH 141 142
ENDBRANCH 140 141
ENDBRANCH 139 140
ENDBRANCH 134 139
ENDBRANCH 132 134
ENDBRANCH 129 130
BRANCH 129 150
ATOM    150  C70 UNL     1      -1.821  -7.771  -3.105  0.00  0.00    +0.067 C 
BRANCH 150 151
ATOM    151  C71 UNL     1      -0.564  -8.114  -2.339  0.00  0.00    -0.045 A 
ATOM    152  C72 UNL     1      -0.445  -7.787  -0.982  0.00  0.00    +0.004 A 
ATOM    153  C73 UNL     1       0.692  -8.165  -0.257  0.00  0.00    +0.000 A 
ATOM    154  C74 UNL     1       1.715  -8.873  -0.892  0.00  0.00    +0.000 A 
ATOM    155  C75 UNL     1       1.616  -9.181  -2.245  0.00  0.00    +0.000 A 
ATOM    156  C76 UNL     1       0.484  -8.800  -2.966  0.00  0.00    +0.004 A 
ENDBRANCH 150 151
ENDBRANCH 129 150
ENDBRANCH 127 129
ENDBRANCH 124 125
BRANCH 124 157
ATOM    157  C65 UNL     1      -3.042  -2.875  -1.597  0.00  0.00    +0.043 C 
BRANCH 157 158
ATOM    158  C66 UNL     1      -4.278  -2.605  -2.464  0.00  0.00    +0.123 C 
BRANCH 158 159
ATOM    159  C67 UNL     1      -5.520  -2.443  -1.635  0.00  0.00    +0.305 C 
ATOM    160  O29 UNL     1      -6.388  -1.599  -1.804  0.00  0.00    -0.251 OA
BRANCH 159 161
ATOM    161  O30 UNL     1      -5.656  -3.381  -0.678  0.00  0.00    -0.481 OA
ATOM    162  HA9 UNL     1      -6.478  -3.150  -0.212  0.00  0.00    +0.295 HD
ENDBRANCH 159 161
ENDBRANCH 158 159
ENDBRANCH 157 158
ENDBRANCH 124 157
ENDBRANCH 122 124
ENDBRANCH 118 120
ENDBRANCH 116 118
ENDBRANCH 113 114
BRANCH 113 163
ATOM    163  C58 UNL     1      -0.605   4.016  -6.473  0.00  0.00    +0.152 C 
BRANCH 163 164
ATOM    164  C59 UNL     1       0.545   4.078  -7.444  0.00  0.00    +0.307 C 
ATOM    165  O25 UNL     1       1.431   4.918  -7.437  0.00  0.00    -0.251 OA
BRANCH 164 166
ATOM    166  O26 UNL     1       0.451   3.202  -8.460  0.00  0.00    -0.481 OA
ATOM    167  H97 UNL     1       1.258   3.394  -8.984  0.00  0.00    +0.295 HD
ENDBRANCH 164 166
ENDBRANCH 163 164
ENDBRANCH 113 163
ENDBRANCH 111 113
ENDBRANCH 108 109
ENDBRANCH 106 108
ENDBRANCH 103 104
BRANCH 103 168
ATOM    168  C52 UNL     1      -6.750   1.723  -0.870  0.00  0.00    +0.127 C 
BRANCH 168 169
ATOM    169  C53 UNL     1      -7.673   1.703  -2.067  0.00  0.00    +0.213 C 
ATOM    170  N15 UNL     1      -7.543   0.634  -2.908  0.00  0.00    -0.329 N 
ATOM    171  O22 UNL     1      -8.530   2.552  -2.270  0.00  0.00    -0.276 OA
ATOM    172  H88 UNL     1      -7.269  -0.248  -2.486  0.00  0.00    +0.145 HD
ATOM    173  H89 UNL     1      -8.293   0.553  -3.585  0.00  0.00    +0.145 HD
ENDBRANCH 168 169
ENDBRANCH 103 168
ENDBRANCH 101 103
ENDBRANCH  98  99
BRANCH  98 174
ATOM    174  C84 UNL     1      -1.148   2.439   0.579  0.00  0.00    +0.012 C 
ATOM    175  C85 UNL     1      -0.417   2.933   1.835  0.00  0.00    +0.009 C 
ATOM    176  C86 UNL     1      -1.765   3.635  -0.135  0.00  0.00    +0.009 C 
ENDBRANCH  98 174
ENDBRANCH  96  98
ENDBRANCH  93  94
BRANCH  93 177
ATOM    177  C45 UNL     1      -0.900  -2.947   2.724  0.00  0.00    +0.043 C 
BRANCH 177 178
ATOM    178  C46 UNL     1       0.192  -2.936   1.655  0.00  0.00    +0.123 C 
BRANCH 178 179
ATOM    179  C47 UNL     1       0.729  -4.290   1.288  0.00  0.00    +0.305 C 
ATOM    180  O18 UNL     1       0.272  -5.373   1.600  0.00  0.00    -0.251 OA
BRANCH 179 181
ATOM    181  O19 UNL     1       1.806  -4.151   0.493  0.00  0.00    -0.481 OA
ATOM    182  H81 UNL     1       2.270  -5.017   0.407  0.00  0.00    +0.295 HD
ENDBRANCH 179 181
ENDBRANCH 178 179
ENDBRANCH 177 178
ENDBRANCH  93 177
ENDBRANCH   3  93
TORSDOF 82
