REMARK  Name = ligands/ligand_37.pdb
REMARK  92 active torsions:
REMARK  status: ('A' for Active; 'I' for Inactive)
REMARK    1  A    between atoms: C1_1  and  C2_2
REMARK    2  A    between atoms: C2_2  and  C3_3
REMARK    3  A    between atoms: C3_3  and  C4_4
REMARK    4  A    between atoms: C3_3  and  C5_5
REMARK    5  A    between atoms: C5_5  and  N1_6
REMARK    6  A    between atoms: C5_5  and  C40_64
REMARK    7  A    between atoms: C6_7  and  C7_9
REMARK    8  A    between atoms: C7_9  and  C8_10
REMARK    9  A    between atoms: C7_9  and  N2_15
REMARK   10  A    between atoms: C8_10  and  C9_11
REMARK   11  A    between atoms: C9_11  and  C10_12
REMARK   12  A    between atoms: C10_12  and  O3_14
REMARK   13  A    between atoms: C11_16  and  C12_18
REMARK   14  A    between atoms: C12_18  and  C13_19
REMARK   15  A    between atoms: C12_18  and  N3_24
REMARK   16  A    between atoms: C13_19  and  C14_20
REMARK   17  A    between atoms: C14_20  and  C15_21
REMARK   18  A    between atoms: C15_21  and  O6_23
REMARK   19  A    between atoms: C16_25  and  C17_27
REMARK   20  A    between atoms: C17_27  and  N4_28
REMARK   21  A    between atoms: C17_27  and  C38_61
REMARK   22  A    between atoms: C18_29  and  C19_31
REMARK   23  A    between atoms: C19_31  and  C20_32
REMARK   24  A    between atoms: C19_31  and  N6_37
REMARK   25  A    between atoms: C20_32  and  C21_33
REMARK   26  A    between atoms: C21_33  and  C22_34
REMARK   27  A    between atoms: C22_34  and  C23_35
REMARK   28  A    between atoms: C23_35  and  N5_36
REMARK   29  A    between atoms: C24_38  and  C25_40
REMARK   30  A    between atoms: C25_40  and  N7_41
REMARK   31  A    between atoms: C25_40  and  C34_57
REMARK   32  A    between atoms: C26_42  and  C27_44
REMARK   33  A    between atoms: C27_44  and  C28_45
REMARK   34  A    between atoms: C27_44  and  N9_49
REMARK   35  A    between atoms: C28_45  and  C29_46
REMARK   36  A    between atoms: C30_50  and  C31_52
REMARK   37  A    between atoms: C31_52  and  N10_53
REMARK   38  A    between atoms: C31_52  and  C32_54
REMARK   39  A    between atoms: C32_54  and  C33_55
REMARK   40  A    between atoms: C32_54  and  O13_56
REMARK   41  A    between atoms: C34_57  and  C35_58
REMARK   42  A    between atoms: C34_57  and  C36_59
REMARK   43  A    between atoms: C36_59  and  C37_60
REMARK   44  A    between atoms: C38_61  and  C39_62
REMARK   45  A    between atoms: C38_61  and  O14_63
REMARK   46  A    between atoms: N11_66  and  C41_67
REMARK   47  A    between atoms: C41_67  and  C42_68
REMARK   48  A    between atoms: C41_67  and  C43_70
REMARK   49  A    between atoms: C42_68  and  O16_69
REMARK   50  A    between atoms: N12_72  and  C44_73
REMARK   51  A    between atoms: C44_73  and  C45_74
REMARK   52  A    between atoms: C44_73  and  C48_79
REMARK   53  A    between atoms: C45_74  and  C46_75
REMARK   54  A    between atoms: C46_75  and  C47_76
REMARK   55  A    between atoms: C47_76  and  O19_78
REMARK   56  A    between atoms: N13_81  and  C49_82
REMARK   57  A    between atoms: C49_82  and  C50_83
REMARK   58  A    between atoms: C49_82  and  C85_143
REMARK   59  A    between atoms: N14_85  and  C51_86
REMARK   60  A    between atoms: C51_86  and  C52_87
REMARK   61  A    between atoms: C51_86  and  C54_91
REMARK   62  A    between atoms: C52_87  and  C53_88
REMARK   63  A    between atoms: N16_93  and  C55_94
REMARK   64  A    between atoms: C55_94  and  C56_95
REMARK   65  A    between atoms: C55_94  and  C57_96
REMARK   66  A    between atoms: N17_98  and  C58_99
REMARK   67  A    between atoms: C58_99  and  C59_100
REMARK   68  A    between atoms: C58_99  and  C61_104
REMARK   69  A    between atoms: C59_100  and  C60_101
REMARK   70  A    between atoms: C60_101  and  O26_103
REMARK   71  A    between atoms: N18_106  and  C62_107
REMARK   72  A    between atoms: C62_107  and  C63_108
REMARK   73  A    between atoms: C62_107  and  C64_109
REMARK   74  A    between atoms: N19_111  and  C65_112
REMARK   75  A    between atoms: C65_112  and  C66_113
REMARK   76  A    between atoms: C65_112  and  C69_118
REMARK   77  A    between atoms: C66_113  and  C67_114
REMARK   78  A    between atoms: C67_114  and  C68_115
REMARK   79  A    between atoms: C68_115  and  O30_117
REMARK   80  A    between atoms: N20_120  and  C70_121
REMARK   81  A    between atoms: C70_121  and  C71_122
REMARK   82  A    between atoms: C70_121  and  C78_129
REMARK   83  A    between atoms: C71_122  and  C72_123
REMARK   84  A    between atoms: N21_131  and  C79_132
REMARK   85  A    between atoms: C79_132  and  C80_133
REMARK   86  A    between atoms: C79_132  and  C84_140
REMARK   87  A    between atoms: C80_133  and  C81_134
REMARK   88  A    between atoms: C81_134  and  C82_135
REMARK   89  A    between atoms: C82_135  and  N22_136
REMARK   90  A    between atoms: C84_140  and  O34_142
REMARK   91  A    between atoms: C85_143  and  C86_144
REMARK   92  A    between atoms: C85_143  and  C87_145
REMARK                            x       y       z     vdW  Elec       q    Type
REMARK                         _______ _______ _______ _____ _____    ______ ____
ROOT
ATOM      1  C43 UNL     1       5.828   4.255  -1.953  0.00  0.00    +0.236 C 
ATOM      2  O17 UNL     1       5.195   5.319  -1.910  0.00  0.00    -0.274 OA
ATOM      3  N12 UNL     1       6.021   3.587  -3.151  0.00  0.00    -0.302 N 
ATOM      4  H75 UNL     1       6.416   2.650  -3.061  0.00  0.00    +0.150 HD
ENDROOT
BRANCH   1   5
ATOM      5  C41 UNL     1       6.434   3.609  -0.673  0.00  0.00    +0.184 C 
BRANCH   5   8
ATOM      6  C40 UNL     1       5.914   4.252   1.696  0.00  0.00    +0.234 C 
ATOM      7  O15 UNL     1       7.105   4.346   1.990  0.00  0.00    -0.274 OA
ATOM      8  N11 UNL     1       5.507   3.932   0.422  0.00  0.00    -0.301 N 
ATOM      9  H70 UNL     1       4.523   3.755   0.240  0.00  0.00    +0.150 HD
BRANCH   6  10
ATOM     10  C5  UNL     1       4.788   4.293   2.772  0.00  0.00    +0.162 C 
BRANCH  10  11
ATOM     11  N1  UNL     1       3.581   4.892   2.180  0.00  0.00    -0.302 N 
ATOM     12  C6  UNL     1       2.772   5.790   2.833  0.00  0.00    +0.234 C 
ATOM     13  O1  UNL     1       2.894   6.082   4.025  0.00  0.00    -0.274 OA
ATOM     14  H11 UNL     1       3.198   4.447   1.348  0.00  0.00    +0.150 HD
BRANCH  12  15
ATOM     15  C7  UNL     1       1.683   6.418   1.941  0.00  0.00    +0.159 C 
BRANCH  15  16
ATOM     16  N2  UNL     1       0.375   6.161   2.557  0.00  0.00    -0.302 N 
ATOM     17  C11 UNL     1      -0.332   5.024   2.233  0.00  0.00    +0.234 C 
ATOM     18  O4  UNL     1       0.074   4.272   1.344  0.00  0.00    -0.274 OA
ATOM     19  H18 UNL     1       0.287   6.518   3.501  0.00  0.00    +0.150 HD
BRANCH  17  20
ATOM     20  C12 UNL     1      -1.671   4.769   2.980  0.00  0.00    +0.159 C 
BRANCH  20  21
ATOM     21  N3  UNL     1      -2.055   3.385   2.679  0.00  0.00    -0.302 N 
ATOM     22  C16 UNL     1      -3.274   3.012   2.140  0.00  0.00    +0.236 C 
ATOM     23  O7  UNL     1      -4.176   3.807   1.872  0.00  0.00    -0.274 OA
ATOM     24  H25 UNL     1      -1.301   2.706   2.571  0.00  0.00    +0.150 HD
BRANCH  22  25
ATOM     25  C17 UNL     1      -3.386   1.487   1.882  0.00  0.00    +0.187 C 
BRANCH  25  26
ATOM     26  N4  UNL     1      -4.773   1.101   1.624  0.00  0.00    -0.300 N 
ATOM     27  C18 UNL     1      -5.549   0.495   2.583  0.00  0.00    +0.234 C 
ATOM     28  O8  UNL     1      -5.151   0.251   3.722  0.00  0.00    -0.274 OA
ATOM     29  H27 UNL     1      -5.232   1.537   0.835  0.00  0.00    +0.150 HD
BRANCH  27  30
ATOM     30  C19 UNL     1      -6.970   0.112   2.123  0.00  0.00    +0.159 C 
BRANCH  30  31
ATOM     31  N6  UNL     1      -7.253  -1.178   2.765  0.00  0.00    -0.302 N 
ATOM     32  C24 UNL     1      -7.050  -2.366   2.090  0.00  0.00    +0.234 C 
ATOM     33  O9  UNL     1      -6.880  -2.417   0.873  0.00  0.00    -0.274 OA
ATOM     34  H39 UNL     1      -7.079  -1.185   3.763  0.00  0.00    +0.150 HD
BRANCH  32  35
ATOM     35  C25 UNL     1      -7.116  -3.638   2.986  0.00  0.00    +0.162 C 
BRANCH  35  36
ATOM     36  N7  UNL     1      -7.470  -4.811   2.173  0.00  0.00    -0.302 N 
ATOM     37  C26 UNL     1      -6.589  -5.635   1.504  0.00  0.00    +0.234 C 
ATOM     38  O10 UNL     1      -5.370  -5.606   1.666  0.00  0.00    -0.274 OA
ATOM     39  H41 UNL     1      -8.418  -4.790   1.788  0.00  0.00    +0.150 HD
BRANCH  37  40
ATOM     40  C27 UNL     1      -7.262  -6.684   0.579  0.00  0.00    +0.168 C 
BRANCH  40  41
ATOM     41  N9  UNL     1      -6.186  -7.344  -0.163  0.00  0.00    -0.302 N 
ATOM     42  C30 UNL     1      -5.768  -6.850  -1.383  0.00  0.00    +0.233 C 
ATOM     43  O12 UNL     1      -6.432  -6.102  -2.093  0.00  0.00    -0.274 OA
ATOM     44  H47 UNL     1      -5.378  -7.643   0.392  0.00  0.00    +0.150 HD
BRANCH  42  45
ATOM     45  C31 UNL     1      -4.392  -7.385  -1.807  0.00  0.00    +0.166 C 
BRANCH  45  46
ATOM     46  N10 UNL     1      -3.560  -7.614  -0.585  0.00  0.00    -0.318 NA
ATOM     47  H49 UNL     1      -2.693  -8.056  -0.910  0.00  0.00    +0.119 HD
ATOM     48  H50 UNL     1      -3.297  -6.702  -0.200  0.00  0.00    +0.119 HD
ENDBRANCH  45  46
BRANCH  45  49
ATOM     49  C32 UNL     1      -4.519  -8.701  -2.597  0.00  0.00    +0.137 C 
ATOM     50  C33 UNL     1      -5.232  -8.517  -3.934  0.00  0.00    +0.040 C 
BRANCH  49  51
ATOM     51  O13 UNL     1      -3.193  -9.198  -2.866  0.00  0.00    -0.390 OA
ATOM     52  H55 UNL     1      -3.296 -10.050  -3.327  0.00  0.00    +0.210 HD
ENDBRANCH  49  51
ENDBRANCH  45  49
ENDBRANCH  42  45
ENDBRANCH  40  41
BRANCH  40  53
ATOM     53  C28 UNL     1      -8.015  -7.720   1.417  0.00  0.00    +0.127 C 
BRANCH  53  54
ATOM     54  C29 UNL     1      -9.391  -7.231   1.811  0.00  0.00    +0.213 C 
ATOM     55  N8  UNL     1     -10.138  -8.140   2.499  0.00  0.00    -0.329 N 
ATOM     56  O11 UNL     1      -9.829  -6.112   1.570  0.00  0.00    -0.276 OA
ATOM     57  H45 UNL     1     -11.062  -7.864   2.805  0.00  0.00    +0.145 HD
ATOM     58  H46 UNL     1      -9.806  -9.065   2.738  0.00  0.00    +0.145 HD
ENDBRANCH  53  54
ENDBRANCH  40  53
ENDBRANCH  37  40
ENDBRANCH  35  36
BRANCH  35  59
ATOM     59  C34 UNL     1      -5.908  -3.852   3.949  0.00  0.00    +0.015 C 
ATOM     60  C35 UNL     1      -4.585  -3.292   3.404  0.00  0.00    +0.010 C 
BRANCH  59  61
ATOM     61  C36 UNL     1      -6.207  -3.287   5.359  0.00  0.00    +0.002 C 
ATOM     62  C37 UNL     1      -5.151  -3.641   6.395  0.00  0.00    +0.004 C 
ENDBRANCH  59  61
ENDBRANCH  35  59
ENDBRANCH  32  35
ENDBRANCH  30  31
BRANCH  30  63
ATOM     63  C20 UNL     1      -7.995   1.159   2.582  0.00  0.00    +0.032 C 
BRANCH  63  64
ATOM     64  C21 UNL     1      -7.927   2.501   1.843  0.00  0.00    +0.003 C 
BRANCH  64  65
ATOM     65  C22 UNL     1      -8.270   2.393   0.353  0.00  0.00    +0.015 C 
BRANCH  65  66
ATOM     66  C23 UNL     1      -8.250   3.761  -0.328  0.00  0.00    +0.077 C 
BRANCH  66  67
ATOM     67  N5  UNL     1      -8.571   3.641  -1.750  0.00  0.00    -0.330 NA
ATOM     68  H37 UNL     1      -7.936   2.977  -2.187  0.00  0.00    +0.118 HD
ATOM     69  H38 UNL     1      -9.503   3.235  -1.854  0.00  0.00    +0.118 HD
ENDBRANCH  66  67
ENDBRANCH  65  66
ENDBRANCH  64  65
ENDBRANCH  63  64
ENDBRANCH  30  63
ENDBRANCH  27  30
ENDBRANCH  25  26
BRANCH  25  70
ATOM     70  C38 UNL     1      -2.451   1.028   0.748  0.00  0.00    +0.141 C 
ATOM     71  C39 UNL     1      -2.647   1.783  -0.563  0.00  0.00    +0.040 C 
BRANCH  70  72
ATOM     72  O14 UNL     1      -1.082   1.127   1.187  0.00  0.00    -0.390 OA
ATOM     73  H69 UNL     1      -0.549   1.334   0.390  0.00  0.00    +0.210 HD
ENDBRANCH  70  72
ENDBRANCH  25  70
ENDBRANCH  22  25
ENDBRANCH  20  21
BRANCH  20  74
ATOM     74  C13 UNL     1      -1.583   4.936   4.513  0.00  0.00    +0.043 C 
BRANCH  74  75
ATOM     75  C14 UNL     1      -2.011   6.319   5.001  0.00  0.00    +0.123 C 
BRANCH  75  76
ATOM     76  C15 UNL     1      -3.498   6.541   4.928  0.00  0.00    +0.305 C 
ATOM     77  O5  UNL     1      -4.367   5.739   4.637  0.00  0.00    -0.251 OA
BRANCH  76  78
ATOM     78  O6  UNL     1      -3.820   7.816   5.229  0.00  0.00    -0.481 OA
ATOM     79  H24 UNL     1      -4.797   7.852   5.125  0.00  0.00    +0.295 HD
ENDBRANCH  76  78
ENDBRANCH  75  76
ENDBRANCH  74  75
ENDBRANCH  20  74
ENDBRANCH  17  20
ENDBRANCH  15  16
BRANCH  15  80
ATOM     80  C8  UNL     1       1.917   7.931   1.796  0.00  0.00    +0.043 C 
BRANCH  80  81
ATOM     81  C9  UNL     1       3.287   8.303   1.221  0.00  0.00    +0.123 C 
BRANCH  81  82
ATOM     82  C10 UNL     1       3.544   7.632  -0.105  0.00  0.00    +0.305 C 
ATOM     83  O2  UNL     1       2.705   7.425  -0.968  0.00  0.00    -0.251 OA
BRANCH  82  84
ATOM     84  O3  UNL     1       4.826   7.257  -0.241  0.00  0.00    -0.481 OA
ATOM     85  H17 UNL     1       4.878   6.684  -1.055  0.00  0.00    +0.295 HD
ENDBRANCH  82  84
ENDBRANCH  81  82
ENDBRANCH  80  81
ENDBRANCH  15  80
ENDBRANCH  12  15
ENDBRANCH  10  11
BRANCH  10  86
ATOM     86  C3  UNL     1       4.536   2.863   3.330  0.00  0.00    +0.015 C 
ATOM     87  C4  UNL     1       5.732   2.411   4.187  0.00  0.00    +0.010 C 
BRANCH  86  89
ATOM     88  C1  UNL     1       2.930   1.357   4.687  0.00  0.00    +0.004 C 
ATOM     89  C2  UNL     1       3.218   2.753   4.141  0.00  0.00    +0.002 C 
ENDBRANCH  86  89
ENDBRANCH  10  86
ENDBRANCH   6  10
ENDBRANCH   5   8
BRANCH   5  90
ATOM     90  C42 UNL     1       6.580   2.079  -0.737  0.00  0.00    +0.187 C 
BRANCH  90  91
ATOM     91  O16 UNL     1       7.498   1.660  -1.745  0.00  0.00    -0.393 OA
ATOM     92  H74 UNL     1       7.671   0.713  -1.563  0.00  0.00    +0.209 HD
ENDBRANCH  90  91
ENDBRANCH   5  90
ENDBRANCH   1   5
BRANCH   3  93
ATOM     93  C44 UNL     1       5.054   3.815  -4.230  0.00  0.00    +0.159 C 
BRANCH  93  94
ATOM     94  C48 UNL     1       3.708   3.212  -3.756  0.00  0.00    +0.234 C 
ATOM     95  O20 UNL     1       3.664   2.412  -2.824  0.00  0.00    -0.274 OA
ATOM     96  N13 UNL     1       2.585   3.628  -4.433  0.00  0.00    -0.302 N 
ATOM     97  H82 UNL     1       2.683   3.870  -5.410  0.00  0.00    +0.150 HD
BRANCH  96  98
ATOM     98  C49 UNL     1       1.248   3.246  -3.973  0.00  0.00    +0.161 C 
BRANCH  98  99
ATOM     99  C50 UNL     1       0.704   2.083  -4.861  0.00  0.00    +0.234 C 
ATOM    100  O21 UNL     1       1.178   0.945  -4.766  0.00  0.00    -0.274 OA
ATOM    101  N14 UNL     1      -0.209   2.432  -5.834  0.00  0.00    -0.302 N 
ATOM    102  H84 UNL     1      -0.567   3.373  -5.814  0.00  0.00    +0.150 HD
BRANCH 101 103
ATOM    103  C51 UNL     1      -1.111   1.469  -6.491  0.00  0.00    +0.168 C 
BRANCH 103 104
ATOM    104  C54 UNL     1      -2.237   1.031  -5.521  0.00  0.00    +0.234 C 
ATOM    105  O23 UNL     1      -2.210   1.249  -4.312  0.00  0.00    -0.274 OA
ATOM    106  N16 UNL     1      -3.334   0.431  -6.127  0.00  0.00    -0.303 N 
ATOM    107  H90 UNL     1      -3.170  -0.020  -7.021  0.00  0.00    +0.149 HD
BRANCH 106 108
ATOM    108  C55 UNL     1      -4.333  -0.232  -5.290  0.00  0.00    +0.156 C 
ATOM    109  C56 UNL     1      -5.694  -0.251  -5.962  0.00  0.00    +0.038 C 
BRANCH 108 110
ATOM    110  C57 UNL     1      -3.852  -1.680  -5.082  0.00  0.00    +0.234 C 
ATOM    111  O24 UNL     1      -3.351  -2.321  -6.007  0.00  0.00    -0.274 OA
ATOM    112  N17 UNL     1      -4.096  -2.176  -3.825  0.00  0.00    -0.302 N 
ATOM    113  H95 UNL     1      -4.343  -1.476  -3.121  0.00  0.00    +0.150 HD
BRANCH 112 114
ATOM    114  C58 UNL     1      -3.506  -3.377  -3.204  0.00  0.00    +0.169 C 
BRANCH 114 115
ATOM    115  C61 UNL     1      -2.901  -2.848  -1.870  0.00  0.00    +0.234 C 
ATOM    116  O27 UNL     1      -3.160  -1.713  -1.460  0.00  0.00    -0.274 OA
ATOM    117  N18 UNL     1      -2.140  -3.733  -1.122  0.00  0.00    -0.303 N 
ATOM    118  HA0 UNL     1      -1.686  -4.494  -1.621  0.00  0.00    +0.149 HD
BRANCH 117 119
ATOM    119  C62 UNL     1      -1.385  -3.229   0.027  0.00  0.00    +0.156 C 
ATOM    120  C63 UNL     1      -1.206  -4.315   1.078  0.00  0.00    +0.038 C 
BRANCH 119 121
ATOM    121  C64 UNL     1       0.002  -2.748  -0.448  0.00  0.00    +0.234 C 
ATOM    122  O28 UNL     1       0.585  -3.253  -1.413  0.00  0.00    -0.274 OA
ATOM    123  N19 UNL     1       0.566  -1.758   0.333  0.00  0.00    -0.302 N 
ATOM    124  HA5 UNL     1       0.148  -1.603   1.241  0.00  0.00    +0.150 HD
BRANCH 123 125
ATOM    125  C65 UNL     1       1.991  -1.460   0.217  0.00  0.00    +0.159 C 
BRANCH 125 126
ATOM    126  C69 UNL     1       2.786  -2.425   1.113  0.00  0.00    +0.234 C 
ATOM    127  O31 UNL     1       2.259  -3.182   1.924  0.00  0.00    -0.274 OA
ATOM    128  N20 UNL     1       4.139  -2.353   0.915  0.00  0.00    -0.302 N 
ATOM    129  HB2 UNL     1       4.509  -1.824   0.130  0.00  0.00    +0.150 HD
BRANCH 128 130
ATOM    130  C70 UNL     1       5.060  -3.318   1.493  0.00  0.00    +0.163 C 
BRANCH 130 131
ATOM    131  C78 UNL     1       6.446  -2.656   1.568  0.00  0.00    +0.234 C 
ATOM    132  O32 UNL     1       6.785  -1.715   0.849  0.00  0.00    -0.274 OA
ATOM    133  N21 UNL     1       7.257  -3.199   2.535  0.00  0.00    -0.301 N 
ATOM    134  HC1 UNL     1       7.019  -4.110   2.929  0.00  0.00    +0.150 HD
BRANCH 133 135
ATOM    135  C79 UNL     1       8.670  -2.870   2.680  0.00  0.00    +0.182 C 
BRANCH 135 136
ATOM    136  C84 UNL     1       9.497  -3.961   1.975  0.00  0.00    +0.325 C 
ATOM    137  O33 UNL     1       9.082  -4.797   1.177  0.00  0.00    -0.249 OA
BRANCH 136 138
ATOM    138  O34 UNL     1      10.818  -3.885   2.231  0.00  0.00    -0.479 OA
ATOM    139  HD3 UNL     1      11.200  -4.625   1.709  0.00  0.00    +0.295 HD
ENDBRANCH 136 138
ENDBRANCH 135 136
BRANCH 135 140
ATOM    140  C80 UNL     1       9.040  -2.649   4.163  0.00  0.00    +0.035 C 
BRANCH 140 141
ATOM    141  C81 UNL     1       8.274  -3.460   5.217  0.00  0.00    +0.026 C 
BRANCH 141 142
ATOM    142  C82 UNL     1       8.471  -4.976   5.167  0.00  0.00    +0.145 C 
BRANCH 142 143
ATOM    143  N22 UNL     1       7.923  -5.494   3.923  0.00  0.00    -0.253 NA
ATOM    144  C83 UNL     1       7.980  -6.754   3.706  0.00  0.00    +0.188 C 
ATOM    145  N23 UNL     1       8.417  -7.750   4.505  0.00  0.00    -0.370 N 
ATOM    146  N24 UNL     1       7.600  -7.250   2.510  0.00  0.00    -0.370 N 
ATOM    147  HC9 UNL     1       8.512  -7.495   5.481  0.00  0.00    +0.159 HD
ATOM    148  HD0 UNL     1       7.859  -8.593   4.415  0.00  0.00    +0.159 HD
ATOM    149  HD1 UNL     1       7.604  -6.512   1.810  0.00  0.00    +0.159 HD
ATOM    150  HD2 UNL     1       8.201  -8.001   2.192  0.00  0.00    +0.159 HD
ENDBRANCH 142 143
ENDBRANCH 141 142
ENDBRANCH 140 141
ENDBRANCH 135 140
ENDBRANCH 133 135
ENDBRANCH 130 131
BRANCH 130 151
ATOM    151  C71 UNL     1       5.090  -4.646   0.712  0.00  0.00    +0.067 C 
BRANCH 151 152
ATOM    152  C72 UNL     1       5.220  -4.492  -0.788  0.00  0.00    -0.045 A 
ATOM    153  C73 UNL     1       4.079  -4.460  -1.603  0.00  0.00    +0.004 A 
ATOM    154  C74 UNL     1       4.192  -4.273  -2.980  0.00  0.00    +0.000 A 
ATOM    155  C75 UNL     1       5.446  -4.118  -3.561  0.00  0.00    +0.000 A 
ATOM    156  C76 UNL     1       6.594  -4.159  -2.767  0.00  0.00    +0.000 A 
ATOM    157  C77 UNL     1       6.480  -4.348  -1.384  0.00  0.00    +0.004 A 
ENDBRANCH 151 152
ENDBRANCH 130 151
ENDBRANCH 128 130
ENDBRANCH 125 126
BRANCH 125 158
ATOM    158  C66 UNL     1       2.286  -0.009   0.603  0.00  0.00    +0.043 C 
BRANCH 158 159
ATOM    159  C67 UNL     1       2.263   0.872  -0.632  0.00  0.00    +0.123 C 
BRANCH 159 160
ATOM    160  C68 UNL     1       1.999   2.289  -0.230  0.00  0.00    +0.305 C 
ATOM    161  O29 UNL     1       2.803   3.076   0.243  0.00  0.00    -0.251 OA
BRANCH 160 162
ATOM    162  O30 UNL     1       0.683   2.572  -0.337  0.00  0.00    -0.481 OA
ATOM    163  HB1 UNL     1       0.549   3.444   0.124  0.00  0.00    +0.295 HD
ENDBRANCH 160 162
ENDBRANCH 159 160
ENDBRANCH 158 159
ENDBRANCH 125 158
ENDBRANCH 123 125
ENDBRANCH 119 121
ENDBRANCH 117 119
ENDBRANCH 114 115
BRANCH 114 164
ATOM    164  C59 UNL     1      -2.560  -4.215  -4.062  0.00  0.00    +0.152 C 
BRANCH 164 165
ATOM    165  C60 UNL     1      -1.162  -3.676  -4.017  0.00  0.00    +0.307 C 
ATOM    166  O25 UNL     1      -0.781  -2.559  -4.332  0.00  0.00    -0.251 OA
BRANCH 165 167
ATOM    167  O26 UNL     1      -0.333  -4.547  -3.393  0.00  0.00    -0.481 OA
ATOM    168  H99 UNL     1       0.412  -3.980  -3.058  0.00  0.00    +0.295 HD
ENDBRANCH 165 167
ENDBRANCH 164 165
ENDBRANCH 114 164
ENDBRANCH 112 114
ENDBRANCH 108 110
ENDBRANCH 106 108
ENDBRANCH 103 104
BRANCH 103 169
ATOM    169  C52 UNL     1      -0.441   0.278  -7.185  0.00  0.00    +0.127 C 
BRANCH 169 170
ATOM    170  C53 UNL     1      -0.181   0.570  -8.644  0.00  0.00    +0.213 C 
ATOM    171  N15 UNL     1       0.218  -0.514  -9.369  0.00  0.00    -0.329 N 
ATOM    172  O22 UNL     1      -0.292   1.672  -9.173  0.00  0.00    -0.276 OA
ATOM    173  H88 UNL     1       0.610  -1.327  -8.912  0.00  0.00    +0.145 HD
ATOM    174  H89 UNL     1       0.529  -0.314 -10.310  0.00  0.00    +0.145 HD
ENDBRANCH 169 170
ENDBRANCH 103 169
ENDBRANCH 101 103
ENDBRANCH  98  99
BRANCH  98 175
ATOM    175  C85 UNL     1       0.367   4.512  -3.794  0.00  0.00    +0.012 C 
ATOM    176  C86 UNL     1      -1.008   4.189  -3.205  0.00  0.00    +0.009 C 
ATOM    177  C87 UNL     1       1.046   5.524  -2.859  0.00  0.00    +0.009 C 
ENDBRANCH  98 175
ENDBRANCH  96  98
ENDBRANCH  93  94
BRANCH  93 178
ATOM    178  C45 UNL     1       5.561   3.280  -5.577  0.00  0.00    +0.043 C 
BRANCH 178 179
ATOM    179  C46 UNL     1       5.441   1.767  -5.778  0.00  0.00    +0.123 C 
BRANCH 179 180
ATOM    180  C47 UNL     1       4.019   1.364  -6.059  0.00  0.00    +0.305 C 
ATOM    181  O18 UNL     1       3.195   2.013  -6.681  0.00  0.00    -0.251 OA
BRANCH 180 182
ATOM    182  O19 UNL     1       3.699   0.202  -5.451  0.00  0.00    -0.481 OA
ATOM    183  H81 UNL     1       2.703   0.188  -5.397  0.00  0.00    +0.295 HD
ENDBRANCH 180 182
ENDBRANCH 179 180
ENDBRANCH 178 179
ENDBRANCH  93 178
ENDBRANCH   3  93
TORSDOF 82
