REMARK  Name = ligands/ligand_19.pdb
REMARK  32 active torsions:
REMARK  status: ('A' for Active; 'I' for Inactive)
REMARK    1  A    between atoms: C1_1  and  C2_2
REMARK    2  A    between atoms: C2_2  and  C3_3
REMARK    3  A    between atoms: C3_3  and  C4_4
REMARK    4  A    between atoms: C4_4  and  N1_5
REMARK    5  A    between atoms: C4_4  and  C10_13
REMARK    6  A    between atoms: C5_6  and  O2_8
REMARK    7  A    between atoms: O2_8  and  C6_9
REMARK    8  A    between atoms: C6_9  and  C7_10
REMARK    9  A    between atoms: C6_9  and  C8_11
REMARK   10  A    between atoms: C6_9  and  C9_12
REMARK   11  A    between atoms: N2_15  and  C11_16
REMARK   12  A    between atoms: C11_16  and  C12_17
REMARK   13  A    between atoms: C11_16  and  C15_21
REMARK   14  A    between atoms: C12_17  and  C13_18
REMARK   15  A    between atoms: C13_18  and  S1_19
REMARK   16  A    between atoms: S1_19  and  C14_20
REMARK   17  A    between atoms: N3_23  and  C16_24
REMARK   18  A    between atoms: C16_24  and  C17_25
REMARK   19  A    between atoms: C16_24  and  C24_32
REMARK   20  A    between atoms: C17_25  and  C18_26
REMARK   21  A    between atoms: C24_32  and  O5_33
REMARK   22  A    between atoms: C24_32  and  C25_34
REMARK   23  A    between atoms: C25_34  and  C26_35
REMARK   24  A    between atoms: C26_35  and  C27_36
REMARK   25  A    between atoms: C26_35  and  C28_37
REMARK   26  A    between atoms: N4_39  and  C29_40
REMARK   27  A    between atoms: C29_40  and  C30_41
REMARK   28  A    between atoms: C29_40  and  C37_51
REMARK   29  A    between atoms: N5_43  and  C31_44
REMARK   30  A    between atoms: C31_44  and  C32_45
REMARK   31  A    between atoms: C37_51  and  C38_52
REMARK   32  A    between atoms: C37_51  and  C39_53
REMARK                            x       y       z     vdW  Elec       q    Type
REMARK                         _______ _______ _______ _____ _____    ______ ____
ROOT
ATOM      1  C16 UNL     1       0.102  -3.131  -1.775  0.00  0.00    +0.106 C 
ENDROOT
BRANCH   1   4
ATOM      2  C15 UNL     1       1.792  -1.451  -1.070  0.00  0.00    +0.234 C 
ATOM      3  O4  UNL     1       2.705  -2.031  -1.656  0.00  0.00    -0.274 OA
ATOM      4  N3  UNL     1       0.474  -1.862  -1.131  0.00  0.00    -0.308 N 
ATOM      5  H28 UNL     1      -0.154  -1.487  -0.430  0.00  0.00    +0.149 HD
BRANCH   2   6
ATOM      6  C11 UNL     1       2.019  -0.175  -0.235  0.00  0.00    +0.160 C 
BRANCH   6   9
ATOM      7  C10 UNL     1       3.891  -0.505   1.336  0.00  0.00    +0.234 C 
ATOM      8  O3  UNL     1       3.141  -0.643   2.303  0.00  0.00    -0.274 OA
ATOM      9  N2  UNL     1       3.437  -0.110   0.092  0.00  0.00    -0.302 N 
ATOM     10  H19 UNL     1       4.077  -0.213  -0.693  0.00  0.00    +0.150 HD
BRANCH   7  11
ATOM     11  C4  UNL     1       5.420  -0.642   1.444  0.00  0.00    +0.162 C 
BRANCH  11  12
ATOM     12  N1  UNL     1       5.846   0.522   2.209  0.00  0.00    -0.270 N 
ATOM     13  C5  UNL     1       6.182   1.691   1.590  0.00  0.00    +0.401 C 
ATOM     14  O1  UNL     1       6.417   1.806   0.397  0.00  0.00    -0.226 OA
ATOM     15  H9  UNL     1       5.481   0.634   3.146  0.00  0.00    +0.153 HD
BRANCH  13  16
ATOM     16  O2  UNL     1       6.197   2.677   2.514  0.00  0.00    -0.445 OA
BRANCH  16  17
ATOM     17  C6  UNL     1       6.573   4.032   2.148  0.00  0.00    +0.107 C 
ATOM     18  C7  UNL     1       8.042   4.082   1.704  0.00  0.00    +0.055 C 
ATOM     19  C8  UNL     1       5.622   4.624   1.096  0.00  0.00    +0.055 C 
ATOM     20  C9  UNL     1       6.417   4.841   3.445  0.00  0.00    +0.055 C 
ENDBRANCH  16  17
ENDBRANCH  13  16
ENDBRANCH  11  12
BRANCH  11  21
ATOM     21  C3  UNL     1       5.836  -1.928   2.167  0.00  0.00    +0.031 C 
BRANCH  21  23
ATOM     22  C1  UNL     1       4.274  -3.765   1.309  0.00  0.00    +0.004 C 
ATOM     23  C2  UNL     1       5.684  -3.194   1.316  0.00  0.00    -0.001 C 
ENDBRANCH  21  23
ENDBRANCH  11  21
ENDBRANCH   7  11
ENDBRANCH   6   9
BRANCH   6  24
ATOM     24  C12 UNL     1       1.556   1.055  -1.019  0.00  0.00    +0.042 C 
BRANCH  24  25
ATOM     25  C13 UNL     1       1.649   2.314  -0.157  0.00  0.00    +0.071 C 
BRANCH  25  26
ATOM     26  S1  UNL     1       0.944   3.766  -1.006  0.00  0.00    -0.164 S 
ATOM     27  C14 UNL     1      -0.818   3.471  -0.701  0.00  0.00    +0.084 C 
ENDBRANCH  25  26
ENDBRANCH  24  25
ENDBRANCH   6  24
ENDBRANCH   2   6
ENDBRANCH   1   4
BRANCH   1  28
ATOM     28  C24 UNL     1      -1.305  -3.008  -2.432  0.00  0.00    +0.136 C 
BRANCH  28  29
ATOM     29  O5  UNL     1      -1.596  -4.104  -3.293  0.00  0.00    -0.390 OA
ATOM     30  H38 UNL     1      -0.764  -4.496  -3.611  0.00  0.00    +0.210 HD
ENDBRANCH  28  29
BRANCH  28  31
ATOM     31  C25 UNL     1      -2.452  -2.871  -1.417  0.00  0.00    +0.045 C 
BRANCH  31  32
ATOM     32  C26 UNL     1      -3.764  -2.334  -2.031  0.00  0.00    +0.074 C 
ATOM     33  C27 UNL     1      -4.499  -3.361  -2.889  0.00  0.00    +0.017 C 
BRANCH  32  34
ATOM     34  C28 UNL     1      -4.668  -1.838  -0.906  0.00  0.00    +0.217 C 
ATOM     35  O6  UNL     1      -5.682  -2.421  -0.535  0.00  0.00    -0.276 OA
ATOM     36  N4  UNL     1      -4.207  -0.684  -0.304  0.00  0.00    -0.304 N 
ATOM     37  H45 UNL     1      -3.597  -0.099  -0.868  0.00  0.00    +0.149 HD
BRANCH  36  38
ATOM     38  C29 UNL     1      -5.041   0.057   0.642  0.00  0.00    +0.161 C 
BRANCH  38  39
ATOM     39  C30 UNL     1      -5.384   1.408  -0.016  0.00  0.00    +0.234 C 
ATOM     40  O7  UNL     1      -4.708   1.867  -0.941  0.00  0.00    -0.274 OA
ATOM     41  N5  UNL     1      -6.453   2.071   0.536  0.00  0.00    -0.310 N 
ATOM     42  H47 UNL     1      -7.078   1.551   1.140  0.00  0.00    +0.149 HD
BRANCH  41  43
ATOM     43  C31 UNL     1      -6.955   3.307  -0.021  0.00  0.00    +0.139 C 
BRANCH  43  44
ATOM     44  C32 UNL     1      -8.168   3.061  -0.881  0.00  0.00    -0.027 A 
ATOM     45  C33 UNL     1      -8.048   2.451  -2.134  0.00  0.00    +0.025 A 
ATOM     46  C34 UNL     1      -9.195   2.238  -2.882  0.00  0.00    +0.111 A 
ATOM     47  N6  UNL     1     -10.431   2.590  -2.476  0.00  0.00    -0.263 NA
ATOM     48  C35 UNL     1     -10.527   3.175  -1.265  0.00  0.00    +0.111 A 
ATOM     49  C36 UNL     1      -9.441   3.426  -0.441  0.00  0.00    +0.025 A 
ENDBRANCH  43  44
ENDBRANCH  41  43
ENDBRANCH  38  39
BRANCH  38  50
ATOM     50  C37 UNL     1      -4.355   0.262   2.010  0.00  0.00    +0.012 C 
ATOM     51  C38 UNL     1      -2.956   0.878   1.895  0.00  0.00    +0.009 C 
ATOM     52  C39 UNL     1      -4.284  -1.062   2.776  0.00  0.00    +0.009 C 
ENDBRANCH  38  50
ENDBRANCH  36  38
ENDBRANCH  32  34
ENDBRANCH  31  32
ENDBRANCH  28  31
ENDBRANCH   1  28
BRANCH   1  53
ATOM     53  C17 UNL     1       0.264  -4.300  -0.773  0.00  0.00    +0.060 C 
BRANCH  53  54
ATOM     54  C18 UNL     1       0.396  -5.659  -1.415  0.00  0.00    -0.046 A 
ATOM     55  C19 UNL     1       1.624  -6.075  -1.945  0.00  0.00    +0.004 A 
ATOM     56  C20 UNL     1       1.745  -7.321  -2.563  0.00  0.00    +0.000 A 
ATOM     57  C21 UNL     1       0.638  -8.162  -2.660  0.00  0.00    +0.000 A 
ATOM     58  C22 UNL     1      -0.585  -7.761  -2.130  0.00  0.00    +0.000 A 
ATOM     59  C23 UNL     1      -0.707  -6.519  -1.508  0.00  0.00    +0.004 A 
ENDBRANCH  53  54
ENDBRANCH   1  53
TORSDOF 24
