REMARK  Name = ligands/ligand_7.pdb
REMARK  77 active torsions:
REMARK  status: ('A' for Active; 'I' for Inactive)
REMARK    1  A    between atoms: C1_1  and  C2_2
REMARK    2  A    between atoms: C2_2  and  C3_3
REMARK    3  A    between atoms: C3_3  and  C4_4
REMARK    4  A    between atoms: C3_3  and  C5_5
REMARK    5  A    between atoms: C5_5  and  N1_6
REMARK    6  A    between atoms: C5_5  and  C26_41
REMARK    7  A    between atoms: C6_7  and  C7_9
REMARK    8  A    between atoms: C7_9  and  C8_10
REMARK    9  A    between atoms: C7_9  and  N2_15
REMARK   10  A    between atoms: C8_10  and  C9_11
REMARK   11  A    between atoms: C9_11  and  C10_12
REMARK   12  A    between atoms: C10_12  and  O3_14
REMARK   13  A    between atoms: C11_16  and  C12_18
REMARK   14  A    between atoms: C12_18  and  C13_19
REMARK   15  A    between atoms: C12_18  and  N3_24
REMARK   16  A    between atoms: C13_19  and  C14_20
REMARK   17  A    between atoms: C14_20  and  C15_21
REMARK   18  A    between atoms: C15_21  and  O6_23
REMARK   19  A    between atoms: C16_25  and  C17_27
REMARK   20  A    between atoms: C17_27  and  N4_28
REMARK   21  A    between atoms: C17_27  and  C24_38
REMARK   22  A    between atoms: C18_29  and  C19_31
REMARK   23  A    between atoms: C19_31  and  N5_32
REMARK   24  A    between atoms: C19_31  and  C20_33
REMARK   25  A    between atoms: C20_33  and  C21_34
REMARK   26  A    between atoms: C21_34  and  C22_35
REMARK   27  A    between atoms: C22_35  and  C23_36
REMARK   28  A    between atoms: C23_36  and  N6_37
REMARK   29  A    between atoms: C24_38  and  C25_39
REMARK   30  A    between atoms: C24_38  and  O9_40
REMARK   31  A    between atoms: N7_43  and  C27_44
REMARK   32  A    between atoms: C27_44  and  C28_45
REMARK   33  A    between atoms: C27_44  and  C29_47
REMARK   34  A    between atoms: C28_45  and  O11_46
REMARK   35  A    between atoms: N8_49  and  C30_50
REMARK   36  A    between atoms: C30_50  and  C31_51
REMARK   37  A    between atoms: C30_50  and  C34_56
REMARK   38  A    between atoms: C31_51  and  C32_52
REMARK   39  A    between atoms: C32_52  and  C33_53
REMARK   40  A    between atoms: C33_53  and  O14_55
REMARK   41  A    between atoms: N9_58  and  C35_59
REMARK   42  A    between atoms: C35_59  and  C36_60
REMARK   43  A    between atoms: C35_59  and  C71_114
REMARK   44  A    between atoms: N10_62  and  C37_63
REMARK   45  A    between atoms: C37_63  and  C38_64
REMARK   46  A    between atoms: C37_63  and  C40_68
REMARK   47  A    between atoms: C38_64  and  C39_65
REMARK   48  A    between atoms: N12_70  and  C41_71
REMARK   49  A    between atoms: C41_71  and  C42_72
REMARK   50  A    between atoms: C41_71  and  C46_76
REMARK   51  A    between atoms: C42_72  and  C43_73
REMARK   52  A    between atoms: C43_73  and  C44_74
REMARK   53  A    between atoms: C43_73  and  C45_75
REMARK   54  A    between atoms: C46_76  and  O19_77
REMARK   55  A    between atoms: C46_76  and  C47_78
REMARK   56  A    between atoms: C47_78  and  C48_79
REMARK   57  A    between atoms: N13_81  and  C49_82
REMARK   58  A    between atoms: C49_82  and  C50_83
REMARK   59  A    between atoms: C49_82  and  C68_111
REMARK   60  A    between atoms: N14_85  and  C51_86
REMARK   61  A    between atoms: C51_86  and  C52_87
REMARK   62  A    between atoms: C51_86  and  C53_88
REMARK   63  A    between atoms: N15_90  and  C54_91
REMARK   64  A    between atoms: C54_91  and  C55_92
REMARK   65  A    between atoms: C54_91  and  C58_97
REMARK   66  A    between atoms: C55_92  and  C56_93
REMARK   67  A    between atoms: C56_93  and  C57_94
REMARK   68  A    between atoms: C57_94  and  O24_96
REMARK   69  A    between atoms: N16_99  and  C59_100
REMARK   70  A    between atoms: C59_100  and  C60_101
REMARK   71  A    between atoms: C59_100  and  C67_108
REMARK   72  A    between atoms: C60_101  and  C61_102
REMARK   73  A    between atoms: C67_108  and  O27_110
REMARK   74  A    between atoms: C68_111  and  C69_112
REMARK   75  A    between atoms: C68_111  and  C70_113
REMARK   76  A    between atoms: C71_114  and  C72_115
REMARK   77  A    between atoms: C71_114  and  C73_116
REMARK                            x       y       z     vdW  Elec       q    Type
REMARK                         _______ _______ _______ _____ _____    ______ ____
ROOT
ATOM      1  C34 UNL     1      -0.488  -0.481  -1.807  0.00  0.00    +0.234 C 
ATOM      2  O15 UNL     1      -0.279  -0.001  -0.695  0.00  0.00    -0.274 OA
ATOM      3  N9  UNL     1       0.045   0.040  -2.971  0.00  0.00    -0.302 N 
ATOM      4  H58 UNL     1      -0.240  -0.360  -3.864  0.00  0.00    +0.150 HD
ENDROOT
BRANCH   1   5
ATOM      5  C30 UNL     1      -1.405  -1.704  -2.013  0.00  0.00    +0.159 C 
BRANCH   5   8
ATOM      6  C29 UNL     1      -0.667  -3.596  -0.574  0.00  0.00    +0.236 C 
ATOM      7  O12 UNL     1       0.105  -4.033  -1.424  0.00  0.00    -0.274 OA
ATOM      8  N8  UNL     1      -1.452  -2.486  -0.788  0.00  0.00    -0.302 N 
ATOM      9  H51 UNL     1      -1.834  -2.029   0.041  0.00  0.00    +0.150 HD
BRANCH   6  10
ATOM     10  C27 UNL     1      -0.789  -4.213   0.836  0.00  0.00    +0.184 C 
BRANCH  10  13
ATOM     11  C26 UNL     1       1.266  -4.002   2.202  0.00  0.00    +0.234 C 
ATOM     12  O10 UNL     1       1.653  -5.133   1.883  0.00  0.00    -0.274 OA
ATOM     13  N7  UNL     1       0.070  -3.488   1.769  0.00  0.00    -0.301 N 
ATOM     14  H46 UNL     1      -0.231  -2.561   2.048  0.00  0.00    +0.150 HD
BRANCH  11  15
ATOM     15  C5  UNL     1       2.115  -3.076   3.103  0.00  0.00    +0.162 C 
BRANCH  15  16
ATOM     16  N1  UNL     1       3.063  -3.961   3.790  0.00  0.00    -0.302 N 
ATOM     17  C6  UNL     1       2.858  -4.366   5.091  0.00  0.00    +0.234 C 
ATOM     18  O1  UNL     1       2.035  -3.845   5.846  0.00  0.00    -0.274 OA
ATOM     19  H11 UNL     1       3.531  -4.624   3.177  0.00  0.00    +0.150 HD
BRANCH  17  20
ATOM     20  C7  UNL     1       3.703  -5.581   5.508  0.00  0.00    +0.159 C 
BRANCH  20  21
ATOM     21  N2  UNL     1       3.839  -5.605   6.960  0.00  0.00    -0.302 N 
ATOM     22  C11 UNL     1       5.062  -5.411   7.562  0.00  0.00    +0.234 C 
ATOM     23  O4  UNL     1       6.093  -5.171   6.933  0.00  0.00    -0.274 OA
ATOM     24  H18 UNL     1       3.017  -5.319   7.497  0.00  0.00    +0.150 HD
BRANCH  22  25
ATOM     25  C12 UNL     1       5.060  -5.430   9.103  0.00  0.00    +0.159 C 
BRANCH  25  26
ATOM     26  N3  UNL     1       4.768  -4.091   9.611  0.00  0.00    -0.302 N 
ATOM     27  C16 UNL     1       3.495  -3.576   9.724  0.00  0.00    +0.236 C 
ATOM     28  O7  UNL     1       2.494  -4.237   9.455  0.00  0.00    -0.274 OA
ATOM     29  H25 UNL     1       5.520  -3.418   9.498  0.00  0.00    +0.150 HD
BRANCH  27  30
ATOM     30  C17 UNL     1       3.422  -2.134  10.274  0.00  0.00    +0.187 C 
BRANCH  30  31
ATOM     31  N4  UNL     1       2.063  -1.636  10.028  0.00  0.00    -0.301 N 
ATOM     32  C18 UNL     1       1.763  -0.860   8.928  0.00  0.00    +0.231 C 
ATOM     33  O8  UNL     1       2.618  -0.330   8.224  0.00  0.00    -0.274 OA
ATOM     34  H27 UNL     1       1.284  -2.225  10.328  0.00  0.00    +0.150 HD
BRANCH  32  35
ATOM     35  C19 UNL     1       0.244  -0.770   8.650  0.00  0.00    +0.138 C 
BRANCH  35  36
ATOM     36  N5  UNL     1      -0.524  -0.968   9.907  0.00  0.00    -0.320 NA
ATOM     37  H29 UNL     1      -1.520  -0.939   9.679  0.00  0.00    +0.119 HD
ATOM     38  H30 UNL     1      -0.368  -0.166  10.518  0.00  0.00    +0.119 HD
ENDBRANCH  35  36
BRANCH  35  39
ATOM     39  C20 UNL     1      -0.150   0.515   7.907  0.00  0.00    +0.028 C 
BRANCH  39  40
ATOM     40  C21 UNL     1       0.101   1.816   8.686  0.00  0.00    +0.003 C 
BRANCH  40  41
ATOM     41  C22 UNL     1      -0.313   3.034   7.851  0.00  0.00    +0.015 C 
BRANCH  41  42
ATOM     42  C23 UNL     1       0.036   4.374   8.501  0.00  0.00    +0.077 C 
BRANCH  42  43
ATOM     43  N6  UNL     1      -0.665   4.585   9.767  0.00  0.00    -0.330 NA
ATOM     44  H39 UNL     1      -0.305   3.939  10.466  0.00  0.00    +0.118 HD
ATOM     45  H40 UNL     1      -0.440   5.517  10.118  0.00  0.00    +0.118 HD
ENDBRANCH  42  43
ENDBRANCH  41  42
ENDBRANCH  40  41
ENDBRANCH  39  40
ENDBRANCH  35  39
ENDBRANCH  32  35
ENDBRANCH  30  31
BRANCH  30  46
ATOM     46  C24 UNL     1       3.719  -2.083  11.790  0.00  0.00    +0.141 C 
ATOM     47  C25 UNL     1       5.192  -2.257  12.141  0.00  0.00    +0.040 C 
BRANCH  46  48
ATOM     48  O9  UNL     1       3.330  -0.798  12.309  0.00  0.00    -0.390 OA
ATOM     49  H45 UNL     1       2.432  -0.639  11.965  0.00  0.00    +0.210 HD
ENDBRANCH  46  48
ENDBRANCH  30  46
ENDBRANCH  27  30
ENDBRANCH  25  26
BRANCH  25  50
ATOM     50  C13 UNL     1       4.233  -6.586   9.686  0.00  0.00    +0.043 C 
BRANCH  50  51
ATOM     51  C14 UNL     1       4.343  -6.688  11.204  0.00  0.00    +0.123 C 
BRANCH  51  52
ATOM     52  C15 UNL     1       3.430  -7.757  11.727  0.00  0.00    +0.305 C 
ATOM     53  O5  UNL     1       2.403  -7.582  12.361  0.00  0.00    -0.251 OA
BRANCH  52  54
ATOM     54  O6  UNL     1       3.855  -8.999  11.430  0.00  0.00    -0.481 OA
ATOM     55  H24 UNL     1       3.169  -9.583  11.821  0.00  0.00    +0.295 HD
ENDBRANCH  52  54
ENDBRANCH  51  52
ENDBRANCH  50  51
ENDBRANCH  25  50
ENDBRANCH  22  25
ENDBRANCH  20  21
BRANCH  20  56
ATOM     56  C8  UNL     1       3.023  -6.863   5.000  0.00  0.00    +0.043 C 
BRANCH  56  57
ATOM     57  C9  UNL     1       3.699  -8.157   5.460  0.00  0.00    +0.123 C 
BRANCH  57  58
ATOM     58  C10 UNL     1       5.163  -8.254   5.126  0.00  0.00    +0.305 C 
ATOM     59  O2  UNL     1       6.009  -8.820   5.800  0.00  0.00    -0.251 OA
BRANCH  58  60
ATOM     60  O3  UNL     1       5.480  -7.721   3.932  0.00  0.00    -0.481 OA
ATOM     61  H17 UNL     1       6.449  -7.869   3.857  0.00  0.00    +0.295 HD
ENDBRANCH  58  60
ENDBRANCH  57  58
ENDBRANCH  56  57
ENDBRANCH  20  56
ENDBRANCH  17  20
ENDBRANCH  15  16
BRANCH  15  62
ATOM     62  C3  UNL     1       2.883  -1.978   2.330  0.00  0.00    +0.015 C 
ATOM     63  C4  UNL     1       3.596  -2.523   1.083  0.00  0.00    +0.010 C 
BRANCH  62  65
ATOM     64  C1  UNL     1       1.393  -0.019   3.100  0.00  0.00    +0.004 C 
ATOM     65  C2  UNL     1       2.020  -0.765   1.931  0.00  0.00    +0.002 C 
ENDBRANCH  62  65
ENDBRANCH  15  62
ENDBRANCH  11  15
ENDBRANCH  10  13
BRANCH  10  66
ATOM     66  C28 UNL     1      -2.241  -4.236   1.331  0.00  0.00    +0.187 C 
BRANCH  66  67
ATOM     67  O11 UNL     1      -2.685  -2.906   1.631  0.00  0.00    -0.393 OA
ATOM     68  H50 UNL     1      -3.631  -2.858   1.359  0.00  0.00    +0.209 HD
ENDBRANCH  66  67
ENDBRANCH  10  66
ENDBRANCH   6  10
ENDBRANCH   5   8
BRANCH   5  69
ATOM     69  C31 UNL     1      -2.806  -1.220  -2.395  0.00  0.00    +0.043 C 
BRANCH  69  70
ATOM     70  C32 UNL     1      -3.730  -2.342  -2.865  0.00  0.00    +0.123 C 
BRANCH  70  71
ATOM     71  C33 UNL     1      -4.391  -3.099  -1.743  0.00  0.00    +0.305 C 
ATOM     72  O13 UNL     1      -4.472  -2.785  -0.567  0.00  0.00    -0.251 OA
BRANCH  71  73
ATOM     73  O14 UNL     1      -4.974  -4.235  -2.187  0.00  0.00    -0.481 OA
ATOM     74  H57 UNL     1      -5.426  -4.610  -1.404  0.00  0.00    +0.295 HD
ENDBRANCH  71  73
ENDBRANCH  70  71
ENDBRANCH  69  70
ENDBRANCH   5  69
ENDBRANCH   1   5
BRANCH   3  75
ATOM     75  C35 UNL     1       0.972   1.174  -2.956  0.00  0.00    +0.161 C 
BRANCH  75  76
ATOM     76  C36 UNL     1       0.616   2.101  -4.167  0.00  0.00    +0.234 C 
ATOM     77  O16 UNL     1      -0.471   2.676  -4.243  0.00  0.00    -0.274 OA
ATOM     78  N10 UNL     1       1.571   2.178  -5.167  0.00  0.00    -0.302 N 
ATOM     79  H60 UNL     1       2.126   1.346  -5.296  0.00  0.00    +0.150 HD
BRANCH  78  80
ATOM     80  C37 UNL     1       1.384   2.974  -6.390  0.00  0.00    +0.168 C 
BRANCH  80  81
ATOM     81  C40 UNL     1       1.044   1.940  -7.494  0.00  0.00    +0.234 C 
ATOM     82  O18 UNL     1       0.372   0.942  -7.238  0.00  0.00    -0.274 OA
ATOM     83  N12 UNL     1       1.494   2.178  -8.769  0.00  0.00    -0.308 N 
ATOM     84  H66 UNL     1       2.358   2.689  -8.884  0.00  0.00    +0.149 HD
BRANCH  83  85
ATOM     85  C41 UNL     1       1.133   1.315  -9.912  0.00  0.00    +0.102 C 
BRANCH  85  86
ATOM     86  C42 UNL     1       1.264   2.181 -11.196  0.00  0.00    +0.028 C 
BRANCH  86  87
ATOM     87  C43 UNL     1       0.138   1.992 -12.234  0.00  0.00    -0.015 C 
ATOM     88  C44 UNL     1       0.350   2.977 -13.388  0.00  0.00    +0.007 C 
ATOM     89  C45 UNL     1       0.050   0.573 -12.787  0.00  0.00    +0.007 C 
ENDBRANCH  86  87
ENDBRANCH  85  86
BRANCH  85  90
ATOM     90  C46 UNL     1       2.036   0.041  -9.998  0.00  0.00    +0.143 C 
BRANCH  90  91
ATOM     91  O19 UNL     1       3.422   0.445  -9.956  0.00  0.00    -0.389 OA
ATOM     92  H78 UNL     1       3.716   0.544 -10.880  0.00  0.00    +0.210 HD
ENDBRANCH  90  91
BRANCH  90  93
ATOM     93  C47 UNL     1       1.842  -1.016  -8.905  0.00  0.00    +0.129 C 
BRANCH  93  94
ATOM     94  C48 UNL     1       0.430  -1.567  -8.862  0.00  0.00    +0.216 C 
ATOM     95  O20 UNL     1      -0.375  -1.417  -9.776  0.00  0.00    -0.276 OA
ATOM     96  N13 UNL     1       0.149  -2.295  -7.723  0.00  0.00    -0.304 N 
ATOM     97  H81 UNL     1       0.779  -2.157  -6.942  0.00  0.00    +0.149 HD
BRANCH  96  98
ATOM     98  C49 UNL     1      -1.248  -2.531  -7.341  0.00  0.00    +0.161 C 
BRANCH  98  99
ATOM     99  C50 UNL     1      -1.584  -1.374  -6.365  0.00  0.00    +0.234 C 
ATOM    100  O21 UNL     1      -1.006  -1.227  -5.286  0.00  0.00    -0.274 OA
ATOM    101  N14 UNL     1      -2.459  -0.443  -6.876  0.00  0.00    -0.303 N 
ATOM    102  H83 UNL     1      -2.992  -0.645  -7.715  0.00  0.00    +0.149 HD
BRANCH 101 103
ATOM    103  C51 UNL     1      -2.626   0.867  -6.262  0.00  0.00    +0.156 C 
ATOM    104  C52 UNL     1      -2.820   1.941  -7.328  0.00  0.00    +0.038 C 
BRANCH 103 105
ATOM    105  C53 UNL     1      -3.810   0.910  -5.283  0.00  0.00    +0.234 C 
ATOM    106  O22 UNL     1      -4.789   0.171  -5.372  0.00  0.00    -0.274 OA
ATOM    107  N15 UNL     1      -3.681   1.891  -4.314  0.00  0.00    -0.302 N 
ATOM    108  H88 UNL     1      -2.897   2.534  -4.413  0.00  0.00    +0.150 HD
BRANCH 107 109
ATOM    109  C54 UNL     1      -4.821   2.365  -3.533  0.00  0.00    +0.159 C 
BRANCH 109 110
ATOM    110  C58 UNL     1      -5.259   3.741  -4.104  0.00  0.00    +0.234 C 
ATOM    111  O25 UNL     1      -4.873   4.151  -5.200  0.00  0.00    -0.274 OA
ATOM    112  N16 UNL     1      -6.170   4.456  -3.350  0.00  0.00    -0.301 N 
ATOM    113  H95 UNL     1      -6.154   4.313  -2.349  0.00  0.00    +0.150 HD
BRANCH 112 114
ATOM    114  C59 UNL     1      -6.549   5.809  -3.769  0.00  0.00    +0.186 C 
BRANCH 114 115
ATOM    115  C67 UNL     1      -5.426   6.788  -3.421  0.00  0.00    +0.326 C 
ATOM    116  O26 UNL     1      -4.511   6.603  -2.631  0.00  0.00    -0.249 OA
BRANCH 115 117
ATOM    117  O27 UNL     1      -5.522   7.962  -4.083  0.00  0.00    -0.479 OA
ATOM    118  HA4 UNL     1      -4.715   8.447  -3.805  0.00  0.00    +0.295 HD
ENDBRANCH 115 117
ENDBRANCH 114 115
BRANCH 114 119
ATOM    119  C60 UNL     1      -7.885   6.259  -3.156  0.00  0.00    +0.069 C 
BRANCH 119 120
ATOM    120  C61 UNL     1      -7.900   6.339  -1.646  0.00  0.00    -0.045 A 
ATOM    121  C62 UNL     1      -8.307   5.240  -0.876  0.00  0.00    +0.004 A 
ATOM    122  C63 UNL     1      -8.275   5.304   0.518  0.00  0.00    +0.000 A 
ATOM    123  C64 UNL     1      -7.841   6.464   1.157  0.00  0.00    +0.000 A 
ATOM    124  C65 UNL     1      -7.450   7.567   0.401  0.00  0.00    +0.000 A 
ATOM    125  C66 UNL     1      -7.482   7.509  -0.994  0.00  0.00    +0.004 A 
ENDBRANCH 119 120
ENDBRANCH 114 119
ENDBRANCH 112 114
ENDBRANCH 109 110
BRANCH 109 126
ATOM    126  C55 UNL     1      -4.499   2.355  -2.036  0.00  0.00    +0.043 C 
BRANCH 126 127
ATOM    127  C56 UNL     1      -3.289   3.205  -1.644  0.00  0.00    +0.123 C 
BRANCH 127 128
ATOM    128  C57 UNL     1      -3.174   3.311  -0.148  0.00  0.00    +0.305 C 
ATOM    129  O23 UNL     1      -4.023   3.013   0.676  0.00  0.00    -0.251 OA
BRANCH 128 130
ATOM    130  O24 UNL     1      -1.991   3.824   0.241  0.00  0.00    -0.481 OA
ATOM    131  H94 UNL     1      -2.047   3.858   1.217  0.00  0.00    +0.295 HD
ENDBRANCH 128 130
ENDBRANCH 127 128
ENDBRANCH 126 127
ENDBRANCH 109 126
ENDBRANCH 107 109
ENDBRANCH 103 105
ENDBRANCH 101 103
ENDBRANCH  98  99
BRANCH  98 132
ATOM    132  C68 UNL     1      -1.451  -3.946  -6.765  0.00  0.00    +0.012 C 
ATOM    133  C69 UNL     1      -0.692  -4.241  -5.469  0.00  0.00    +0.009 C 
ATOM    134  C70 UNL     1      -2.943  -4.245  -6.584  0.00  0.00    +0.009 C 
ENDBRANCH  98 132
ENDBRANCH  96  98
ENDBRANCH  93  94
ENDBRANCH  90  93
ENDBRANCH  85  90
ENDBRANCH  83  85
ENDBRANCH  80  81
BRANCH  80 135
ATOM    135  C38 UNL     1       2.640   3.797  -6.674  0.00  0.00    +0.127 C 
BRANCH 135 136
ATOM    136  C39 UNL     1       2.863   4.881  -5.642  0.00  0.00    +0.213 C 
ATOM    137  N11 UNL     1       4.125   5.405  -5.641  0.00  0.00    -0.329 N 
ATOM    138  O17 UNL     1       2.004   5.327  -4.894  0.00  0.00    -0.276 OA
ATOM    139  H64 UNL     1       4.911   4.958  -6.095  0.00  0.00    +0.145 HD
ATOM    140  H65 UNL     1       4.325   6.092  -4.920  0.00  0.00    +0.145 HD
ENDBRANCH 135 136
ENDBRANCH  80 135
ENDBRANCH  78  80
ENDBRANCH  75  76
BRANCH  75 141
ATOM    141  C71 UNL     1       2.464   0.725  -2.870  0.00  0.00    +0.012 C 
ATOM    142  C72 UNL     1       3.367   1.917  -2.520  0.00  0.00    +0.009 C 
ATOM    143  C73 UNL     1       2.716  -0.386  -1.846  0.00  0.00    +0.009 C 
ENDBRANCH  75 141
ENDBRANCH   3  75
TORSDOF 67
