REMARK  Name = ligands/ligand_44.pdb
REMARK  34 active torsions:
REMARK  status: ('A' for Active; 'I' for Inactive)
REMARK    1  A    between atoms: C1_1  and  C2_2
REMARK    2  A    between atoms: C2_2  and  C3_3
REMARK    3  A    between atoms: C3_3  and  C4_4
REMARK    4  A    between atoms: C4_4  and  N1_5
REMARK    5  A    between atoms: C5_6  and  C6_8
REMARK    6  A    between atoms: C6_8  and  N2_9
REMARK    7  A    between atoms: C6_8  and  C30_43
REMARK    8  A    between atoms: C7_10  and  C8_12
REMARK    9  A    between atoms: C8_12  and  C9_13
REMARK   10  A    between atoms: C9_13  and  O3_14
REMARK   11  A    between atoms: C9_13  and  C10_15
REMARK   12  A    between atoms: C10_15  and  C11_16
REMARK   13  A    between atoms: C10_15  and  N3_20
REMARK   14  A    between atoms: C11_16  and  C12_17
REMARK   15  A    between atoms: C12_17  and  C13_18
REMARK   16  A    between atoms: C12_17  and  C14_19
REMARK   17  A    between atoms: C15_21  and  C16_23
REMARK   18  A    between atoms: C16_23  and  C17_24
REMARK   19  A    between atoms: C16_23  and  N4_28
REMARK   20  A    between atoms: C17_24  and  C18_25
REMARK   21  A    between atoms: C18_25  and  S1_26
REMARK   22  A    between atoms: S1_26  and  C19_27
REMARK   23  A    between atoms: C20_29  and  C21_31
REMARK   24  A    between atoms: C21_31  and  N5_32
REMARK   25  A    between atoms: C21_31  and  C27_40
REMARK   26  A    between atoms: C22_33  and  O7_35
REMARK   27  A    between atoms: O7_35  and  C23_36
REMARK   28  A    between atoms: C23_36  and  C24_37
REMARK   29  A    between atoms: C23_36  and  C25_38
REMARK   30  A    between atoms: C23_36  and  C26_39
REMARK   31  A    between atoms: C27_40  and  C28_41
REMARK   32  A    between atoms: C27_40  and  C29_42
REMARK   33  A    between atoms: C30_43  and  C31_44
REMARK   34  A    between atoms: C30_43  and  C32_45
REMARK                            x       y       z     vdW  Elec       q    Type
REMARK                         _______ _______ _______ _____ _____    ______ ____
ROOT
ATOM      1  N3  UNL     1      -2.204   1.449   2.608  0.00  0.00    -0.308 N 
ATOM      2  C15 UNL     1      -1.950   0.701   1.476  0.00  0.00    +0.234 C 
ATOM      3  O4  UNL     1      -1.352  -0.373   1.509  0.00  0.00    -0.274 OA
ATOM      4  H27 UNL     1      -2.560   2.390   2.491  0.00  0.00    +0.149 HD
ENDROOT
BRANCH   1   5
ATOM      5  C10 UNL     1      -1.614   1.104   3.912  0.00  0.00    +0.102 C 
BRANCH   5   6
ATOM      6  C11 UNL     1      -2.565   1.536   5.053  0.00  0.00    +0.028 C 
BRANCH   6   7
ATOM      7  C12 UNL     1      -3.901   0.771   5.200  0.00  0.00    -0.015 C 
ATOM      8  C13 UNL     1      -3.698  -0.729   5.420  0.00  0.00    +0.007 C 
ATOM      9  C14 UNL     1      -4.885   1.012   4.058  0.00  0.00    +0.007 C 
ENDBRANCH   6   7
ENDBRANCH   5   6
BRANCH   5  10
ATOM     10  C9  UNL     1      -0.199   1.773   4.033  0.00  0.00    +0.143 C 
BRANCH  10  11
ATOM     11  O3  UNL     1       0.231   2.012   5.375  0.00  0.00    -0.389 OA
ATOM     12  H16 UNL     1      -0.342   2.690   5.769  0.00  0.00    +0.210 HD
ENDBRANCH  10  11
BRANCH  10  13
ATOM     13  C8  UNL     1       0.926   1.046   3.287  0.00  0.00    +0.129 C 
BRANCH  13  15
ATOM     14  N2  UNL     1       2.129  -1.018   2.942  0.00  0.00    -0.304 N 
ATOM     15  C7  UNL     1       1.158  -0.397   3.710  0.00  0.00    +0.216 C 
ATOM     16  O2  UNL     1       0.591  -0.951   4.645  0.00  0.00    -0.276 OA
ATOM     17  H12 UNL     1       2.250  -0.644   2.007  0.00  0.00    +0.149 HD
BRANCH  14  18
ATOM     18  C6  UNL     1       2.356  -2.459   3.049  0.00  0.00    +0.161 C 
BRANCH  18  20
ATOM     19  N1  UNL     1       1.102  -4.384   2.153  0.00  0.00    -0.314 N 
ATOM     20  C5  UNL     1       1.588  -3.121   1.887  0.00  0.00    +0.234 C 
ATOM     21  O1  UNL     1       1.472  -2.577   0.789  0.00  0.00    -0.274 OA
ATOM     22  H10 UNL     1       1.033  -4.666   3.125  0.00  0.00    +0.149 HD
BRANCH  19  23
ATOM     23  C4  UNL     1       0.294  -5.095   1.185  0.00  0.00    +0.104 C 
BRANCH  23  24
ATOM     24  C3  UNL     1       1.140  -5.692   0.061  0.00  0.00    +0.018 C 
BRANCH  24  26
ATOM     25  C1  UNL     1       1.110  -7.042  -2.064  0.00  0.00    +0.004 C 
ATOM     26  C2  UNL     1       0.274  -6.458  -0.936  0.00  0.00    -0.002 C 
ENDBRANCH  24  26
ENDBRANCH  23  24
ENDBRANCH  19  23
ENDBRANCH  18  20
BRANCH  18  27
ATOM     27  C30 UNL     1       3.867  -2.783   3.031  0.00  0.00    +0.012 C 
ATOM     28  C31 UNL     1       4.562  -2.423   1.713  0.00  0.00    +0.009 C 
ATOM     29  C32 UNL     1       4.142  -4.248   3.381  0.00  0.00    +0.009 C 
ENDBRANCH  18  27
ENDBRANCH  14  18
ENDBRANCH  13  15
ENDBRANCH  10  13
ENDBRANCH   5  10
ENDBRANCH   1   5
BRANCH   2  30
ATOM     30  C16 UNL     1      -2.506   1.295   0.165  0.00  0.00    +0.160 C 
BRANCH  30  31
ATOM     31  N4  UNL     1      -1.780   0.663  -0.925  0.00  0.00    -0.302 N 
ATOM     32  C20 UNL     1      -0.771   1.314  -1.599  0.00  0.00    +0.234 C 
ATOM     33  O5  UNL     1      -0.526   2.509  -1.431  0.00  0.00    -0.274 OA
ATOM     34  H36 UNL     1      -1.769  -0.351  -0.916  0.00  0.00    +0.150 HD
BRANCH  32  35
ATOM     35  C21 UNL     1       0.049   0.415  -2.551  0.00  0.00    +0.165 C 
BRANCH  35  36
ATOM     36  N5  UNL     1       0.745   1.269  -3.501  0.00  0.00    -0.270 N 
ATOM     37  C22 UNL     1       0.335   1.404  -4.791  0.00  0.00    +0.401 C 
ATOM     38  O6  UNL     1      -0.493   0.700  -5.346  0.00  0.00    -0.226 OA
ATOM     39  H38 UNL     1       1.231   2.077  -3.135  0.00  0.00    +0.153 HD
BRANCH  37  40
ATOM     40  O7  UNL     1       0.999   2.443  -5.344  0.00  0.00    -0.445 OA
BRANCH  40  41
ATOM     41  C23 UNL     1       0.795   2.794  -6.737  0.00  0.00    +0.107 C 
ATOM     42  C24 UNL     1      -0.651   3.226  -7.001  0.00  0.00    +0.055 C 
ATOM     43  C25 UNL     1       1.719   4.000  -6.976  0.00  0.00    +0.055 C 
ATOM     44  C26 UNL     1       1.230   1.655  -7.667  0.00  0.00    +0.055 C 
ENDBRANCH  40  41
ENDBRANCH  37  40
ENDBRANCH  35  36
BRANCH  35  45
ATOM     45  C27 UNL     1       1.012  -0.493  -1.759  0.00  0.00    +0.012 C 
ATOM     46  C28 UNL     1       2.120   0.282  -1.036  0.00  0.00    +0.009 C 
ATOM     47  C29 UNL     1       1.629  -1.561  -2.667  0.00  0.00    +0.009 C 
ENDBRANCH  35  45
ENDBRANCH  32  35
ENDBRANCH  30  31
BRANCH  30  48
ATOM     48  C17 UNL     1      -4.021   1.066   0.077  0.00  0.00    +0.042 C 
BRANCH  48  49
ATOM     49  C18 UNL     1      -4.643   1.596  -1.218  0.00  0.00    +0.071 C 
BRANCH  49  50
ATOM     50  S1  UNL     1      -4.614   0.352  -2.550  0.00  0.00    -0.164 S 
ATOM     51  C19 UNL     1      -4.931   1.445  -3.955  0.00  0.00    +0.084 C 
ENDBRANCH  49  50
ENDBRANCH  48  49
ENDBRANCH  30  48
ENDBRANCH   2  30
TORSDOF 23
