AutoDock-GPU version: v1.6

**********************************************************
**    AutoDock-GPU AUTODOCKTOOLS-COMPATIBLE DLG FILE    **
**********************************************************


    DOCKING PARAMETERS
    ________________________


Ligand file:                               ligands/ligand_19.pdbqt
Grid fld file:                             protein.maps.fld

Random seed:                               1770972629, 27781
Number of runs:                            20
Number of energy evaluations:              10787270
Number of generations:                     42000
Size of population:                        150
Rate of crossover:                         80.000000%
Tournament selection probability limit:    60.000000%
Rate of mutation:                          2.000000%
Maximal allowed delta movement:            +/- 6.000000A
Maximal allowed delta angle:               +/- 90.000000

Rate of local search:                      100.000000%
Maximal number of local search iterations: 300
Rho lower bound:                           0.010000
Spread of local search delta movement:     2.000000A
Spread of local search delta angle:        74.999999
Limit of consecutive successes/failures:   4

Handle symmetry during clustering:         YES
RMSD tolerance:                            2.000000A

Program call in command line was:          ./autodock-gpu --ffile protein.maps.fld --lfile ligands/ligand_19.pdbqt --nrun 20 


    GRID PARAMETERS
    ________________________


Receptor name:                             #MACROMOLECULE
Number of grid points (x, y, z):           61, 61, 61
Grid center (x, y, z):                     10.261000, -3.492000, -0.127000A
Grid size (x, y, z):                       22.500000, 22.500000, 22.500000A
Grid spacing:                              0.375000A


    LIGAND PARAMETERS
    ________________________


Ligand name:                               ligands/ligand_19
Number of atoms:                           59
Number of rotatable bonds:                 24
Number of atom types:                      7


    DUMMY DATA (only for ADT-compatibility)
    ________________________


DPF> outlev 1
DPF> ga_run 20
DPF> fld protein.maps.fld
DPF> move ligands/ligand_19.pdbqt


    COUNTER STATES
    ________________________


Number of energy evaluations performed:    8493225
Number of generations used:                330


    INPUT LIGAND PDBQT FILE:
    ________________________


INPUT-LIGAND-PDBQT: REMARK  Name = ligands/ligand_19.pdb
INPUT-LIGAND-PDBQT: REMARK  32 active torsions:
INPUT-LIGAND-PDBQT: REMARK  status: ('A' for Active; 'I' for Inactive)
INPUT-LIGAND-PDBQT: REMARK    1  A    between atoms: C1_1  and  C2_2
INPUT-LIGAND-PDBQT: REMARK    2  A    between atoms: C2_2  and  C3_3
INPUT-LIGAND-PDBQT: REMARK    3  A    between atoms: C3_3  and  C4_4
INPUT-LIGAND-PDBQT: REMARK    4  A    between atoms: C4_4  and  N1_5
INPUT-LIGAND-PDBQT: REMARK    5  A    between atoms: C4_4  and  C10_13
INPUT-LIGAND-PDBQT: REMARK    6  A    between atoms: C5_6  and  O2_8
INPUT-LIGAND-PDBQT: REMARK    7  A    between atoms: O2_8  and  C6_9
INPUT-LIGAND-PDBQT: REMARK    8  A    between atoms: C6_9  and  C7_10
INPUT-LIGAND-PDBQT: REMARK    9  A    between atoms: C6_9  and  C8_11
INPUT-LIGAND-PDBQT: REMARK   10  A    between atoms: C6_9  and  C9_12
INPUT-LIGAND-PDBQT: REMARK   11  A    between atoms: N2_15  and  C11_16
INPUT-LIGAND-PDBQT: REMARK   12  A    between atoms: C11_16  and  C12_17
INPUT-LIGAND-PDBQT: REMARK   13  A    between atoms: C11_16  and  C15_21
INPUT-LIGAND-PDBQT: REMARK   14  A    between atoms: C12_17  and  C13_18
INPUT-LIGAND-PDBQT: REMARK   15  A    between atoms: C13_18  and  S1_19
INPUT-LIGAND-PDBQT: REMARK   16  A    between atoms: S1_19  and  C14_20
INPUT-LIGAND-PDBQT: REMARK   17  A    between atoms: N3_23  and  C16_24
INPUT-LIGAND-PDBQT: REMARK   18  A    between atoms: C16_24  and  C17_25
INPUT-LIGAND-PDBQT: REMARK   19  A    between atoms: C16_24  and  C24_32
INPUT-LIGAND-PDBQT: REMARK   20  A    between atoms: C17_25  and  C18_26
INPUT-LIGAND-PDBQT: REMARK   21  A    between atoms: C24_32  and  O5_33
INPUT-LIGAND-PDBQT: REMARK   22  A    between atoms: C24_32  and  C25_34
INPUT-LIGAND-PDBQT: REMARK   23  A    between atoms: C25_34  and  C26_35
INPUT-LIGAND-PDBQT: REMARK   24  A    between atoms: C26_35  and  C27_36
INPUT-LIGAND-PDBQT: REMARK   25  A    between atoms: C26_35  and  C28_37
INPUT-LIGAND-PDBQT: REMARK   26  A    between atoms: N4_39  and  C29_40
INPUT-LIGAND-PDBQT: REMARK   27  A    between atoms: C29_40  and  C30_41
INPUT-LIGAND-PDBQT: REMARK   28  A    between atoms: C29_40  and  C37_51
INPUT-LIGAND-PDBQT: REMARK   29  A    between atoms: N5_43  and  C31_44
INPUT-LIGAND-PDBQT: REMARK   30  A    between atoms: C31_44  and  C32_45
INPUT-LIGAND-PDBQT: REMARK   31  A    between atoms: C37_51  and  C38_52
INPUT-LIGAND-PDBQT: REMARK   32  A    between atoms: C37_51  and  C39_53
INPUT-LIGAND-PDBQT: REMARK                            x       y       z     vdW  Elec       q    Type
INPUT-LIGAND-PDBQT: REMARK                         _______ _______ _______ _____ _____    ______ ____
INPUT-LIGAND-PDBQT: ROOT
INPUT-LIGAND-PDBQT: ATOM      1  C16 UNL     1       0.102  -3.131  -1.775  0.00  0.00    +0.106 C 
INPUT-LIGAND-PDBQT: ENDROOT
INPUT-LIGAND-PDBQT: BRANCH   1   4
INPUT-LIGAND-PDBQT: ATOM      2  C15 UNL     1       1.792  -1.451  -1.070  0.00  0.00    +0.234 C 
INPUT-LIGAND-PDBQT: ATOM      3  O4  UNL     1       2.705  -2.031  -1.656  0.00  0.00    -0.274 OA
INPUT-LIGAND-PDBQT: ATOM      4  N3  UNL     1       0.474  -1.862  -1.131  0.00  0.00    -0.308 N 
INPUT-LIGAND-PDBQT: ATOM      5  H28 UNL     1      -0.154  -1.487  -0.430  0.00  0.00    +0.149 HD
INPUT-LIGAND-PDBQT: BRANCH   2   6
INPUT-LIGAND-PDBQT: ATOM      6  C11 UNL     1       2.019  -0.175  -0.235  0.00  0.00    +0.160 C 
INPUT-LIGAND-PDBQT: BRANCH   6   9
INPUT-LIGAND-PDBQT: ATOM      7  C10 UNL     1       3.891  -0.505   1.336  0.00  0.00    +0.234 C 
INPUT-LIGAND-PDBQT: ATOM      8  O3  UNL     1       3.141  -0.643   2.303  0.00  0.00    -0.274 OA
INPUT-LIGAND-PDBQT: ATOM      9  N2  UNL     1       3.437  -0.110   0.092  0.00  0.00    -0.302 N 
INPUT-LIGAND-PDBQT: ATOM     10  H19 UNL     1       4.077  -0.213  -0.693  0.00  0.00    +0.150 HD
INPUT-LIGAND-PDBQT: BRANCH   7  11
INPUT-LIGAND-PDBQT: ATOM     11  C4  UNL     1       5.420  -0.642   1.444  0.00  0.00    +0.162 C 
INPUT-LIGAND-PDBQT: BRANCH  11  12
INPUT-LIGAND-PDBQT: ATOM     12  N1  UNL     1       5.846   0.522   2.209  0.00  0.00    -0.270 N 
INPUT-LIGAND-PDBQT: ATOM     13  C5  UNL     1       6.182   1.691   1.590  0.00  0.00    +0.401 C 
INPUT-LIGAND-PDBQT: ATOM     14  O1  UNL     1       6.417   1.806   0.397  0.00  0.00    -0.226 OA
INPUT-LIGAND-PDBQT: ATOM     15  H9  UNL     1       5.481   0.634   3.146  0.00  0.00    +0.153 HD
INPUT-LIGAND-PDBQT: BRANCH  13  16
INPUT-LIGAND-PDBQT: ATOM     16  O2  UNL     1       6.197   2.677   2.514  0.00  0.00    -0.445 OA
INPUT-LIGAND-PDBQT: BRANCH  16  17
INPUT-LIGAND-PDBQT: ATOM     17  C6  UNL     1       6.573   4.032   2.148  0.00  0.00    +0.107 C 
INPUT-LIGAND-PDBQT: ATOM     18  C7  UNL     1       8.042   4.082   1.704  0.00  0.00    +0.055 C 
INPUT-LIGAND-PDBQT: ATOM     19  C8  UNL     1       5.622   4.624   1.096  0.00  0.00    +0.055 C 
INPUT-LIGAND-PDBQT: ATOM     20  C9  UNL     1       6.417   4.841   3.445  0.00  0.00    +0.055 C 
INPUT-LIGAND-PDBQT: ENDBRANCH  16  17
INPUT-LIGAND-PDBQT: ENDBRANCH  13  16
INPUT-LIGAND-PDBQT: ENDBRANCH  11  12
INPUT-LIGAND-PDBQT: BRANCH  11  21
INPUT-LIGAND-PDBQT: ATOM     21  C3  UNL     1       5.836  -1.928   2.167  0.00  0.00    +0.031 C 
INPUT-LIGAND-PDBQT: BRANCH  21  23
INPUT-LIGAND-PDBQT: ATOM     22  C1  UNL     1       4.274  -3.765   1.309  0.00  0.00    +0.004 C 
INPUT-LIGAND-PDBQT: ATOM     23  C2  UNL     1       5.684  -3.194   1.316  0.00  0.00    -0.001 C 
INPUT-LIGAND-PDBQT: ENDBRANCH  21  23
INPUT-LIGAND-PDBQT: ENDBRANCH  11  21
INPUT-LIGAND-PDBQT: ENDBRANCH   7  11
INPUT-LIGAND-PDBQT: ENDBRANCH   6   9
INPUT-LIGAND-PDBQT: BRANCH   6  24
INPUT-LIGAND-PDBQT: ATOM     24  C12 UNL     1       1.556   1.055  -1.019  0.00  0.00    +0.042 C 
INPUT-LIGAND-PDBQT: BRANCH  24  25
INPUT-LIGAND-PDBQT: ATOM     25  C13 UNL     1       1.649   2.314  -0.157  0.00  0.00    +0.071 C 
INPUT-LIGAND-PDBQT: BRANCH  25  26
INPUT-LIGAND-PDBQT: ATOM     26  S1  UNL     1       0.944   3.766  -1.006  0.00  0.00    -0.164 S 
INPUT-LIGAND-PDBQT: ATOM     27  C14 UNL     1      -0.818   3.471  -0.701  0.00  0.00    +0.084 C 
INPUT-LIGAND-PDBQT: ENDBRANCH  25  26
INPUT-LIGAND-PDBQT: ENDBRANCH  24  25
INPUT-LIGAND-PDBQT: ENDBRANCH   6  24
INPUT-LIGAND-PDBQT: ENDBRANCH   2   6
INPUT-LIGAND-PDBQT: ENDBRANCH   1   4
INPUT-LIGAND-PDBQT: BRANCH   1  28
INPUT-LIGAND-PDBQT: ATOM     28  C24 UNL     1      -1.305  -3.008  -2.432  0.00  0.00    +0.136 C 
INPUT-LIGAND-PDBQT: BRANCH  28  29
INPUT-LIGAND-PDBQT: ATOM     29  O5  UNL     1      -1.596  -4.104  -3.293  0.00  0.00    -0.390 OA
INPUT-LIGAND-PDBQT: ATOM     30  H38 UNL     1      -0.764  -4.496  -3.611  0.00  0.00    +0.210 HD
INPUT-LIGAND-PDBQT: ENDBRANCH  28  29
INPUT-LIGAND-PDBQT: BRANCH  28  31
INPUT-LIGAND-PDBQT: ATOM     31  C25 UNL     1      -2.452  -2.871  -1.417  0.00  0.00    +0.045 C 
INPUT-LIGAND-PDBQT: BRANCH  31  32
INPUT-LIGAND-PDBQT: ATOM     32  C26 UNL     1      -3.764  -2.334  -2.031  0.00  0.00    +0.074 C 
INPUT-LIGAND-PDBQT: ATOM     33  C27 UNL     1      -4.499  -3.361  -2.889  0.00  0.00    +0.017 C 
INPUT-LIGAND-PDBQT: BRANCH  32  34
INPUT-LIGAND-PDBQT: ATOM     34  C28 UNL     1      -4.668  -1.838  -0.906  0.00  0.00    +0.217 C 
INPUT-LIGAND-PDBQT: ATOM     35  O6  UNL     1      -5.682  -2.421  -0.535  0.00  0.00    -0.276 OA
INPUT-LIGAND-PDBQT: ATOM     36  N4  UNL     1      -4.207  -0.684  -0.304  0.00  0.00    -0.304 N 
INPUT-LIGAND-PDBQT: ATOM     37  H45 UNL     1      -3.597  -0.099  -0.868  0.00  0.00    +0.149 HD
INPUT-LIGAND-PDBQT: BRANCH  36  38
INPUT-LIGAND-PDBQT: ATOM     38  C29 UNL     1      -5.041   0.057   0.642  0.00  0.00    +0.161 C 
INPUT-LIGAND-PDBQT: BRANCH  38  39
INPUT-LIGAND-PDBQT: ATOM     39  C30 UNL     1      -5.384   1.408  -0.016  0.00  0.00    +0.234 C 
INPUT-LIGAND-PDBQT: ATOM     40  O7  UNL     1      -4.708   1.867  -0.941  0.00  0.00    -0.274 OA
INPUT-LIGAND-PDBQT: ATOM     41  N5  UNL     1      -6.453   2.071   0.536  0.00  0.00    -0.310 N 
INPUT-LIGAND-PDBQT: ATOM     42  H47 UNL     1      -7.078   1.551   1.140  0.00  0.00    +0.149 HD
INPUT-LIGAND-PDBQT: BRANCH  41  43
INPUT-LIGAND-PDBQT: ATOM     43  C31 UNL     1      -6.955   3.307  -0.021  0.00  0.00    +0.139 C 
INPUT-LIGAND-PDBQT: BRANCH  43  44
INPUT-LIGAND-PDBQT: ATOM     44  C32 UNL     1      -8.168   3.061  -0.881  0.00  0.00    -0.027 A 
INPUT-LIGAND-PDBQT: ATOM     45  C33 UNL     1      -8.048   2.451  -2.134  0.00  0.00    +0.025 A 
INPUT-LIGAND-PDBQT: ATOM     46  C34 UNL     1      -9.195   2.238  -2.882  0.00  0.00    +0.111 A 
INPUT-LIGAND-PDBQT: ATOM     47  N6  UNL     1     -10.431   2.590  -2.476  0.00  0.00    -0.263 NA
INPUT-LIGAND-PDBQT: ATOM     48  C35 UNL     1     -10.527   3.175  -1.265  0.00  0.00    +0.111 A 
INPUT-LIGAND-PDBQT: ATOM     49  C36 UNL     1      -9.441   3.426  -0.441  0.00  0.00    +0.025 A 
INPUT-LIGAND-PDBQT: ENDBRANCH  43  44
INPUT-LIGAND-PDBQT: ENDBRANCH  41  43
INPUT-LIGAND-PDBQT: ENDBRANCH  38  39
INPUT-LIGAND-PDBQT: BRANCH  38  50
INPUT-LIGAND-PDBQT: ATOM     50  C37 UNL     1      -4.355   0.262   2.010  0.00  0.00    +0.012 C 
INPUT-LIGAND-PDBQT: ATOM     51  C38 UNL     1      -2.956   0.878   1.895  0.00  0.00    +0.009 C 
INPUT-LIGAND-PDBQT: ATOM     52  C39 UNL     1      -4.284  -1.062   2.776  0.00  0.00    +0.009 C 
INPUT-LIGAND-PDBQT: ENDBRANCH  38  50
INPUT-LIGAND-PDBQT: ENDBRANCH  36  38
INPUT-LIGAND-PDBQT: ENDBRANCH  32  34
INPUT-LIGAND-PDBQT: ENDBRANCH  31  32
INPUT-LIGAND-PDBQT: ENDBRANCH  28  31
INPUT-LIGAND-PDBQT: ENDBRANCH   1  28
INPUT-LIGAND-PDBQT: BRANCH   1  53
INPUT-LIGAND-PDBQT: ATOM     53  C17 UNL     1       0.264  -4.300  -0.773  0.00  0.00    +0.060 C 
INPUT-LIGAND-PDBQT: BRANCH  53  54
INPUT-LIGAND-PDBQT: ATOM     54  C18 UNL     1       0.396  -5.659  -1.415  0.00  0.00    -0.046 A 
INPUT-LIGAND-PDBQT: ATOM     55  C19 UNL     1       1.624  -6.075  -1.945  0.00  0.00    +0.004 A 
INPUT-LIGAND-PDBQT: ATOM     56  C20 UNL     1       1.745  -7.321  -2.563  0.00  0.00    +0.000 A 
INPUT-LIGAND-PDBQT: ATOM     57  C21 UNL     1       0.638  -8.162  -2.660  0.00  0.00    +0.000 A 
INPUT-LIGAND-PDBQT: ATOM     58  C22 UNL     1      -0.585  -7.761  -2.130  0.00  0.00    +0.000 A 
INPUT-LIGAND-PDBQT: ATOM     59  C23 UNL     1      -0.707  -6.519  -1.508  0.00  0.00    +0.004 A 
INPUT-LIGAND-PDBQT: ENDBRANCH  53  54
INPUT-LIGAND-PDBQT: ENDBRANCH   1  53
INPUT-LIGAND-PDBQT: TORSDOF 24


    FINAL DOCKED STATE:
    ________________________


Run:   1 / 20
Time taken for this run:   2.704s

DOCKED: MODEL        1
DOCKED: USER    Run = 1
DOCKED: USER
DOCKED: USER    Estimated Free Energy of Binding    =  +7.16 kcal/mol  [=(1)+(2)+(3)-(4)]
DOCKED: USER
DOCKED: USER    (1) Final Intermolecular Energy     =  +0.00 kcal/mol
DOCKED: USER        vdW + Hbond + desolv Energy     =  +0.00 kcal/mol
DOCKED: USER        Electrostatic Energy            =  +0.00 kcal/mol
DOCKED: USER        Moving Ligand-Fixed Receptor    =  +0.00 kcal/mol
DOCKED: USER        Moving Ligand-Moving Receptor   =  +0.00 kcal/mol
DOCKED: USER    (2) Final Total Internal Energy     = -15.48 kcal/mol
DOCKED: USER    (3) Torsional Free Energy           =  +7.16 kcal/mol
DOCKED: USER    (4) Unbound System's Energy         = -15.48 kcal/mol
DOCKED: USER
DOCKED: USER
DOCKED: REMARK  Name = ligands/ligand_19.pdb
DOCKED: REMARK  32 active torsions:
DOCKED: REMARK  status: ('A' for Active; 'I' for Inactive)
DOCKED: REMARK    1  A    between atoms: C1_1  and  C2_2
DOCKED: REMARK    2  A    between atoms: C2_2  and  C3_3
DOCKED: REMARK    3  A    between atoms: C3_3  and  C4_4
DOCKED: REMARK    4  A    between atoms: C4_4  and  N1_5
DOCKED: REMARK    5  A    between atoms: C4_4  and  C10_13
DOCKED: REMARK    6  A    between atoms: C5_6  and  O2_8
DOCKED: REMARK    7  A    between atoms: O2_8  and  C6_9
DOCKED: REMARK    8  A    between atoms: C6_9  and  C7_10
DOCKED: REMARK    9  A    between atoms: C6_9  and  C8_11
DOCKED: REMARK   10  A    between atoms: C6_9  and  C9_12
DOCKED: REMARK   11  A    between atoms: N2_15  and  C11_16
DOCKED: REMARK   12  A    between atoms: C11_16  and  C12_17
DOCKED: REMARK   13  A    between atoms: C11_16  and  C15_21
DOCKED: REMARK   14  A    between atoms: C12_17  and  C13_18
DOCKED: REMARK   15  A    between atoms: C13_18  and  S1_19
DOCKED: REMARK   16  A    between atoms: S1_19  and  C14_20
DOCKED: REMARK   17  A    between atoms: N3_23  and  C16_24
DOCKED: REMARK   18  A    between atoms: C16_24  and  C17_25
DOCKED: REMARK   19  A    between atoms: C16_24  and  C24_32
DOCKED: REMARK   20  A    between atoms: C17_25  and  C18_26
DOCKED: REMARK   21  A    between atoms: C24_32  and  O5_33
DOCKED: REMARK   22  A    between atoms: C24_32  and  C25_34
DOCKED: REMARK   23  A    between atoms: C25_34  and  C26_35
DOCKED: REMARK   24  A    between atoms: C26_35  and  C27_36
DOCKED: REMARK   25  A    between atoms: C26_35  and  C28_37
DOCKED: REMARK   26  A    between atoms: N4_39  and  C29_40
DOCKED: REMARK   27  A    between atoms: C29_40  and  C30_41
DOCKED: REMARK   28  A    between atoms: C29_40  and  C37_51
DOCKED: REMARK   29  A    between atoms: N5_43  and  C31_44
DOCKED: REMARK   30  A    between atoms: C31_44  and  C32_45
DOCKED: REMARK   31  A    between atoms: C37_51  and  C38_52
DOCKED: REMARK   32  A    between atoms: C37_51  and  C39_53
DOCKED: REMARK                            x       y       z     vdW  Elec       q    Type
DOCKED: REMARK                         _______ _______ _______ _____ _____    ______ ____
DOCKED: USER                              x       y       z     vdW  Elec       q    Type
DOCKED: USER                           _______ _______ _______ _____ _____    ______ ____
DOCKED: ROOT
DOCKED: ATOM      1  C16 UNL     1      13.962  -3.447  -1.679 +0.00 +0.00    +0.106 C  
DOCKED: ENDROOT
DOCKED: BRANCH   1   4
DOCKED: ATOM      2  C15 UNL     1      12.671  -1.956  -0.168 +0.00 +0.00    +0.234 C  
DOCKED: ATOM      3  O4  UNL     1      12.595  -2.810   0.714 +0.00 -0.00    -0.274 OA 
DOCKED: ATOM      4  N3  UNL     1      13.382  -2.139  -1.339 +0.00 -0.00    -0.308 N  
DOCKED: ATOM      5  H28 UNL     1      13.183  -1.499  -2.098 +0.00 +0.00    +0.149 HD 
DOCKED: BRANCH   2   6
DOCKED: ATOM      6  C11 UNL     1      12.011  -0.568  -0.039 +0.00 +0.00    +0.160 C  
DOCKED: BRANCH   6   9
DOCKED: ATOM      7  C10 UNL     1      12.239   1.436  -1.458 +0.00 +0.00    +0.234 C  
DOCKED: ATOM      8  O3  UNL     1      12.060   2.205  -0.513 +0.00 -0.00    -0.274 OA 
DOCKED: ATOM      9  N2  UNL     1      12.068   0.069  -1.348 +0.00 -0.00    -0.302 N  
DOCKED: ATOM     10  H19 UNL     1      12.426  -0.509  -2.106 +0.00 +0.00    +0.150 HD 
DOCKED: BRANCH   7  11
DOCKED: ATOM     11  C4  UNL     1      12.554   1.927  -2.882 +0.00 +0.00    +0.162 C  
DOCKED: BRANCH  11  12
DOCKED: ATOM     12  N1  UNL     1      11.497   1.367  -3.712 +0.00 -0.00    -0.270 N  
DOCKED: ATOM     13  C5  UNL     1      11.504   0.052  -4.075 +0.00 +0.00    +0.401 C  
DOCKED: ATOM     14  O1  UNL     1      12.470  -0.691  -3.986 +0.00 -0.00    -0.226 OA 
DOCKED: ATOM     15  H9  UNL     1      10.575   1.780  -3.650 +0.00 +0.00    +0.153 HD 
DOCKED: BRANCH  13  16
DOCKED: ATOM     16  O2  UNL     1      10.274  -0.275  -4.529 +0.00 -0.00    -0.445 OA 
DOCKED: BRANCH  16  17
DOCKED: ATOM     17  C6  UNL     1      10.022  -0.415  -5.953 +0.00 +0.00    +0.107 C  
DOCKED: ATOM     18  C7  UNL     1      11.068  -1.336  -6.598 +0.00 +0.00    +0.055 C  
DOCKED: ATOM     19  C8  UNL     1       8.583  -0.874  -6.236 +0.00 +0.00    +0.055 C  
DOCKED: ATOM     20  C9  UNL     1      10.193   1.004  -6.518 +0.00 +0.00    +0.055 C  
DOCKED: ENDBRANCH  16  17
DOCKED: ENDBRANCH  13  16
DOCKED: ENDBRANCH  11  12
DOCKED: BRANCH  11  21
DOCKED: ATOM     21  C3  UNL     1      12.547   3.457  -2.980 +0.00 +0.00    +0.031 C  
DOCKED: BRANCH  21  23
DOCKED: ATOM     22  C1  UNL     1      13.430   3.172  -5.366 +0.00 +0.00    +0.004 C  
DOCKED: ATOM     23  C2  UNL     1      13.441   4.010  -4.096 +0.00 -0.00    -0.001 C  
DOCKED: ENDBRANCH  21  23
DOCKED: ENDBRANCH  11  21
DOCKED: ENDBRANCH   7  11
DOCKED: ENDBRANCH   6   9
DOCKED: BRANCH   6  24
DOCKED: ATOM     24  C12 UNL     1      10.573  -0.716   0.463 +0.00 +0.00    +0.042 C  
DOCKED: BRANCH  24  25
DOCKED: ATOM     25  C13 UNL     1       9.632  -1.079  -0.686 +0.00 +0.00    +0.071 C  
DOCKED: BRANCH  25  26
DOCKED: ATOM     26  S1  UNL     1       8.915   0.406  -1.465 +0.00 -0.00    -0.164 S  
DOCKED: ATOM     27  C14 UNL     1       7.849  -0.383  -2.700 +0.00 +0.00    +0.084 C  
DOCKED: ENDBRANCH  25  26
DOCKED: ENDBRANCH  24  25
DOCKED: ENDBRANCH   6  24
DOCKED: ENDBRANCH   2   6
DOCKED: ENDBRANCH   1   4
DOCKED: BRANCH   1  28
DOCKED: ATOM     28  C24 UNL     1      14.807  -3.338  -2.983 +0.00 +0.00    +0.136 C  
DOCKED: BRANCH  28  29
DOCKED: ATOM     29  O5  UNL     1      14.224  -2.448  -3.930 +0.00 -0.00    -0.390 OA 
DOCKED: ATOM     30  H38 UNL     1      13.578  -1.875  -3.482 +0.00 +0.00    +0.210 HD 
DOCKED: ENDBRANCH  28  29
DOCKED: BRANCH  28  31
DOCKED: ATOM     31  C25 UNL     1      16.262  -2.904  -2.743 +0.00 +0.00    +0.045 C  
DOCKED: BRANCH  31  32
DOCKED: ATOM     32  C26 UNL     1      16.397  -1.646  -1.857 +0.00 +0.00    +0.074 C  
DOCKED: ATOM     33  C27 UNL     1      17.842  -1.309  -1.495 +0.00 +0.00    +0.017 C  
DOCKED: BRANCH  32  34
DOCKED: ATOM     34  C28 UNL     1      15.740  -0.468  -2.569 +0.00 +0.00    +0.217 C  
DOCKED: ATOM     35  O6  UNL     1      14.541  -0.213  -2.508 +0.00 -0.00    -0.276 OA 
DOCKED: ATOM     36  N4  UNL     1      16.638   0.323  -3.259 +0.00 -0.00    -0.304 N  
DOCKED: ATOM     37  H45 UNL     1      17.502  -0.127  -3.545 +0.00 +0.00    +0.149 HD 
DOCKED: BRANCH  36  38
DOCKED: ATOM     38  C29 UNL     1      16.175   1.366  -4.174 +0.00 +0.00    +0.161 C  
DOCKED: BRANCH  38  39
DOCKED: ATOM     39  C30 UNL     1      15.880   0.687  -5.526 +0.00 +0.00    +0.234 C  
DOCKED: ATOM     40  O7  UNL     1      16.578   0.899  -6.521 +0.00 -0.00    -0.274 OA 
DOCKED: ATOM     41  N5  UNL     1      14.767  -0.118  -5.544 +0.00 -0.00    -0.310 N  
DOCKED: ATOM     42  H47 UNL     1      14.372  -0.407  -4.657 +0.00 +0.00    +0.149 HD 
DOCKED: BRANCH  41  43
DOCKED: ATOM     43  C31 UNL     1      14.405  -0.893  -6.709 +0.00 +0.00    +0.139 C  
DOCKED: BRANCH  43  44
DOCKED: ATOM     44  C32 UNL     1      14.881  -2.318  -6.582 +0.00 -0.00    -0.027 A  
DOCKED: ATOM     45  C33 UNL     1      16.217  -2.604  -6.283 +0.00 +0.00    +0.025 A  
DOCKED: ATOM     46  C34 UNL     1      16.602  -3.931  -6.167 +0.00 +0.00    +0.111 A  
DOCKED: ATOM     47  N6  UNL     1      15.762  -4.972  -6.331 +0.00 -0.00    -0.263 NA 
DOCKED: ATOM     48  C35 UNL     1      14.478  -4.676  -6.617 +0.00 +0.00    +0.111 A  
DOCKED: ATOM     49  C36 UNL     1      13.995  -3.383  -6.748 +0.00 +0.00    +0.025 A  
DOCKED: ENDBRANCH  43  44
DOCKED: ENDBRANCH  41  43
DOCKED: ENDBRANCH  38  39
DOCKED: BRANCH  38  50
DOCKED: ATOM     50  C37 UNL     1      17.195   2.514  -4.337 +0.00 +0.00    +0.012 C  
DOCKED: ATOM     51  C38 UNL     1      18.649   2.029  -4.339 +0.00 +0.00    +0.009 C  
DOCKED: ATOM     52  C39 UNL     1      16.995   3.567  -3.244 +0.00 +0.00    +0.009 C  
DOCKED: ENDBRANCH  38  50
DOCKED: ENDBRANCH  36  38
DOCKED: ENDBRANCH  32  34
DOCKED: ENDBRANCH  31  32
DOCKED: ENDBRANCH  28  31
DOCKED: ENDBRANCH   1  28
DOCKED: BRANCH   1  53
DOCKED: ATOM     53  C17 UNL     1      12.854  -4.528  -1.698 +0.00 +0.00    +0.060 C  
DOCKED: BRANCH  53  54
DOCKED: ATOM     54  C18 UNL     1      11.780  -4.304  -2.735 +0.00 -0.00    -0.046 A  
DOCKED: ATOM     55  C19 UNL     1      11.984  -4.704  -4.062 +0.00 +0.00    +0.004 A  
DOCKED: ATOM     56  C20 UNL     1      11.004  -4.476  -5.030 +0.00 +0.00    +0.000 A  
DOCKED: ATOM     57  C21 UNL     1       9.813  -3.842  -4.681 +0.00 +0.00    +0.000 A  
DOCKED: ATOM     58  C22 UNL     1       9.598  -3.448  -3.364 +0.00 +0.00    +0.000 A  
DOCKED: ATOM     59  C23 UNL     1      10.573  -3.679  -2.394 +0.00 +0.00    +0.004 A  
DOCKED: ENDBRANCH  53  54
DOCKED: ENDBRANCH   1  53
DOCKED: TORSDOF 24
DOCKED: TER
DOCKED: ENDMDL
________________________________________________________________________________


    FINAL DOCKED STATE:
    ________________________


Run:   2 / 20
Time taken for this run:   2.704s

DOCKED: MODEL        2
DOCKED: USER    Run = 2
DOCKED: USER
DOCKED: USER    Estimated Free Energy of Binding    =  +7.16 kcal/mol  [=(1)+(2)+(3)-(4)]
DOCKED: USER
DOCKED: USER    (1) Final Intermolecular Energy     =  +0.00 kcal/mol
DOCKED: USER        vdW + Hbond + desolv Energy     =  +0.00 kcal/mol
DOCKED: USER        Electrostatic Energy            =  +0.00 kcal/mol
DOCKED: USER        Moving Ligand-Fixed Receptor    =  +0.00 kcal/mol
DOCKED: USER        Moving Ligand-Moving Receptor   =  +0.00 kcal/mol
DOCKED: USER    (2) Final Total Internal Energy     = -15.89 kcal/mol
DOCKED: USER    (3) Torsional Free Energy           =  +7.16 kcal/mol
DOCKED: USER    (4) Unbound System's Energy         = -15.89 kcal/mol
DOCKED: USER
DOCKED: USER
DOCKED: REMARK  Name = ligands/ligand_19.pdb
DOCKED: REMARK  32 active torsions:
DOCKED: REMARK  status: ('A' for Active; 'I' for Inactive)
DOCKED: REMARK    1  A    between atoms: C1_1  and  C2_2
DOCKED: REMARK    2  A    between atoms: C2_2  and  C3_3
DOCKED: REMARK    3  A    between atoms: C3_3  and  C4_4
DOCKED: REMARK    4  A    between atoms: C4_4  and  N1_5
DOCKED: REMARK    5  A    between atoms: C4_4  and  C10_13
DOCKED: REMARK    6  A    between atoms: C5_6  and  O2_8
DOCKED: REMARK    7  A    between atoms: O2_8  and  C6_9
DOCKED: REMARK    8  A    between atoms: C6_9  and  C7_10
DOCKED: REMARK    9  A    between atoms: C6_9  and  C8_11
DOCKED: REMARK   10  A    between atoms: C6_9  and  C9_12
DOCKED: REMARK   11  A    between atoms: N2_15  and  C11_16
DOCKED: REMARK   12  A    between atoms: C11_16  and  C12_17
DOCKED: REMARK   13  A    between atoms: C11_16  and  C15_21
DOCKED: REMARK   14  A    between atoms: C12_17  and  C13_18
DOCKED: REMARK   15  A    between atoms: C13_18  and  S1_19
DOCKED: REMARK   16  A    between atoms: S1_19  and  C14_20
DOCKED: REMARK   17  A    between atoms: N3_23  and  C16_24
DOCKED: REMARK   18  A    between atoms: C16_24  and  C17_25
DOCKED: REMARK   19  A    between atoms: C16_24  and  C24_32
DOCKED: REMARK   20  A    between atoms: C17_25  and  C18_26
DOCKED: REMARK   21  A    between atoms: C24_32  and  O5_33
DOCKED: REMARK   22  A    between atoms: C24_32  and  C25_34
DOCKED: REMARK   23  A    between atoms: C25_34  and  C26_35
DOCKED: REMARK   24  A    between atoms: C26_35  and  C27_36
DOCKED: REMARK   25  A    between atoms: C26_35  and  C28_37
DOCKED: REMARK   26  A    between atoms: N4_39  and  C29_40
DOCKED: REMARK   27  A    between atoms: C29_40  and  C30_41
DOCKED: REMARK   28  A    between atoms: C29_40  and  C37_51
DOCKED: REMARK   29  A    between atoms: N5_43  and  C31_44
DOCKED: REMARK   30  A    between atoms: C31_44  and  C32_45
DOCKED: REMARK   31  A    between atoms: C37_51  and  C38_52
DOCKED: REMARK   32  A    between atoms: C37_51  and  C39_53
DOCKED: REMARK                            x       y       z     vdW  Elec       q    Type
DOCKED: REMARK                         _______ _______ _______ _____ _____    ______ ____
DOCKED: USER                              x       y       z     vdW  Elec       q    Type
DOCKED: USER                           _______ _______ _______ _____ _____    ______ ____
DOCKED: ROOT
DOCKED: ATOM      1  C16 UNL     1       9.752  -8.434  -1.548 +0.00 +0.00    +0.106 C  
DOCKED: ENDROOT
DOCKED: BRANCH   1   4
DOCKED: ATOM      2  C15 UNL     1       9.380  -6.007  -1.163 +0.00 +0.00    +0.234 C  
DOCKED: ATOM      3  O4  UNL     1      10.428  -5.693  -1.725 +0.00 -0.00    -0.274 OA 
DOCKED: ATOM      4  N3  UNL     1       8.921  -7.309  -1.093 +0.00 -0.00    -0.308 N  
DOCKED: ATOM      5  H28 UNL     1       8.199  -7.502  -0.408 +0.00 +0.00    +0.149 HD 
DOCKED: BRANCH   2   6
DOCKED: ATOM      6  C11 UNL     1       8.443  -4.970  -0.511 +0.00 +0.00    +0.160 C  
DOCKED: BRANCH   6   9
DOCKED: ATOM      7  C10 UNL     1       6.750  -5.214   1.265 +0.00 +0.00    +0.234 C  
DOCKED: ATOM      8  O3  UNL     1       6.077  -4.272   0.843 +0.00 -0.00    -0.274 OA 
DOCKED: ATOM      9  N2  UNL     1       8.002  -5.517   0.765 +0.00 -0.00    -0.302 N  
DOCKED: ATOM     10  H19 UNL     1       8.402  -6.418   1.022 +0.00 +0.00    +0.150 HD 
DOCKED: BRANCH   7  11
DOCKED: ATOM     11  C4  UNL     1       6.318  -6.070   2.469 +0.00 +0.00    +0.162 C  
DOCKED: BRANCH  11  12
DOCKED: ATOM     12  N1  UNL     1       5.933  -7.352   1.895 +0.00 -0.00    -0.270 N  
DOCKED: ATOM     13  C5  UNL     1       6.868  -8.293   1.574 +0.00 +0.00    +0.401 C  
DOCKED: ATOM     14  O1  UNL     1       8.067  -8.080   1.475 +0.00 -0.00    -0.226 OA 
DOCKED: ATOM     15  H9  UNL     1       5.027  -7.729   2.141 +0.00 +0.00    +0.153 HD 
DOCKED: BRANCH  13  16
DOCKED: ATOM     16  O2  UNL     1       6.243  -9.478   1.398 +0.00 -0.00    -0.445 OA 
DOCKED: BRANCH  16  17
DOCKED: ATOM     17  C6  UNL     1       6.394 -10.548   2.369 +0.00 +0.00    +0.107 C  
DOCKED: ATOM     18  C7  UNL     1       7.087 -11.761   1.730 +0.00 +0.00    +0.055 C  
DOCKED: ATOM     19  C8  UNL     1       7.109 -10.068   3.642 +0.00 +0.00    +0.055 C  
DOCKED: ATOM     20  C9  UNL     1       4.956 -10.938   2.744 +0.00 +0.00    +0.055 C  
DOCKED: ENDBRANCH  16  17
DOCKED: ENDBRANCH  13  16
DOCKED: ENDBRANCH  11  12
DOCKED: BRANCH  11  21
DOCKED: ATOM     21  C3  UNL     1       7.455  -6.265   3.478 +0.00 +0.00    +0.031 C  
DOCKED: BRANCH  21  23
DOCKED: ATOM     22  C1  UNL     1       5.490  -7.015   4.936 +0.00 +0.00    +0.004 C  
DOCKED: ATOM     23  C2  UNL     1       6.996  -6.828   4.828 +0.00 -0.00    -0.001 C  
DOCKED: ENDBRANCH  21  23
DOCKED: ENDBRANCH  11  21
DOCKED: ENDBRANCH   7  11
DOCKED: ENDBRANCH   6   9
DOCKED: BRANCH   6  24
DOCKED: ATOM     24  C12 UNL     1       9.175  -3.637  -0.339 +0.00 +0.00    +0.042 C  
DOCKED: BRANCH  24  25
DOCKED: ATOM     25  C13 UNL     1      10.124  -3.690   0.858 +0.00 +0.00    +0.071 C  
DOCKED: BRANCH  25  26
DOCKED: ATOM     26  S1  UNL     1       9.348  -3.012   2.363 +0.00 -0.00    -0.164 S  
DOCKED: ATOM     27  C14 UNL     1      10.145  -4.055   3.612 +0.00 +0.00    +0.084 C  
DOCKED: ENDBRANCH  25  26
DOCKED: ENDBRANCH  24  25
DOCKED: ENDBRANCH   6  24
DOCKED: ENDBRANCH   2   6
DOCKED: ENDBRANCH   1   4
DOCKED: BRANCH   1  28
DOCKED: ATOM     28  C24 UNL     1       8.924  -9.753  -1.536 +0.00 +0.00    +0.136 C  
DOCKED: BRANCH  28  29
DOCKED: ATOM     29  O5  UNL     1       8.031  -9.820  -0.429 +0.00 -0.00    -0.390 OA 
DOCKED: ATOM     30  H38 UNL     1       7.504  -9.003  -0.389 +0.00 +0.00    +0.210 HD 
DOCKED: ENDBRANCH  28  29
DOCKED: BRANCH  28  31
DOCKED: ATOM     31  C25 UNL     1       8.118  -9.989  -2.824 +0.00 +0.00    +0.045 C  
DOCKED: BRANCH  31  32
DOCKED: ATOM     32  C26 UNL     1       6.629  -9.596  -2.706 +0.00 +0.00    +0.074 C  
DOCKED: ATOM     33  C27 UNL     1       5.838 -10.489  -1.752 +0.00 +0.00    +0.017 C  
DOCKED: BRANCH  32  34
DOCKED: ATOM     34  C28 UNL     1       6.537  -8.138  -2.266 +0.00 +0.00    +0.217 C  
DOCKED: ATOM     35  O6  UNL     1       6.210  -7.782  -1.138 +0.00 -0.00    -0.276 OA 
DOCKED: ATOM     36  N4  UNL     1       6.908  -7.246  -3.253 +0.00 -0.00    -0.304 N  
DOCKED: ATOM     37  H45 UNL     1       6.822  -7.577  -4.210 +0.00 +0.00    +0.149 HD 
DOCKED: BRANCH  36  38
DOCKED: ATOM     38  C29 UNL     1       6.683  -5.810  -3.094 +0.00 +0.00    +0.161 C  
DOCKED: BRANCH  38  39
DOCKED: ATOM     39  C30 UNL     1       5.194  -5.619  -2.743 +0.00 +0.00    +0.234 C  
DOCKED: ATOM     40  O7  UNL     1       4.324  -5.575  -3.618 +0.00 -0.00    -0.274 OA 
DOCKED: ATOM     41  N5  UNL     1       4.926  -5.454  -1.406 +0.00 -0.00    -0.310 N  
DOCKED: ATOM     42  H47 UNL     1       5.646  -5.708  -0.740 +0.00 +0.00    +0.149 HD 
DOCKED: BRANCH  41  43
DOCKED: ATOM     43  C31 UNL     1       3.574  -5.351  -0.906 +0.00 +0.00    +0.139 C  
DOCKED: BRANCH  43  44
DOCKED: ATOM     44  C32 UNL     1       3.331  -6.337   0.208 +0.00 -0.00    -0.027 A  
DOCKED: ATOM     45  C33 UNL     1       3.372  -7.715  -0.031 +0.00 +0.00    +0.025 A  
DOCKED: ATOM     46  C34 UNL     1       3.152  -8.580   1.029 +0.00 +0.00    +0.111 A  
DOCKED: ATOM     47  N6  UNL     1       2.893  -8.173   2.287 +0.00 -0.00    -0.263 NA 
DOCKED: ATOM     48  C35 UNL     1       2.860  -6.842   2.499 +0.00 +0.00    +0.111 A  
DOCKED: ATOM     49  C36 UNL     1       3.072  -5.898   1.507 +0.00 +0.00    +0.025 A  
DOCKED: ENDBRANCH  43  44
DOCKED: ENDBRANCH  41  43
DOCKED: ENDBRANCH  38  39
DOCKED: BRANCH  38  50
DOCKED: ATOM     50  C37 UNL     1       7.067  -5.002  -4.353 +0.00 +0.00    +0.012 C  
DOCKED: ATOM     51  C38 UNL     1       8.248  -5.607  -5.119 +0.00 +0.00    +0.009 C  
DOCKED: ATOM     52  C39 UNL     1       7.372  -3.548  -3.982 +0.00 +0.00    +0.009 C  
DOCKED: ENDBRANCH  38  50
DOCKED: ENDBRANCH  36  38
DOCKED: ENDBRANCH  32  34
DOCKED: ENDBRANCH  31  32
DOCKED: ENDBRANCH  28  31
DOCKED: ENDBRANCH   1  28
DOCKED: BRANCH   1  53
DOCKED: ATOM     53  C17 UNL     1      11.073  -8.475  -0.742 +0.00 +0.00    +0.060 C  
DOCKED: BRANCH  53  54
DOCKED: ATOM     54  C18 UNL     1      10.892  -8.470   0.756 +0.00 -0.00    -0.046 A  
DOCKED: ATOM     55  C19 UNL     1      10.620  -9.661   1.440 +0.00 +0.00    +0.004 A  
DOCKED: ATOM     56  C20 UNL     1      10.425  -9.658   2.823 +0.00 +0.00    +0.000 A  
DOCKED: ATOM     57  C21 UNL     1      10.497  -8.461   3.534 +0.00 +0.00    +0.000 A  
DOCKED: ATOM     58  C22 UNL     1      10.774  -7.273   2.865 +0.00 +0.00    +0.000 A  
DOCKED: ATOM     59  C23 UNL     1      10.973  -7.275   1.485 +0.00 +0.00    +0.004 A  
DOCKED: ENDBRANCH  53  54
DOCKED: ENDBRANCH   1  53
DOCKED: TORSDOF 24
DOCKED: TER
DOCKED: ENDMDL
________________________________________________________________________________


    FINAL DOCKED STATE:
    ________________________


Run:   3 / 20
Time taken for this run:   2.704s

DOCKED: MODEL        3
DOCKED: USER    Run = 3
DOCKED: USER
DOCKED: USER    Estimated Free Energy of Binding    =  +7.16 kcal/mol  [=(1)+(2)+(3)-(4)]
DOCKED: USER
DOCKED: USER    (1) Final Intermolecular Energy     =  +0.00 kcal/mol
DOCKED: USER        vdW + Hbond + desolv Energy     =  +0.00 kcal/mol
DOCKED: USER        Electrostatic Energy            =  +0.00 kcal/mol
DOCKED: USER        Moving Ligand-Fixed Receptor    =  +0.00 kcal/mol
DOCKED: USER        Moving Ligand-Moving Receptor   =  +0.00 kcal/mol
DOCKED: USER    (2) Final Total Internal Energy     = -15.48 kcal/mol
DOCKED: USER    (3) Torsional Free Energy           =  +7.16 kcal/mol
DOCKED: USER    (4) Unbound System's Energy         = -15.48 kcal/mol
DOCKED: USER
DOCKED: USER
DOCKED: REMARK  Name = ligands/ligand_19.pdb
DOCKED: REMARK  32 active torsions:
DOCKED: REMARK  status: ('A' for Active; 'I' for Inactive)
DOCKED: REMARK    1  A    between atoms: C1_1  and  C2_2
DOCKED: REMARK    2  A    between atoms: C2_2  and  C3_3
DOCKED: REMARK    3  A    between atoms: C3_3  and  C4_4
DOCKED: REMARK    4  A    between atoms: C4_4  and  N1_5
DOCKED: REMARK    5  A    between atoms: C4_4  and  C10_13
DOCKED: REMARK    6  A    between atoms: C5_6  and  O2_8
DOCKED: REMARK    7  A    between atoms: O2_8  and  C6_9
DOCKED: REMARK    8  A    between atoms: C6_9  and  C7_10
DOCKED: REMARK    9  A    between atoms: C6_9  and  C8_11
DOCKED: REMARK   10  A    between atoms: C6_9  and  C9_12
DOCKED: REMARK   11  A    between atoms: N2_15  and  C11_16
DOCKED: REMARK   12  A    between atoms: C11_16  and  C12_17
DOCKED: REMARK   13  A    between atoms: C11_16  and  C15_21
DOCKED: REMARK   14  A    between atoms: C12_17  and  C13_18
DOCKED: REMARK   15  A    between atoms: C13_18  and  S1_19
DOCKED: REMARK   16  A    between atoms: S1_19  and  C14_20
DOCKED: REMARK   17  A    between atoms: N3_23  and  C16_24
DOCKED: REMARK   18  A    between atoms: C16_24  and  C17_25
DOCKED: REMARK   19  A    between atoms: C16_24  and  C24_32
DOCKED: REMARK   20  A    between atoms: C17_25  and  C18_26
DOCKED: REMARK   21  A    between atoms: C24_32  and  O5_33
DOCKED: REMARK   22  A    between atoms: C24_32  and  C25_34
DOCKED: REMARK   23  A    between atoms: C25_34  and  C26_35
DOCKED: REMARK   24  A    between atoms: C26_35  and  C27_36
DOCKED: REMARK   25  A    between atoms: C26_35  and  C28_37
DOCKED: REMARK   26  A    between atoms: N4_39  and  C29_40
DOCKED: REMARK   27  A    between atoms: C29_40  and  C30_41
DOCKED: REMARK   28  A    between atoms: C29_40  and  C37_51
DOCKED: REMARK   29  A    between atoms: N5_43  and  C31_44
DOCKED: REMARK   30  A    between atoms: C31_44  and  C32_45
DOCKED: REMARK   31  A    between atoms: C37_51  and  C38_52
DOCKED: REMARK   32  A    between atoms: C37_51  and  C39_53
DOCKED: REMARK                            x       y       z     vdW  Elec       q    Type
DOCKED: REMARK                         _______ _______ _______ _____ _____    ______ ____
DOCKED: USER                              x       y       z     vdW  Elec       q    Type
DOCKED: USER                           _______ _______ _______ _____ _____    ______ ____
DOCKED: ROOT
DOCKED: ATOM      1  C16 UNL     1       5.594  -7.153  -2.583 +0.00 +0.00    +0.106 C  
DOCKED: ENDROOT
DOCKED: BRANCH   1   4
DOCKED: ATOM      2  C15 UNL     1       5.675  -9.176  -1.141 +0.00 +0.00    +0.234 C  
DOCKED: ATOM      3  O4  UNL     1       4.690  -9.677  -1.681 +0.00 -0.00    -0.274 OA 
DOCKED: ATOM      4  N3  UNL     1       6.242  -7.986  -1.558 +0.00 -0.00    -0.308 N  
DOCKED: ATOM      5  H28 UNL     1       6.876  -7.532  -0.913 +0.00 +0.00    +0.149 HD 
DOCKED: BRANCH   2   6
DOCKED: ATOM      6  C11 UNL     1       6.408  -9.847   0.038 +0.00 +0.00    +0.160 C  
DOCKED: BRANCH   6   9
DOCKED: ATOM      7  C10 UNL     1       8.503  -9.229   1.184 +0.00 +0.00    +0.234 C  
DOCKED: ATOM      8  O3  UNL     1       8.762 -10.396   1.479 +0.00 -0.00    -0.274 OA 
DOCKED: ATOM      9  N2  UNL     1       7.295  -8.853   0.627 +0.00 -0.00    -0.302 N  
DOCKED: ATOM     10  H19 UNL     1       7.235  -7.917   0.231 +0.00 +0.00    +0.150 HD 
DOCKED: BRANCH   7  11
DOCKED: ATOM     11  C4  UNL     1       9.446  -8.059   1.515 +0.00 +0.00    +0.162 C  
DOCKED: BRANCH  11  12
DOCKED: ATOM     12  N1  UNL     1       8.648  -7.156   2.333 +0.00 -0.00    -0.270 N  
DOCKED: ATOM     13  C5  UNL     1       7.692  -6.357   1.778 +0.00 +0.00    +0.401 C  
DOCKED: ATOM     14  O1  UNL     1       7.590  -6.117   0.585 +0.00 -0.00    -0.226 OA 
DOCKED: ATOM     15  H9  UNL     1       8.469  -7.420   3.294 +0.00 +0.00    +0.153 HD 
DOCKED: BRANCH  13  16
DOCKED: ATOM     16  O2  UNL     1       6.890  -5.899   2.765 +0.00 -0.00    -0.445 OA 
DOCKED: BRANCH  16  17
DOCKED: ATOM     17  C6  UNL     1       7.115  -4.592   3.358 +0.00 +0.00    +0.107 C  
DOCKED: ATOM     18  C7  UNL     1       6.032  -4.279   4.400 +0.00 +0.00    +0.055 C  
DOCKED: ATOM     19  C8  UNL     1       8.535  -4.462   3.931 +0.00 +0.00    +0.055 C  
DOCKED: ATOM     20  C9  UNL     1       6.979  -3.606   2.187 +0.00 +0.00    +0.055 C  
DOCKED: ENDBRANCH  16  17
DOCKED: ENDBRANCH  13  16
DOCKED: ENDBRANCH  11  12
DOCKED: BRANCH  11  21
DOCKED: ATOM     21  C3  UNL     1      10.686  -8.517   2.291 +0.00 +0.00    +0.031 C  
DOCKED: BRANCH  21  23
DOCKED: ATOM     22  C1  UNL     1      11.589  -6.141   1.998 +0.00 +0.00    +0.004 C  
DOCKED: ATOM     23  C2  UNL     1      11.914  -7.625   2.080 +0.00 -0.00    -0.001 C  
DOCKED: ENDBRANCH  21  23
DOCKED: ENDBRANCH  11  21
DOCKED: ENDBRANCH   7  11
DOCKED: ENDBRANCH   6   9
DOCKED: BRANCH   6  24
DOCKED: ATOM     24  C12 UNL     1       5.394 -10.380   1.051 +0.00 +0.00    +0.042 C  
DOCKED: BRANCH  24  25
DOCKED: ATOM     25  C13 UNL     1       4.957  -9.276   2.014 +0.00 +0.00    +0.071 C  
DOCKED: BRANCH  25  26
DOCKED: ATOM     26  S1  UNL     1       5.943  -9.290   3.548 +0.00 -0.00    -0.164 S  
DOCKED: ATOM     27  C14 UNL     1       5.216  -7.860   4.391 +0.00 +0.00    +0.084 C  
DOCKED: ENDBRANCH  25  26
DOCKED: ENDBRANCH  24  25
DOCKED: ENDBRANCH   6  24
DOCKED: ENDBRANCH   2   6
DOCKED: ENDBRANCH   1   4
DOCKED: BRANCH   1  28
DOCKED: ATOM     28  C24 UNL     1       6.470  -5.903  -2.891 +0.00 +0.00    +0.136 C  
DOCKED: BRANCH  28  29
DOCKED: ATOM     29  O5  UNL     1       7.106  -5.389  -1.726 +0.00 -0.00    -0.390 OA 
DOCKED: ATOM     30  H38 UNL     1       7.132  -6.078  -1.040 +0.00 +0.00    +0.210 HD 
DOCKED: ENDBRANCH  28  29
DOCKED: BRANCH  28  31
DOCKED: ATOM     31  C25 UNL     1       7.546  -6.150  -3.962 +0.00 +0.00    +0.045 C  
DOCKED: BRANCH  31  32
DOCKED: ATOM     32  C26 UNL     1       8.393  -7.417  -3.710 +0.00 +0.00    +0.074 C  
DOCKED: ATOM     33  C27 UNL     1       9.344  -7.750  -4.857 +0.00 +0.00    +0.017 C  
DOCKED: BRANCH  32  34
DOCKED: ATOM     34  C28 UNL     1       9.172  -7.239  -2.410 +0.00 +0.00    +0.217 C  
DOCKED: ATOM     35  O6  UNL     1       8.721  -7.505  -1.300 +0.00 -0.00    -0.276 OA 
DOCKED: ATOM     36  N4  UNL     1      10.463  -6.791  -2.604 +0.00 -0.00    -0.304 N  
DOCKED: ATOM     37  H45 UNL     1      10.634  -6.280  -3.465 +0.00 +0.00    +0.149 HD 
DOCKED: BRANCH  36  38
DOCKED: ATOM     38  C29 UNL     1      11.288  -6.358  -1.477 +0.00 +0.00    +0.161 C  
DOCKED: BRANCH  38  39
DOCKED: ATOM     39  C30 UNL     1      10.928  -4.888  -1.189 +0.00 +0.00    +0.234 C  
DOCKED: ATOM     40  O7  UNL     1      11.729  -3.973  -1.400 +0.00 -0.00    -0.274 OA 
DOCKED: ATOM     41  N5  UNL     1       9.685  -4.688  -0.640 +0.00 -0.00    -0.310 N  
DOCKED: ATOM     42  H47 UNL     1       9.014  -5.444  -0.688 +0.00 +0.00    +0.149 HD 
DOCKED: BRANCH  41  43
DOCKED: ATOM     43  C31 UNL     1       9.164  -3.362  -0.392 +0.00 +0.00    +0.139 C  
DOCKED: BRANCH  43  44
DOCKED: ATOM     44  C32 UNL     1       8.250  -2.922  -1.506 +0.00 -0.00    -0.027 A  
DOCKED: ATOM     45  C33 UNL     1       8.670  -2.967  -2.840 +0.00 +0.00    +0.025 A  
DOCKED: ATOM     46  C34 UNL     1       7.788  -2.560  -3.828 +0.00 +0.00    +0.111 A  
DOCKED: ATOM     47  N6  UNL     1       6.540  -2.114  -3.582 +0.00 -0.00    -0.263 NA 
DOCKED: ATOM     48  C35 UNL     1       6.152  -2.080  -2.292 +0.00 +0.00    +0.111 A  
DOCKED: ATOM     49  C36 UNL     1       6.958  -2.470  -1.233 +0.00 +0.00    +0.025 A  
DOCKED: ENDBRANCH  43  44
DOCKED: ENDBRANCH  41  43
DOCKED: ENDBRANCH  38  39
DOCKED: BRANCH  38  50
DOCKED: ATOM     50  C37 UNL     1      12.800  -6.520  -1.746 +0.00 +0.00    +0.012 C  
DOCKED: ATOM     51  C38 UNL     1      13.185  -6.238  -3.202 +0.00 +0.00    +0.009 C  
DOCKED: ATOM     52  C39 UNL     1      13.268  -7.920  -1.341 +0.00 +0.00    +0.009 C  
DOCKED: ENDBRANCH  38  50
DOCKED: ENDBRANCH  36  38
DOCKED: ENDBRANCH  32  34
DOCKED: ENDBRANCH  31  32
DOCKED: ENDBRANCH  28  31
DOCKED: ENDBRANCH   1  28
DOCKED: BRANCH   1  53
DOCKED: ATOM     53  C17 UNL     1       4.132  -6.851  -2.171 +0.00 +0.00    +0.060 C  
DOCKED: BRANCH  53  54
DOCKED: ATOM     54  C18 UNL     1       3.992  -6.104  -0.868 +0.00 -0.00    -0.046 A  
DOCKED: ATOM     55  C19 UNL     1       4.167  -4.715  -0.825 +0.00 +0.00    +0.004 A  
DOCKED: ATOM     56  C20 UNL     1       4.064  -4.023   0.383 +0.00 +0.00    +0.000 A  
DOCKED: ATOM     57  C21 UNL     1       3.787  -4.714   1.561 +0.00 +0.00    +0.000 A  
DOCKED: ATOM     58  C22 UNL     1       3.604  -6.093   1.528 +0.00 +0.00    +0.000 A  
DOCKED: ATOM     59  C23 UNL     1       3.702  -6.786   0.322 +0.00 +0.00    +0.004 A  
DOCKED: ENDBRANCH  53  54
DOCKED: ENDBRANCH   1  53
DOCKED: TORSDOF 24
DOCKED: TER
DOCKED: ENDMDL
________________________________________________________________________________


    FINAL DOCKED STATE:
    ________________________


Run:   4 / 20
Time taken for this run:   2.704s

DOCKED: MODEL        4
DOCKED: USER    Run = 4
DOCKED: USER
DOCKED: USER    Estimated Free Energy of Binding    =  +7.16 kcal/mol  [=(1)+(2)+(3)-(4)]
DOCKED: USER
DOCKED: USER    (1) Final Intermolecular Energy     =  +0.00 kcal/mol
DOCKED: USER        vdW + Hbond + desolv Energy     =  +0.00 kcal/mol
DOCKED: USER        Electrostatic Energy            =  +0.00 kcal/mol
DOCKED: USER        Moving Ligand-Fixed Receptor    =  +0.00 kcal/mol
DOCKED: USER        Moving Ligand-Moving Receptor   =  +0.00 kcal/mol
DOCKED: USER    (2) Final Total Internal Energy     = -15.45 kcal/mol
DOCKED: USER    (3) Torsional Free Energy           =  +7.16 kcal/mol
DOCKED: USER    (4) Unbound System's Energy         = -15.45 kcal/mol
DOCKED: USER
DOCKED: USER
DOCKED: REMARK  Name = ligands/ligand_19.pdb
DOCKED: REMARK  32 active torsions:
DOCKED: REMARK  status: ('A' for Active; 'I' for Inactive)
DOCKED: REMARK    1  A    between atoms: C1_1  and  C2_2
DOCKED: REMARK    2  A    between atoms: C2_2  and  C3_3
DOCKED: REMARK    3  A    between atoms: C3_3  and  C4_4
DOCKED: REMARK    4  A    between atoms: C4_4  and  N1_5
DOCKED: REMARK    5  A    between atoms: C4_4  and  C10_13
DOCKED: REMARK    6  A    between atoms: C5_6  and  O2_8
DOCKED: REMARK    7  A    between atoms: O2_8  and  C6_9
DOCKED: REMARK    8  A    between atoms: C6_9  and  C7_10
DOCKED: REMARK    9  A    between atoms: C6_9  and  C8_11
DOCKED: REMARK   10  A    between atoms: C6_9  and  C9_12
DOCKED: REMARK   11  A    between atoms: N2_15  and  C11_16
DOCKED: REMARK   12  A    between atoms: C11_16  and  C12_17
DOCKED: REMARK   13  A    between atoms: C11_16  and  C15_21
DOCKED: REMARK   14  A    between atoms: C12_17  and  C13_18
DOCKED: REMARK   15  A    between atoms: C13_18  and  S1_19
DOCKED: REMARK   16  A    between atoms: S1_19  and  C14_20
DOCKED: REMARK   17  A    between atoms: N3_23  and  C16_24
DOCKED: REMARK   18  A    between atoms: C16_24  and  C17_25
DOCKED: REMARK   19  A    between atoms: C16_24  and  C24_32
DOCKED: REMARK   20  A    between atoms: C17_25  and  C18_26
DOCKED: REMARK   21  A    between atoms: C24_32  and  O5_33
DOCKED: REMARK   22  A    between atoms: C24_32  and  C25_34
DOCKED: REMARK   23  A    between atoms: C25_34  and  C26_35
DOCKED: REMARK   24  A    between atoms: C26_35  and  C27_36
DOCKED: REMARK   25  A    between atoms: C26_35  and  C28_37
DOCKED: REMARK   26  A    between atoms: N4_39  and  C29_40
DOCKED: REMARK   27  A    between atoms: C29_40  and  C30_41
DOCKED: REMARK   28  A    between atoms: C29_40  and  C37_51
DOCKED: REMARK   29  A    between atoms: N5_43  and  C31_44
DOCKED: REMARK   30  A    between atoms: C31_44  and  C32_45
DOCKED: REMARK   31  A    between atoms: C37_51  and  C38_52
DOCKED: REMARK   32  A    between atoms: C37_51  and  C39_53
DOCKED: REMARK                            x       y       z     vdW  Elec       q    Type
DOCKED: REMARK                         _______ _______ _______ _____ _____    ______ ____
DOCKED: USER                              x       y       z     vdW  Elec       q    Type
DOCKED: USER                           _______ _______ _______ _____ _____    ______ ____
DOCKED: ROOT
DOCKED: ATOM      1  C16 UNL     1       7.361  -3.829  -0.469 +0.00 +0.00    +0.106 C  
DOCKED: ENDROOT
DOCKED: BRANCH   1   4
DOCKED: ATOM      2  C15 UNL     1       8.925  -2.341   0.763 +0.00 +0.00    +0.234 C  
DOCKED: ATOM      3  O4  UNL     1       9.856  -3.140   0.671 +0.00 -0.00    -0.274 OA 
DOCKED: ATOM      4  N3  UNL     1       7.692  -2.548   0.173 +0.00 -0.00    -0.308 N  
DOCKED: ATOM      5  H28 UNL     1       6.925  -1.976   0.506 +0.00 +0.00    +0.149 HD 
DOCKED: BRANCH   2   6
DOCKED: ATOM      6  C11 UNL     1       9.050  -1.001   1.514 +0.00 +0.00    +0.160 C  
DOCKED: BRANCH   6   9
DOCKED: ATOM      7  C10 UNL     1       7.368  -1.108   3.315 +0.00 +0.00    +0.234 C  
DOCKED: ATOM      8  O3  UNL     1       7.968  -2.003   3.911 +0.00 -0.00    -0.274 OA 
DOCKED: ATOM      9  N2  UNL     1       7.737  -0.676   2.055 +0.00 -0.00    -0.302 N  
DOCKED: ATOM     10  H19 UNL     1       7.323   0.191   1.719 +0.00 +0.00    +0.150 HD 
DOCKED: BRANCH   7  11
DOCKED: ATOM     11  C4  UNL     1       6.080  -0.466   3.859 +0.00 +0.00    +0.162 C  
DOCKED: BRANCH  11  12
DOCKED: ATOM     12  N1  UNL     1       5.292  -0.149   2.675 +0.00 -0.00    -0.270 N  
DOCKED: ATOM     13  C5  UNL     1       4.874  -1.128   1.821 +0.00 +0.00    +0.401 C  
DOCKED: ATOM     14  O1  UNL     1       5.314  -2.267   1.797 +0.00 -0.00    -0.226 OA 
DOCKED: ATOM     15  H9  UNL     1       4.689   0.662   2.709 +0.00 +0.00    +0.153 HD 
DOCKED: BRANCH  13  16
DOCKED: ATOM     16  O2  UNL     1       3.901  -0.622   1.031 +0.00 -0.00    -0.445 OA 
DOCKED: BRANCH  16  17
DOCKED: ATOM     17  C6  UNL     1       2.589  -1.245   0.979 +0.00 +0.00    +0.107 C  
DOCKED: ATOM     18  C7  UNL     1       2.350  -1.882  -0.397 +0.00 +0.00    +0.055 C  
DOCKED: ATOM     19  C8  UNL     1       2.383  -2.241   2.130 +0.00 +0.00    +0.055 C  
DOCKED: ATOM     20  C9  UNL     1       1.601  -0.083   1.168 +0.00 +0.00    +0.055 C  
DOCKED: ENDBRANCH  16  17
DOCKED: ENDBRANCH  13  16
DOCKED: ENDBRANCH  11  12
DOCKED: BRANCH  11  21
DOCKED: ATOM     21  C3  UNL     1       5.299  -1.419   4.771 +0.00 +0.00    +0.031 C  
DOCKED: BRANCH  21  23
DOCKED: ATOM     22  C1  UNL     1       3.703   0.479   5.405 +0.00 +0.00    +0.004 C  
DOCKED: ATOM     23  C2  UNL     1       3.850  -0.986   5.023 +0.00 -0.00    -0.001 C  
DOCKED: ENDBRANCH  21  23
DOCKED: ENDBRANCH  11  21
DOCKED: ENDBRANCH   7  11
DOCKED: ENDBRANCH   6   9
DOCKED: BRANCH   6  24
DOCKED: ATOM     24  C12 UNL     1      10.109  -1.113   2.613 +0.00 +0.00    +0.042 C  
DOCKED: BRANCH  24  25
DOCKED: ATOM     25  C13 UNL     1      10.876   0.202   2.763 +0.00 +0.00    +0.071 C  
DOCKED: BRANCH  25  26
DOCKED: ATOM     26  S1  UNL     1       9.758   1.642   2.728 +0.00 -0.00    -0.164 S  
DOCKED: ATOM     27  C14 UNL     1       9.190   1.627   4.450 +0.00 +0.00    +0.084 C  
DOCKED: ENDBRANCH  25  26
DOCKED: ENDBRANCH  24  25
DOCKED: ENDBRANCH   6  24
DOCKED: ENDBRANCH   2   6
DOCKED: ENDBRANCH   1   4
DOCKED: BRANCH   1  28
DOCKED: ATOM     28  C24 UNL     1       5.960  -3.745  -1.145 +0.00 +0.00    +0.136 C  
DOCKED: BRANCH  28  29
DOCKED: ATOM     29  O5  UNL     1       5.259  -2.559  -0.787 +0.00 -0.00    -0.390 OA 
DOCKED: ATOM     30  H38 UNL     1       5.703  -2.135  -0.033 +0.00 +0.00    +0.210 HD 
DOCKED: ENDBRANCH  28  29
DOCKED: BRANCH  28  31
DOCKED: ATOM     31  C25 UNL     1       6.006  -3.837  -2.679 +0.00 +0.00    +0.045 C  
DOCKED: BRANCH  31  32
DOCKED: ATOM     32  C26 UNL     1       7.344  -3.363  -3.290 +0.00 +0.00    +0.074 C  
DOCKED: ATOM     33  C27 UNL     1       7.721  -4.099  -4.573 +0.00 +0.00    +0.017 C  
DOCKED: BRANCH  32  34
DOCKED: ATOM     34  C28 UNL     1       7.265  -1.860  -3.543 +0.00 +0.00    +0.217 C  
DOCKED: ATOM     35  O6  UNL     1       7.881  -1.283  -4.434 +0.00 -0.00    -0.276 OA 
DOCKED: ATOM     36  N4  UNL     1       6.388  -1.209  -2.698 +0.00 -0.00    -0.304 N  
DOCKED: ATOM     37  H45 UNL     1       6.204  -1.665  -1.809 +0.00 +0.00    +0.149 HD 
DOCKED: BRANCH  36  38
DOCKED: ATOM     38  C29 UNL     1       6.338   0.251  -2.644 +0.00 +0.00    +0.161 C  
DOCKED: BRANCH  38  39
DOCKED: ATOM     39  C30 UNL     1       6.656   0.664  -1.193 +0.00 +0.00    +0.234 C  
DOCKED: ATOM     40  O7  UNL     1       6.537  -0.129  -0.255 +0.00 -0.00    -0.274 OA 
DOCKED: ATOM     41  N5  UNL     1       7.025   1.977  -1.028 +0.00 -0.00    -0.310 N  
DOCKED: ATOM     42  H47 UNL     1       7.301   2.503  -1.848 +0.00 +0.00    +0.149 HD 
DOCKED: BRANCH  41  43
DOCKED: ATOM     43  C31 UNL     1       7.438   2.497   0.256 +0.00 +0.00    +0.139 C  
DOCKED: BRANCH  43  44
DOCKED: ATOM     44  C32 UNL     1       6.272   2.586   1.206 +0.00 -0.00    -0.027 A  
DOCKED: ATOM     45  C33 UNL     1       4.957   2.491   0.739 +0.00 +0.00    +0.025 A  
DOCKED: ATOM     46  C34 UNL     1       3.919   2.569   1.654 +0.00 +0.00    +0.111 A  
DOCKED: ATOM     47  N6  UNL     1       4.099   2.738   2.979 +0.00 -0.00    -0.263 NA 
DOCKED: ATOM     48  C35 UNL     1       5.374   2.826   3.411 +0.00 +0.00    +0.111 A  
DOCKED: ATOM     49  C36 UNL     1       6.478   2.754   2.576 +0.00 +0.00    +0.025 A  
DOCKED: ENDBRANCH  43  44
DOCKED: ENDBRANCH  41  43
DOCKED: ENDBRANCH  38  39
DOCKED: BRANCH  38  50
DOCKED: ATOM     50  C37 UNL     1       4.977   0.820  -3.100 +0.00 +0.00    +0.012 C  
DOCKED: ATOM     51  C38 UNL     1       3.924   0.826  -1.985 +0.00 +0.00    +0.009 C  
DOCKED: ATOM     52  C39 UNL     1       4.452   0.044  -4.311 +0.00 +0.00    +0.009 C  
DOCKED: ENDBRANCH  38  50
DOCKED: ENDBRANCH  36  38
DOCKED: ENDBRANCH  32  34
DOCKED: ENDBRANCH  31  32
DOCKED: ENDBRANCH  28  31
DOCKED: ENDBRANCH   1  28
DOCKED: BRANCH   1  53
DOCKED: ATOM     53  C17 UNL     1       7.540  -4.989   0.540 +0.00 +0.00    +0.060 C  
DOCKED: BRANCH  53  54
DOCKED: ATOM     54  C18 UNL     1       6.585  -4.954   1.707 +0.00 -0.00    -0.046 A  
DOCKED: ATOM     55  C19 UNL     1       5.225  -5.232   1.517 +0.00 +0.00    +0.004 A  
DOCKED: ATOM     56  C20 UNL     1       4.333  -5.176   2.589 +0.00 +0.00    +0.000 A  
DOCKED: ATOM     57  C21 UNL     1       4.791  -4.839   3.862 +0.00 +0.00    +0.000 A  
DOCKED: ATOM     58  C22 UNL     1       6.141  -4.568   4.062 +0.00 +0.00    +0.000 A  
DOCKED: ATOM     59  C23 UNL     1       7.036  -4.628   2.994 +0.00 +0.00    +0.004 A  
DOCKED: ENDBRANCH  53  54
DOCKED: ENDBRANCH   1  53
DOCKED: TORSDOF 24
DOCKED: TER
DOCKED: ENDMDL
________________________________________________________________________________


    FINAL DOCKED STATE:
    ________________________


Run:   5 / 20
Time taken for this run:   2.704s

DOCKED: MODEL        5
DOCKED: USER    Run = 5
DOCKED: USER
DOCKED: USER    Estimated Free Energy of Binding    =  +7.16 kcal/mol  [=(1)+(2)+(3)-(4)]
DOCKED: USER
DOCKED: USER    (1) Final Intermolecular Energy     =  +0.00 kcal/mol
DOCKED: USER        vdW + Hbond + desolv Energy     =  +0.00 kcal/mol
DOCKED: USER        Electrostatic Energy            =  +0.00 kcal/mol
DOCKED: USER        Moving Ligand-Fixed Receptor    =  +0.00 kcal/mol
DOCKED: USER        Moving Ligand-Moving Receptor   =  +0.00 kcal/mol
DOCKED: USER    (2) Final Total Internal Energy     = -15.32 kcal/mol
DOCKED: USER    (3) Torsional Free Energy           =  +7.16 kcal/mol
DOCKED: USER    (4) Unbound System's Energy         = -15.32 kcal/mol
DOCKED: USER
DOCKED: USER
DOCKED: REMARK  Name = ligands/ligand_19.pdb
DOCKED: REMARK  32 active torsions:
DOCKED: REMARK  status: ('A' for Active; 'I' for Inactive)
DOCKED: REMARK    1  A    between atoms: C1_1  and  C2_2
DOCKED: REMARK    2  A    between atoms: C2_2  and  C3_3
DOCKED: REMARK    3  A    between atoms: C3_3  and  C4_4
DOCKED: REMARK    4  A    between atoms: C4_4  and  N1_5
DOCKED: REMARK    5  A    between atoms: C4_4  and  C10_13
DOCKED: REMARK    6  A    between atoms: C5_6  and  O2_8
DOCKED: REMARK    7  A    between atoms: O2_8  and  C6_9
DOCKED: REMARK    8  A    between atoms: C6_9  and  C7_10
DOCKED: REMARK    9  A    between atoms: C6_9  and  C8_11
DOCKED: REMARK   10  A    between atoms: C6_9  and  C9_12
DOCKED: REMARK   11  A    between atoms: N2_15  and  C11_16
DOCKED: REMARK   12  A    between atoms: C11_16  and  C12_17
DOCKED: REMARK   13  A    between atoms: C11_16  and  C15_21
DOCKED: REMARK   14  A    between atoms: C12_17  and  C13_18
DOCKED: REMARK   15  A    between atoms: C13_18  and  S1_19
DOCKED: REMARK   16  A    between atoms: S1_19  and  C14_20
DOCKED: REMARK   17  A    between atoms: N3_23  and  C16_24
DOCKED: REMARK   18  A    between atoms: C16_24  and  C17_25
DOCKED: REMARK   19  A    between atoms: C16_24  and  C24_32
DOCKED: REMARK   20  A    between atoms: C17_25  and  C18_26
DOCKED: REMARK   21  A    between atoms: C24_32  and  O5_33
DOCKED: REMARK   22  A    between atoms: C24_32  and  C25_34
DOCKED: REMARK   23  A    between atoms: C25_34  and  C26_35
DOCKED: REMARK   24  A    between atoms: C26_35  and  C27_36
DOCKED: REMARK   25  A    between atoms: C26_35  and  C28_37
DOCKED: REMARK   26  A    between atoms: N4_39  and  C29_40
DOCKED: REMARK   27  A    between atoms: C29_40  and  C30_41
DOCKED: REMARK   28  A    between atoms: C29_40  and  C37_51
DOCKED: REMARK   29  A    between atoms: N5_43  and  C31_44
DOCKED: REMARK   30  A    between atoms: C31_44  and  C32_45
DOCKED: REMARK   31  A    between atoms: C37_51  and  C38_52
DOCKED: REMARK   32  A    between atoms: C37_51  and  C39_53
DOCKED: REMARK                            x       y       z     vdW  Elec       q    Type
DOCKED: REMARK                         _______ _______ _______ _____ _____    ______ ____
DOCKED: USER                              x       y       z     vdW  Elec       q    Type
DOCKED: USER                           _______ _______ _______ _____ _____    ______ ____
DOCKED: ROOT
DOCKED: ATOM      1  C16 UNL     1      14.681  -7.717   2.416 +0.00 +0.00    +0.106 C  
DOCKED: ENDROOT
DOCKED: BRANCH   1   4
DOCKED: ATOM      2  C15 UNL     1      12.337  -8.463   2.060 +0.00 +0.00    +0.234 C  
DOCKED: ATOM      3  O4  UNL     1      12.680  -9.419   1.367 +0.00 -0.00    -0.274 OA 
DOCKED: ATOM      4  N3  UNL     1      13.238  -7.619   2.683 +0.00 -0.00    -0.308 N  
DOCKED: ATOM      5  H28 UNL     1      12.878  -6.732   3.014 +0.00 +0.00    +0.149 HD 
DOCKED: BRANCH   2   6
DOCKED: ATOM      6  C11 UNL     1      10.858  -8.128   2.341 +0.00 +0.00    +0.160 C  
DOCKED: BRANCH   6   9
DOCKED: ATOM      7  C10 UNL     1      10.379  -6.124   0.986 +0.00 +0.00    +0.234 C  
DOCKED: ATOM      8  O3  UNL     1      10.497  -6.734  -0.077 +0.00 -0.00    -0.274 OA 
DOCKED: ATOM      9  N2  UNL     1      10.701  -6.686   2.207 +0.00 -0.00    -0.302 N  
DOCKED: ATOM     10  H19 UNL     1      10.390  -6.196   3.043 +0.00 +0.00    +0.150 HD 
DOCKED: BRANCH   7  11
DOCKED: ATOM     11  C4  UNL     1       9.978  -4.640   1.052 +0.00 +0.00    +0.162 C  
DOCKED: BRANCH  11  12
DOCKED: ATOM     12  N1  UNL     1      11.239  -3.910   1.014 +0.00 -0.00    -0.270 N  
DOCKED: ATOM     13  C5  UNL     1      12.217  -4.140   1.938 +0.00 +0.00    +0.401 C  
DOCKED: ATOM     14  O1  UNL     1      12.055  -4.736   2.992 +0.00 -0.00    -0.226 OA 
DOCKED: ATOM     15  H9  UNL     1      11.578  -3.595   0.115 +0.00 +0.00    +0.153 HD 
DOCKED: BRANCH  13  16
DOCKED: ATOM     16  O2  UNL     1      13.372  -3.608   1.481 +0.00 -0.00    -0.445 OA 
DOCKED: BRANCH  16  17
DOCKED: ATOM     17  C6  UNL     1      13.815  -2.299   1.928 +0.00 +0.00    +0.107 C  
DOCKED: ATOM     18  C7  UNL     1      12.893  -1.767   3.034 +0.00 +0.00    +0.055 C  
DOCKED: ATOM     19  C8  UNL     1      15.292  -2.309   2.351 +0.00 +0.00    +0.055 C  
DOCKED: ATOM     20  C9  UNL     1      13.677  -1.400   0.689 +0.00 +0.00    +0.055 C  
DOCKED: ENDBRANCH  16  17
DOCKED: ENDBRANCH  13  16
DOCKED: ENDBRANCH  11  12
DOCKED: BRANCH  11  21
DOCKED: ATOM     21  C3  UNL     1       9.095  -4.226  -0.130 +0.00 +0.00    +0.031 C  
DOCKED: BRANCH  21  23
DOCKED: ATOM     22  C1  UNL     1      10.277  -2.675  -1.788 +0.00 +0.00    +0.004 C  
DOCKED: ATOM     23  C2  UNL     1       9.854  -4.098  -1.456 +0.00 -0.00    -0.001 C  
DOCKED: ENDBRANCH  21  23
DOCKED: ENDBRANCH  11  21
DOCKED: ENDBRANCH   7  11
DOCKED: ENDBRANCH   6   9
DOCKED: BRANCH   6  24
DOCKED: ATOM     24  C12 UNL     1       9.954  -8.894   1.374 +0.00 +0.00    +0.042 C  
DOCKED: BRANCH  24  25
DOCKED: ATOM     25  C13 UNL     1       8.680  -9.362   2.078 +0.00 +0.00    +0.071 C  
DOCKED: BRANCH  25  26
DOCKED: ATOM     26  S1  UNL     1       8.831  -9.246   3.892 +0.00 -0.00    -0.164 S  
DOCKED: ATOM     27  C14 UNL     1       8.134  -7.592   4.149 +0.00 +0.00    +0.084 C  
DOCKED: ENDBRANCH  25  26
DOCKED: ENDBRANCH  24  25
DOCKED: ENDBRANCH   6  24
DOCKED: ENDBRANCH   2   6
DOCKED: ENDBRANCH   1   4
DOCKED: BRANCH   1  28
DOCKED: ATOM     28  C24 UNL     1      15.431  -6.520   3.073 +0.00 +0.00    +0.136 C  
DOCKED: BRANCH  28  29
DOCKED: ATOM     29  O5  UNL     1      14.564  -5.423   3.344 +0.00 -0.00    -0.390 OA 
DOCKED: ATOM     30  H38 UNL     1      14.121  -5.150   2.521 +0.00 +0.00    +0.210 HD 
DOCKED: ENDBRANCH  28  29
DOCKED: BRANCH  28  31
DOCKED: ATOM     31  C25 UNL     1      16.166  -6.889   4.372 +0.00 +0.00    +0.045 C  
DOCKED: BRANCH  31  32
DOCKED: ATOM     32  C26 UNL     1      16.180  -5.755   5.422 +0.00 +0.00    +0.074 C  
DOCKED: ATOM     33  C27 UNL     1      16.400  -4.370   4.818 +0.00 +0.00    +0.017 C  
DOCKED: BRANCH  32  34
DOCKED: ATOM     34  C28 UNL     1      14.870  -5.792   6.203 +0.00 +0.00    +0.217 C  
DOCKED: ATOM     35  O6  UNL     1      14.692  -6.469   7.211 +0.00 -0.00    -0.276 OA 
DOCKED: ATOM     36  N4  UNL     1      13.906  -4.944   5.694 +0.00 -0.00    -0.304 N  
DOCKED: ATOM     37  H45 UNL     1      13.997  -4.705   4.710 +0.00 +0.00    +0.149 HD 
DOCKED: BRANCH  36  38
DOCKED: ATOM     38  C29 UNL     1      12.525  -4.998   6.173 +0.00 +0.00    +0.161 C  
DOCKED: BRANCH  38  39
DOCKED: ATOM     39  C30 UNL     1      11.967  -6.383   5.793 +0.00 +0.00    +0.234 C  
DOCKED: ATOM     40  O7  UNL     1      11.454  -6.594   4.690 +0.00 -0.00    -0.274 OA 
DOCKED: ATOM     41  N5  UNL     1      12.038  -7.333   6.783 +0.00 -0.00    -0.310 N  
DOCKED: ATOM     42  H47 UNL     1      12.648  -7.156   7.572 +0.00 +0.00    +0.149 HD 
DOCKED: BRANCH  41  43
DOCKED: ATOM     43  C31 UNL     1      11.637  -8.703   6.557 +0.00 +0.00    +0.139 C  
DOCKED: BRANCH  43  44
DOCKED: ATOM     44  C32 UNL     1      12.654  -9.435   5.720 +0.00 -0.00    -0.027 A  
DOCKED: ATOM     45  C33 UNL     1      14.022  -9.182   5.868 +0.00 +0.00    +0.025 A  
DOCKED: ATOM     46  C34 UNL     1      14.917  -9.888   5.081 +0.00 +0.00    +0.111 A  
DOCKED: ATOM     47  N6  UNL     1      14.550 -10.810   4.170 +0.00 -0.00    -0.263 NA 
DOCKED: ATOM     48  C35 UNL     1      13.227 -11.042   4.042 +0.00 +0.00    +0.111 A  
DOCKED: ATOM     49  C36 UNL     1      12.255 -10.392   4.786 +0.00 +0.00    +0.025 A  
DOCKED: ENDBRANCH  43  44
DOCKED: ENDBRANCH  41  43
DOCKED: ENDBRANCH  38  39
DOCKED: BRANCH  38  50
DOCKED: ATOM     50  C37 UNL     1      11.648  -3.866   5.595 +0.00 +0.00    +0.012 C  
DOCKED: ATOM     51  C38 UNL     1      11.952  -2.496   6.211 +0.00 +0.00    +0.009 C  
DOCKED: ATOM     52  C39 UNL     1      10.163  -4.200   5.767 +0.00 +0.00    +0.009 C  
DOCKED: ENDBRANCH  38  50
DOCKED: ENDBRANCH  36  38
DOCKED: ENDBRANCH  32  34
DOCKED: ENDBRANCH  31  32
DOCKED: ENDBRANCH  28  31
DOCKED: ENDBRANCH   1  28
DOCKED: BRANCH   1  53
DOCKED: ATOM     53  C17 UNL     1      14.927  -7.899   0.899 +0.00 +0.00    +0.060 C  
DOCKED: BRANCH  53  54
DOCKED: ATOM     54  C18 UNL     1      14.623  -6.678   0.066 +0.00 -0.00    -0.046 A  
DOCKED: ATOM     55  C19 UNL     1      15.550  -5.632  -0.021 +0.00 +0.00    +0.004 A  
DOCKED: ATOM     56  C20 UNL     1      15.262  -4.489  -0.770 +0.00 +0.00    +0.000 A  
DOCKED: ATOM     57  C21 UNL     1      14.043  -4.380  -1.436 +0.00 +0.00    +0.000 A  
DOCKED: ATOM     58  C22 UNL     1      13.118  -5.418  -1.362 +0.00 +0.00    +0.000 A  
DOCKED: ATOM     59  C23 UNL     1      13.405  -6.562  -0.619 +0.00 +0.00    +0.004 A  
DOCKED: ENDBRANCH  53  54
DOCKED: ENDBRANCH   1  53
DOCKED: TORSDOF 24
DOCKED: TER
DOCKED: ENDMDL
________________________________________________________________________________


    FINAL DOCKED STATE:
    ________________________


Run:   6 / 20
Time taken for this run:   2.704s

DOCKED: MODEL        6
DOCKED: USER    Run = 6
DOCKED: USER
DOCKED: USER    Estimated Free Energy of Binding    =  +7.16 kcal/mol  [=(1)+(2)+(3)-(4)]
DOCKED: USER
DOCKED: USER    (1) Final Intermolecular Energy     =  +0.00 kcal/mol
DOCKED: USER        vdW + Hbond + desolv Energy     =  +0.00 kcal/mol
DOCKED: USER        Electrostatic Energy            =  +0.00 kcal/mol
DOCKED: USER        Moving Ligand-Fixed Receptor    =  +0.00 kcal/mol
DOCKED: USER        Moving Ligand-Moving Receptor   =  +0.00 kcal/mol
DOCKED: USER    (2) Final Total Internal Energy     = -15.89 kcal/mol
DOCKED: USER    (3) Torsional Free Energy           =  +7.16 kcal/mol
DOCKED: USER    (4) Unbound System's Energy         = -15.89 kcal/mol
DOCKED: USER
DOCKED: USER
DOCKED: REMARK  Name = ligands/ligand_19.pdb
DOCKED: REMARK  32 active torsions:
DOCKED: REMARK  status: ('A' for Active; 'I' for Inactive)
DOCKED: REMARK    1  A    between atoms: C1_1  and  C2_2
DOCKED: REMARK    2  A    between atoms: C2_2  and  C3_3
DOCKED: REMARK    3  A    between atoms: C3_3  and  C4_4
DOCKED: REMARK    4  A    between atoms: C4_4  and  N1_5
DOCKED: REMARK    5  A    between atoms: C4_4  and  C10_13
DOCKED: REMARK    6  A    between atoms: C5_6  and  O2_8
DOCKED: REMARK    7  A    between atoms: O2_8  and  C6_9
DOCKED: REMARK    8  A    between atoms: C6_9  and  C7_10
DOCKED: REMARK    9  A    between atoms: C6_9  and  C8_11
DOCKED: REMARK   10  A    between atoms: C6_9  and  C9_12
DOCKED: REMARK   11  A    between atoms: N2_15  and  C11_16
DOCKED: REMARK   12  A    between atoms: C11_16  and  C12_17
DOCKED: REMARK   13  A    between atoms: C11_16  and  C15_21
DOCKED: REMARK   14  A    between atoms: C12_17  and  C13_18
DOCKED: REMARK   15  A    between atoms: C13_18  and  S1_19
DOCKED: REMARK   16  A    between atoms: S1_19  and  C14_20
DOCKED: REMARK   17  A    between atoms: N3_23  and  C16_24
DOCKED: REMARK   18  A    between atoms: C16_24  and  C17_25
DOCKED: REMARK   19  A    between atoms: C16_24  and  C24_32
DOCKED: REMARK   20  A    between atoms: C17_25  and  C18_26
DOCKED: REMARK   21  A    between atoms: C24_32  and  O5_33
DOCKED: REMARK   22  A    between atoms: C24_32  and  C25_34
DOCKED: REMARK   23  A    between atoms: C25_34  and  C26_35
DOCKED: REMARK   24  A    between atoms: C26_35  and  C27_36
DOCKED: REMARK   25  A    between atoms: C26_35  and  C28_37
DOCKED: REMARK   26  A    between atoms: N4_39  and  C29_40
DOCKED: REMARK   27  A    between atoms: C29_40  and  C30_41
DOCKED: REMARK   28  A    between atoms: C29_40  and  C37_51
DOCKED: REMARK   29  A    between atoms: N5_43  and  C31_44
DOCKED: REMARK   30  A    between atoms: C31_44  and  C32_45
DOCKED: REMARK   31  A    between atoms: C37_51  and  C38_52
DOCKED: REMARK   32  A    between atoms: C37_51  and  C39_53
DOCKED: REMARK                            x       y       z     vdW  Elec       q    Type
DOCKED: REMARK                         _______ _______ _______ _____ _____    ______ ____
DOCKED: USER                              x       y       z     vdW  Elec       q    Type
DOCKED: USER                           _______ _______ _______ _____ _____    ______ ____
DOCKED: ROOT
DOCKED: ATOM      1  C16 UNL     1       9.925   0.983  -0.703 +0.00 +0.00    +0.106 C  
DOCKED: ENDROOT
DOCKED: BRANCH   1   4
DOCKED: ATOM      2  C15 UNL     1      10.275  -1.216   0.401 +0.00 +0.00    +0.234 C  
DOCKED: ATOM      3  O4  UNL     1       9.953  -1.844  -0.607 +0.00 -0.00    -0.274 OA 
DOCKED: ATOM      4  N3  UNL     1      10.370   0.162   0.434 +0.00 -0.00    -0.308 N  
DOCKED: ATOM      5  H28 UNL     1      10.392   0.597   1.349 +0.00 +0.00    +0.149 HD 
DOCKED: BRANCH   2   6
DOCKED: ATOM      6  C11 UNL     1      10.648  -1.908   1.727 +0.00 +0.00    +0.160 C  
DOCKED: BRANCH   6   9
DOCKED: ATOM      7  C10 UNL     1      10.631  -1.061   4.044 +0.00 +0.00    +0.234 C  
DOCKED: ATOM      8  O3  UNL     1      11.540  -1.814   4.395 +0.00 -0.00    -0.274 OA 
DOCKED: ATOM      9  N2  UNL     1      10.022  -1.156   2.806 +0.00 -0.00    -0.302 N  
DOCKED: ATOM     10  H19 UNL     1       9.427  -0.381   2.519 +0.00 +0.00    +0.150 HD 
DOCKED: BRANCH   7  11
DOCKED: ATOM     11  C4  UNL     1      10.002  -0.022   4.987 +0.00 +0.00    +0.162 C  
DOCKED: BRANCH  11  12
DOCKED: ATOM     12  N1  UNL     1      10.490   1.264   4.506 +0.00 -0.00    -0.270 N  
DOCKED: ATOM     13  C5  UNL     1       9.899   1.894   3.449 +0.00 +0.00    +0.401 C  
DOCKED: ATOM     14  O1  UNL     1       9.128   1.364   2.664 +0.00 -0.00    -0.226 OA 
DOCKED: ATOM     15  H9  UNL     1      10.928   1.886   5.173 +0.00 +0.00    +0.153 HD 
DOCKED: BRANCH  13  16
DOCKED: ATOM     16  O2  UNL     1      10.306   3.182   3.436 +0.00 -0.00    -0.445 OA 
DOCKED: BRANCH  16  17
DOCKED: ATOM     17  C6  UNL     1       9.387   4.255   3.777 +0.00 +0.00    +0.107 C  
DOCKED: ATOM     18  C7  UNL     1       9.155   5.170   2.566 +0.00 +0.00    +0.055 C  
DOCKED: ATOM     19  C8  UNL     1       8.073   3.716   4.364 +0.00 +0.00    +0.055 C  
DOCKED: ATOM     20  C9  UNL     1      10.111   5.052   4.872 +0.00 +0.00    +0.055 C  
DOCKED: ENDBRANCH  16  17
DOCKED: ENDBRANCH  13  16
DOCKED: ENDBRANCH  11  12
DOCKED: BRANCH  11  21
DOCKED: ATOM     21  C3  UNL     1       8.470  -0.053   4.944 +0.00 +0.00    +0.031 C  
DOCKED: BRANCH  21  23
DOCKED: ATOM     22  C1  UNL     1       8.780   1.295   7.097 +0.00 +0.00    +0.004 C  
DOCKED: ATOM     23  C2  UNL     1       7.802   0.742   6.072 +0.00 -0.00    -0.001 C  
DOCKED: ENDBRANCH  21  23
DOCKED: ENDBRANCH  11  21
DOCKED: ENDBRANCH   7  11
DOCKED: ENDBRANCH   6   9
DOCKED: BRANCH   6  24
DOCKED: ATOM     24  C12 UNL     1      10.188  -3.367   1.706 +0.00 +0.00    +0.042 C  
DOCKED: BRANCH  24  25
DOCKED: ATOM     25  C13 UNL     1       8.688  -3.467   1.981 +0.00 +0.00    +0.071 C  
DOCKED: BRANCH  25  26
DOCKED: ATOM     26  S1  UNL     1       8.347  -3.810   3.740 +0.00 -0.00    -0.164 S  
DOCKED: ATOM     27  C14 UNL     1       6.772  -2.932   3.921 +0.00 +0.00    +0.084 C  
DOCKED: ENDBRANCH  25  26
DOCKED: ENDBRANCH  24  25
DOCKED: ENDBRANCH   6  24
DOCKED: ENDBRANCH   2   6
DOCKED: ENDBRANCH   1   4
DOCKED: BRANCH   1  28
DOCKED: ATOM     28  C24 UNL     1      10.328   2.471  -0.483 +0.00 +0.00    +0.136 C  
DOCKED: BRANCH  28  29
DOCKED: ATOM     29  O5  UNL     1      10.196   2.869   0.878 +0.00 -0.00    -0.390 OA 
DOCKED: ATOM     30  H38 UNL     1      10.675   2.242   1.447 +0.00 +0.00    +0.210 HD 
DOCKED: ENDBRANCH  28  29
DOCKED: BRANCH  28  31
DOCKED: ATOM     31  C25 UNL     1      11.756   2.801  -0.948 +0.00 +0.00    +0.045 C  
DOCKED: BRANCH  31  32
DOCKED: ATOM     32  C26 UNL     1      12.791   2.834   0.199 +0.00 +0.00    +0.074 C  
DOCKED: ATOM     33  C27 UNL     1      12.558   3.968   1.195 +0.00 +0.00    +0.017 C  
DOCKED: BRANCH  32  34
DOCKED: ATOM     34  C28 UNL     1      12.777   1.487   0.915 +0.00 +0.00    +0.217 C  
DOCKED: ATOM     35  O6  UNL     1      12.283   1.306   2.023 +0.00 -0.00    -0.276 OA 
DOCKED: ATOM     36  N4  UNL     1      13.335   0.467   0.170 +0.00 -0.00    -0.304 N  
DOCKED: ATOM     37  H45 UNL     1      14.006   0.748  -0.540 +0.00 +0.00    +0.149 HD 
DOCKED: BRANCH  36  38
DOCKED: ATOM     38  C29 UNL     1      13.606  -0.841   0.767 +0.00 +0.00    +0.161 C  
DOCKED: BRANCH  38  39
DOCKED: ATOM     39  C30 UNL     1      14.451  -0.596   2.032 +0.00 +0.00    +0.234 C  
DOCKED: ATOM     40  O7  UNL     1      15.677  -0.468   1.977 +0.00 -0.00    -0.274 OA 
DOCKED: ATOM     41  N5  UNL     1      13.746  -0.584   3.211 +0.00 -0.00    -0.310 N  
DOCKED: ATOM     42  H47 UNL     1      12.739  -0.486   3.165 +0.00 +0.00    +0.149 HD 
DOCKED: BRANCH  41  43
DOCKED: ATOM     43  C31 UNL     1      14.378  -0.281   4.476 +0.00 +0.00    +0.139 C  
DOCKED: BRANCH  43  44
DOCKED: ATOM     44  C32 UNL     1      13.665   0.843   5.183 +0.00 -0.00    -0.027 A  
DOCKED: ATOM     45  C33 UNL     1      13.616   2.125   4.626 +0.00 +0.00    +0.025 A  
DOCKED: ATOM     46  C34 UNL     1      12.940   3.122   5.311 +0.00 +0.00    +0.111 A  
DOCKED: ATOM     47  N6  UNL     1      12.323   2.932   6.495 +0.00 -0.00    -0.263 NA 
DOCKED: ATOM     48  C35 UNL     1      12.380   1.689   7.015 +0.00 +0.00    +0.111 A  
DOCKED: ATOM     49  C36 UNL     1      13.026   0.626   6.405 +0.00 +0.00    +0.025 A  
DOCKED: ENDBRANCH  43  44
DOCKED: ENDBRANCH  41  43
DOCKED: ENDBRANCH  38  39
DOCKED: BRANCH  38  50
DOCKED: ATOM     50  C37 UNL     1      14.323  -1.804  -0.204 +0.00 +0.00    +0.012 C  
DOCKED: ATOM     51  C38 UNL     1      13.865  -1.644  -1.658 +0.00 +0.00    +0.009 C  
DOCKED: ATOM     52  C39 UNL     1      14.138  -3.255   0.248 +0.00 +0.00    +0.009 C  
DOCKED: ENDBRANCH  38  50
DOCKED: ENDBRANCH  36  38
DOCKED: ENDBRANCH  32  34
DOCKED: ENDBRANCH  31  32
DOCKED: ENDBRANCH  28  31
DOCKED: ENDBRANCH   1  28
DOCKED: BRANCH   1  53
DOCKED: ATOM     53  C17 UNL     1       8.421   0.738  -0.975 +0.00 +0.00    +0.060 C  
DOCKED: BRANCH  53  54
DOCKED: ATOM     54  C18 UNL     1       7.535   0.887   0.237 +0.00 -0.00    -0.046 A  
DOCKED: ATOM     55  C19 UNL     1       7.084   2.153   0.633 +0.00 +0.00    +0.004 A  
DOCKED: ATOM     56  C20 UNL     1       6.286   2.299   1.769 +0.00 +0.00    +0.000 A  
DOCKED: ATOM     57  C21 UNL     1       5.932   1.181   2.521 +0.00 +0.00    +0.000 A  
DOCKED: ATOM     58  C22 UNL     1       6.369  -0.082   2.132 +0.00 +0.00    +0.000 A  
DOCKED: ATOM     59  C23 UNL     1       7.162  -0.231   0.996 +0.00 +0.00    +0.004 A  
DOCKED: ENDBRANCH  53  54
DOCKED: ENDBRANCH   1  53
DOCKED: TORSDOF 24
DOCKED: TER
DOCKED: ENDMDL
________________________________________________________________________________


    FINAL DOCKED STATE:
    ________________________


Run:   7 / 20
Time taken for this run:   2.704s

DOCKED: MODEL        7
DOCKED: USER    Run = 7
DOCKED: USER
DOCKED: USER    Estimated Free Energy of Binding    =  +7.16 kcal/mol  [=(1)+(2)+(3)-(4)]
DOCKED: USER
DOCKED: USER    (1) Final Intermolecular Energy     =  +0.00 kcal/mol
DOCKED: USER        vdW + Hbond + desolv Energy     =  +0.00 kcal/mol
DOCKED: USER        Electrostatic Energy            =  +0.00 kcal/mol
DOCKED: USER        Moving Ligand-Fixed Receptor    =  +0.00 kcal/mol
DOCKED: USER        Moving Ligand-Moving Receptor   =  +0.00 kcal/mol
DOCKED: USER    (2) Final Total Internal Energy     = -15.47 kcal/mol
DOCKED: USER    (3) Torsional Free Energy           =  +7.16 kcal/mol
DOCKED: USER    (4) Unbound System's Energy         = -15.47 kcal/mol
DOCKED: USER
DOCKED: USER
DOCKED: REMARK  Name = ligands/ligand_19.pdb
DOCKED: REMARK  32 active torsions:
DOCKED: REMARK  status: ('A' for Active; 'I' for Inactive)
DOCKED: REMARK    1  A    between atoms: C1_1  and  C2_2
DOCKED: REMARK    2  A    between atoms: C2_2  and  C3_3
DOCKED: REMARK    3  A    between atoms: C3_3  and  C4_4
DOCKED: REMARK    4  A    between atoms: C4_4  and  N1_5
DOCKED: REMARK    5  A    between atoms: C4_4  and  C10_13
DOCKED: REMARK    6  A    between atoms: C5_6  and  O2_8
DOCKED: REMARK    7  A    between atoms: O2_8  and  C6_9
DOCKED: REMARK    8  A    between atoms: C6_9  and  C7_10
DOCKED: REMARK    9  A    between atoms: C6_9  and  C8_11
DOCKED: REMARK   10  A    between atoms: C6_9  and  C9_12
DOCKED: REMARK   11  A    between atoms: N2_15  and  C11_16
DOCKED: REMARK   12  A    between atoms: C11_16  and  C12_17
DOCKED: REMARK   13  A    between atoms: C11_16  and  C15_21
DOCKED: REMARK   14  A    between atoms: C12_17  and  C13_18
DOCKED: REMARK   15  A    between atoms: C13_18  and  S1_19
DOCKED: REMARK   16  A    between atoms: S1_19  and  C14_20
DOCKED: REMARK   17  A    between atoms: N3_23  and  C16_24
DOCKED: REMARK   18  A    between atoms: C16_24  and  C17_25
DOCKED: REMARK   19  A    between atoms: C16_24  and  C24_32
DOCKED: REMARK   20  A    between atoms: C17_25  and  C18_26
DOCKED: REMARK   21  A    between atoms: C24_32  and  O5_33
DOCKED: REMARK   22  A    between atoms: C24_32  and  C25_34
DOCKED: REMARK   23  A    between atoms: C25_34  and  C26_35
DOCKED: REMARK   24  A    between atoms: C26_35  and  C27_36
DOCKED: REMARK   25  A    between atoms: C26_35  and  C28_37
DOCKED: REMARK   26  A    between atoms: N4_39  and  C29_40
DOCKED: REMARK   27  A    between atoms: C29_40  and  C30_41
DOCKED: REMARK   28  A    between atoms: C29_40  and  C37_51
DOCKED: REMARK   29  A    between atoms: N5_43  and  C31_44
DOCKED: REMARK   30  A    between atoms: C31_44  and  C32_45
DOCKED: REMARK   31  A    between atoms: C37_51  and  C38_52
DOCKED: REMARK   32  A    between atoms: C37_51  and  C39_53
DOCKED: REMARK                            x       y       z     vdW  Elec       q    Type
DOCKED: REMARK                         _______ _______ _______ _____ _____    ______ ____
DOCKED: USER                              x       y       z     vdW  Elec       q    Type
DOCKED: USER                           _______ _______ _______ _____ _____    ______ ____
DOCKED: ROOT
DOCKED: ATOM      1  C16 UNL     1       8.902   0.983   1.311 +0.00 +0.00    +0.106 C  
DOCKED: ENDROOT
DOCKED: BRANCH   1   4
DOCKED: ATOM      2  C15 UNL     1       9.546  -0.048  -0.857 +0.00 +0.00    +0.234 C  
DOCKED: ATOM      3  O4  UNL     1       8.797   0.687  -1.500 +0.00 -0.00    -0.274 OA 
DOCKED: ATOM      4  N3  UNL     1       9.729   0.069   0.508 +0.00 -0.00    -0.308 N  
DOCKED: ATOM      5  H28 UNL     1      10.155  -0.720   0.980 +0.00 +0.00    +0.149 HD 
DOCKED: BRANCH   2   6
DOCKED: ATOM      6  C11 UNL     1      10.394  -1.153  -1.517 +0.00 +0.00    +0.160 C  
DOCKED: BRANCH   6   9
DOCKED: ATOM      7  C10 UNL     1      12.141  -2.618  -0.579 +0.00 +0.00    +0.234 C  
DOCKED: ATOM      8  O3  UNL     1      12.722  -2.727  -1.659 +0.00 -0.00    -0.274 OA 
DOCKED: ATOM      9  N2  UNL     1      10.909  -2.006  -0.454 +0.00 -0.00    -0.302 N  
DOCKED: ATOM     10  H19 UNL     1      10.592  -1.780   0.487 +0.00 +0.00    +0.150 HD 
DOCKED: BRANCH   7  11
DOCKED: ATOM     11  C4  UNL     1      12.671  -3.256   0.718 +0.00 +0.00    +0.162 C  
DOCKED: BRANCH  11  12
DOCKED: ATOM     12  N1  UNL     1      11.601  -4.137   1.165 +0.00 -0.00    -0.270 N  
DOCKED: ATOM     13  C5  UNL     1      10.478  -3.640   1.760 +0.00 +0.00    +0.401 C  
DOCKED: ATOM     14  O1  UNL     1      10.368  -2.508   2.207 +0.00 -0.00    -0.226 OA 
DOCKED: ATOM     15  H9  UNL     1      11.461  -5.006   0.666 +0.00 +0.00    +0.153 HD 
DOCKED: BRANCH  13  16
DOCKED: ATOM     16  O2  UNL     1       9.528  -4.601   1.755 +0.00 -0.00    -0.445 OA 
DOCKED: BRANCH  16  17
DOCKED: ATOM     17  C6  UNL     1       9.220  -5.347   2.963 +0.00 +0.00    +0.107 C  
DOCKED: ATOM     18  C7  UNL     1       8.960  -4.389   4.135 +0.00 +0.00    +0.055 C  
DOCKED: ATOM     19  C8  UNL     1       8.063  -6.334   2.745 +0.00 +0.00    +0.055 C  
DOCKED: ATOM     20  C9  UNL     1      10.493  -6.156   3.254 +0.00 +0.00    +0.055 C  
DOCKED: ENDBRANCH  16  17
DOCKED: ENDBRANCH  13  16
DOCKED: ENDBRANCH  11  12
DOCKED: BRANCH  11  21
DOCKED: ATOM     21  C3  UNL     1      13.954  -4.063   0.483 +0.00 +0.00    +0.031 C  
DOCKED: BRANCH  21  23
DOCKED: ATOM     22  C1  UNL     1      14.089  -4.228   3.034 +0.00 +0.00    +0.004 C  
DOCKED: ATOM     23  C2  UNL     1      14.853  -4.169   1.720 +0.00 -0.00    -0.001 C  
DOCKED: ENDBRANCH  21  23
DOCKED: ENDBRANCH  11  21
DOCKED: ENDBRANCH   7  11
DOCKED: ENDBRANCH   6   9
DOCKED: BRANCH   6  24
DOCKED: ATOM     24  C12 UNL     1       9.544  -1.938  -2.519 +0.00 +0.00    +0.042 C  
DOCKED: BRANCH  24  25
DOCKED: ATOM     25  C13 UNL     1       8.710  -3.002  -1.806 +0.00 +0.00    +0.071 C  
DOCKED: BRANCH  25  26
DOCKED: ATOM     26  S1  UNL     1       9.552  -4.620  -1.789 +0.00 -0.00    -0.164 S  
DOCKED: ATOM     27  C14 UNL     1       8.334  -5.587  -0.859 +0.00 +0.00    +0.084 C  
DOCKED: ENDBRANCH  25  26
DOCKED: ENDBRANCH  24  25
DOCKED: ENDBRANCH   6  24
DOCKED: ENDBRANCH   2   6
DOCKED: ENDBRANCH   1   4
DOCKED: BRANCH   1  28
DOCKED: ATOM     28  C24 UNL     1       9.377   0.973   2.795 +0.00 +0.00    +0.136 C  
DOCKED: BRANCH  28  29
DOCKED: ATOM     29  O5  UNL     1       9.781  -0.323   3.224 +0.00 -0.00    -0.390 OA 
DOCKED: ATOM     30  H38 UNL     1      10.002  -0.867   2.448 +0.00 +0.00    +0.210 HD 
DOCKED: ENDBRANCH  28  29
DOCKED: BRANCH  28  31
DOCKED: ATOM     31  C25 UNL     1      10.522   1.958   3.084 +0.00 +0.00    +0.045 C  
DOCKED: BRANCH  31  32
DOCKED: ATOM     32  C26 UNL     1      11.696   1.857   2.085 +0.00 +0.00    +0.074 C  
DOCKED: ATOM     33  C27 UNL     1      12.743   2.954   2.264 +0.00 +0.00    +0.017 C  
DOCKED: BRANCH  32  34
DOCKED: ATOM     34  C28 UNL     1      12.340   0.481   2.220 +0.00 +0.00    +0.217 C  
DOCKED: ATOM     35  O6  UNL     1      11.956  -0.518   1.619 +0.00 -0.00    -0.276 OA 
DOCKED: ATOM     36  N4  UNL     1      13.441   0.473   3.054 +0.00 -0.00    -0.304 N  
DOCKED: ATOM     37  H45 UNL     1      13.477   1.209   3.754 +0.00 +0.00    +0.149 HD 
DOCKED: BRANCH  36  38
DOCKED: ATOM     38  C29 UNL     1      14.058  -0.785   3.475 +0.00 +0.00    +0.161 C  
DOCKED: BRANCH  38  39
DOCKED: ATOM     39  C30 UNL     1      13.262  -1.297   4.691 +0.00 +0.00    +0.234 C  
DOCKED: ATOM     40  O7  UNL     1      13.759  -1.336   5.820 +0.00 -0.00    -0.274 OA 
DOCKED: ATOM     41  N5  UNL     1      11.994  -1.745   4.411 +0.00 -0.00    -0.310 N  
DOCKED: ATOM     42  H47 UNL     1      11.583  -1.493   3.521 +0.00 +0.00    +0.149 HD 
DOCKED: BRANCH  41  43
DOCKED: ATOM     43  C31 UNL     1      11.089  -2.175   5.454 +0.00 +0.00    +0.139 C  
DOCKED: BRANCH  43  44
DOCKED: ATOM     44  C32 UNL     1      10.131  -1.074   5.829 +0.00 -0.00    -0.027 A  
DOCKED: ATOM     45  C33 UNL     1      10.598   0.200   6.168 +0.00 +0.00    +0.025 A  
DOCKED: ATOM     46  C34 UNL     1       9.676   1.181   6.495 +0.00 +0.00    +0.111 A  
DOCKED: ATOM     47  N6  UNL     1       8.343   0.981   6.513 +0.00 -0.00    -0.263 NA 
DOCKED: ATOM     48  C35 UNL     1       7.911  -0.253   6.182 +0.00 +0.00    +0.111 A  
DOCKED: ATOM     49  C36 UNL     1       8.753  -1.298   5.834 +0.00 +0.00    +0.025 A  
DOCKED: ENDBRANCH  43  44
DOCKED: ENDBRANCH  41  43
DOCKED: ENDBRANCH  38  39
DOCKED: BRANCH  38  50
DOCKED: ATOM     50  C37 UNL     1      15.556  -0.631   3.815 +0.00 +0.00    +0.012 C  
DOCKED: ATOM     51  C38 UNL     1      15.916   0.768   4.329 +0.00 +0.00    +0.009 C  
DOCKED: ATOM     52  C39 UNL     1      16.419  -0.981   2.600 +0.00 +0.00    +0.009 C  
DOCKED: ENDBRANCH  38  50
DOCKED: ENDBRANCH  36  38
DOCKED: ENDBRANCH  32  34
DOCKED: ENDBRANCH  31  32
DOCKED: ENDBRANCH  28  31
DOCKED: ENDBRANCH   1  28
DOCKED: BRANCH   1  53
DOCKED: ATOM     53  C17 UNL     1       7.402   0.667   1.095 +0.00 +0.00    +0.060 C  
DOCKED: BRANCH  53  54
DOCKED: ATOM     54  C18 UNL     1       6.983  -0.713   1.540 +0.00 -0.00    -0.046 A  
DOCKED: ATOM     55  C19 UNL     1       6.667  -0.958   2.882 +0.00 +0.00    +0.004 A  
DOCKED: ATOM     56  C20 UNL     1       6.305  -2.238   3.304 +0.00 +0.00    +0.000 A  
DOCKED: ATOM     57  C21 UNL     1       6.258  -3.287   2.388 +0.00 +0.00    +0.000 A  
DOCKED: ATOM     58  C22 UNL     1       6.563  -3.053   1.050 +0.00 +0.00    +0.000 A  
DOCKED: ATOM     59  C23 UNL     1       6.921  -1.773   0.626 +0.00 +0.00    +0.004 A  
DOCKED: ENDBRANCH  53  54
DOCKED: ENDBRANCH   1  53
DOCKED: TORSDOF 24
DOCKED: TER
DOCKED: ENDMDL
________________________________________________________________________________


    FINAL DOCKED STATE:
    ________________________


Run:   8 / 20
Time taken for this run:   2.704s

DOCKED: MODEL        8
DOCKED: USER    Run = 8
DOCKED: USER
DOCKED: USER    Estimated Free Energy of Binding    =  +7.16 kcal/mol  [=(1)+(2)+(3)-(4)]
DOCKED: USER
DOCKED: USER    (1) Final Intermolecular Energy     =  +0.00 kcal/mol
DOCKED: USER        vdW + Hbond + desolv Energy     =  +0.00 kcal/mol
DOCKED: USER        Electrostatic Energy            =  +0.00 kcal/mol
DOCKED: USER        Moving Ligand-Fixed Receptor    =  +0.00 kcal/mol
DOCKED: USER        Moving Ligand-Moving Receptor   =  +0.00 kcal/mol
DOCKED: USER    (2) Final Total Internal Energy     = -15.89 kcal/mol
DOCKED: USER    (3) Torsional Free Energy           =  +7.16 kcal/mol
DOCKED: USER    (4) Unbound System's Energy         = -15.89 kcal/mol
DOCKED: USER
DOCKED: USER
DOCKED: REMARK  Name = ligands/ligand_19.pdb
DOCKED: REMARK  32 active torsions:
DOCKED: REMARK  status: ('A' for Active; 'I' for Inactive)
DOCKED: REMARK    1  A    between atoms: C1_1  and  C2_2
DOCKED: REMARK    2  A    between atoms: C2_2  and  C3_3
DOCKED: REMARK    3  A    between atoms: C3_3  and  C4_4
DOCKED: REMARK    4  A    between atoms: C4_4  and  N1_5
DOCKED: REMARK    5  A    between atoms: C4_4  and  C10_13
DOCKED: REMARK    6  A    between atoms: C5_6  and  O2_8
DOCKED: REMARK    7  A    between atoms: O2_8  and  C6_9
DOCKED: REMARK    8  A    between atoms: C6_9  and  C7_10
DOCKED: REMARK    9  A    between atoms: C6_9  and  C8_11
DOCKED: REMARK   10  A    between atoms: C6_9  and  C9_12
DOCKED: REMARK   11  A    between atoms: N2_15  and  C11_16
DOCKED: REMARK   12  A    between atoms: C11_16  and  C12_17
DOCKED: REMARK   13  A    between atoms: C11_16  and  C15_21
DOCKED: REMARK   14  A    between atoms: C12_17  and  C13_18
DOCKED: REMARK   15  A    between atoms: C13_18  and  S1_19
DOCKED: REMARK   16  A    between atoms: S1_19  and  C14_20
DOCKED: REMARK   17  A    between atoms: N3_23  and  C16_24
DOCKED: REMARK   18  A    between atoms: C16_24  and  C17_25
DOCKED: REMARK   19  A    between atoms: C16_24  and  C24_32
DOCKED: REMARK   20  A    between atoms: C17_25  and  C18_26
DOCKED: REMARK   21  A    between atoms: C24_32  and  O5_33
DOCKED: REMARK   22  A    between atoms: C24_32  and  C25_34
DOCKED: REMARK   23  A    between atoms: C25_34  and  C26_35
DOCKED: REMARK   24  A    between atoms: C26_35  and  C27_36
DOCKED: REMARK   25  A    between atoms: C26_35  and  C28_37
DOCKED: REMARK   26  A    between atoms: N4_39  and  C29_40
DOCKED: REMARK   27  A    between atoms: C29_40  and  C30_41
DOCKED: REMARK   28  A    between atoms: C29_40  and  C37_51
DOCKED: REMARK   29  A    between atoms: N5_43  and  C31_44
DOCKED: REMARK   30  A    between atoms: C31_44  and  C32_45
DOCKED: REMARK   31  A    between atoms: C37_51  and  C38_52
DOCKED: REMARK   32  A    between atoms: C37_51  and  C39_53
DOCKED: REMARK                            x       y       z     vdW  Elec       q    Type
DOCKED: REMARK                         _______ _______ _______ _____ _____    ______ ____
DOCKED: USER                              x       y       z     vdW  Elec       q    Type
DOCKED: USER                           _______ _______ _______ _____ _____    ______ ____
DOCKED: ROOT
DOCKED: ATOM      1  C16 UNL     1      10.766   2.365   1.752 +0.00 +0.00    +0.106 C  
DOCKED: ENDROOT
DOCKED: BRANCH   1   4
DOCKED: ATOM      2  C15 UNL     1       9.365   0.328   1.499 +0.00 +0.00    +0.234 C  
DOCKED: ATOM      3  O4  UNL     1       8.317   0.971   1.512 +0.00 -0.00    -0.274 OA 
DOCKED: ATOM      4  N3  UNL     1      10.614   0.919   1.530 +0.00 -0.00    -0.308 N  
DOCKED: ATOM      5  H28 UNL     1      11.396   0.321   1.769 +0.00 +0.00    +0.149 HD 
DOCKED: BRANCH   2   6
DOCKED: ATOM      6  C11 UNL     1       9.395  -1.211   1.404 +0.00 +0.00    +0.160 C  
DOCKED: BRANCH   6   9
DOCKED: ATOM      7  C10 UNL     1      11.135  -2.839   2.038 +0.00 +0.00    +0.234 C  
DOCKED: ATOM      8  O3  UNL     1      10.762  -3.662   1.201 +0.00 -0.00    -0.274 OA 
DOCKED: ATOM      9  N2  UNL     1      10.424  -1.688   2.318 +0.00 -0.00    -0.302 N  
DOCKED: ATOM     10  H19 UNL     1      10.894  -0.971   2.868 +0.00 +0.00    +0.150 HD 
DOCKED: BRANCH   7  11
DOCKED: ATOM     11  C4  UNL     1      12.361  -3.068   2.939 +0.00 +0.00    +0.162 C  
DOCKED: BRANCH  11  12
DOCKED: ATOM     12  N1  UNL     1      13.370  -2.143   2.439 +0.00 -0.00    -0.270 N  
DOCKED: ATOM     13  C5  UNL     1      13.364  -0.827   2.800 +0.00 +0.00    +0.401 C  
DOCKED: ATOM     14  O1  UNL     1      12.422  -0.251   3.322 +0.00 -0.00    -0.226 OA 
DOCKED: ATOM     15  H9  UNL     1      14.285  -2.513   2.218 +0.00 +0.00    +0.153 HD 
DOCKED: BRANCH  13  16
DOCKED: ATOM     16  O2  UNL     1      14.566  -0.292   2.491 +0.00 -0.00    -0.445 OA 
DOCKED: BRANCH  16  17
DOCKED: ATOM     17  C6  UNL     1      15.511   0.063   3.535 +0.00 +0.00    +0.107 C  
DOCKED: ATOM     18  C7  UNL     1      15.746   1.580   3.557 +0.00 +0.00    +0.055 C  
DOCKED: ATOM     19  C8  UNL     1      15.080  -0.484   4.905 +0.00 +0.00    +0.055 C  
DOCKED: ATOM     20  C9  UNL     1      16.817  -0.638   3.129 +0.00 +0.00    +0.055 C  
DOCKED: ENDBRANCH  16  17
DOCKED: ENDBRANCH  13  16
DOCKED: ENDBRANCH  11  12
DOCKED: BRANCH  11  21
DOCKED: ATOM     21  C3  UNL     1      12.060  -2.771   4.413 +0.00 +0.00    +0.031 C  
DOCKED: BRANCH  21  23
DOCKED: ATOM     22  C1  UNL     1      14.253  -4.059   4.705 +0.00 +0.00    +0.004 C  
DOCKED: ATOM     23  C2  UNL     1      13.145  -3.262   5.378 +0.00 -0.00    -0.001 C  
DOCKED: ENDBRANCH  21  23
DOCKED: ENDBRANCH  11  21
DOCKED: ENDBRANCH   7  11
DOCKED: ENDBRANCH   6   9
DOCKED: BRANCH   6  24
DOCKED: ATOM     24  C12 UNL     1       8.018  -1.785   1.743 +0.00 +0.00    +0.042 C  
DOCKED: BRANCH  24  25
DOCKED: ATOM     25  C13 UNL     1       7.800  -1.812   3.256 +0.00 +0.00    +0.071 C  
DOCKED: BRANCH  25  26
DOCKED: ATOM     26  S1  UNL     1       8.211  -3.440   3.967 +0.00 -0.00    -0.164 S  
DOCKED: ATOM     27  C14 UNL     1       8.780  -2.919   5.608 +0.00 +0.00    +0.084 C  
DOCKED: ENDBRANCH  25  26
DOCKED: ENDBRANCH  24  25
DOCKED: ENDBRANCH   6  24
DOCKED: ENDBRANCH   2   6
DOCKED: ENDBRANCH   1   4
DOCKED: BRANCH   1  28
DOCKED: ATOM     28  C24 UNL     1      12.244   2.793   1.511 +0.00 +0.00    +0.136 C  
DOCKED: BRANCH  28  29
DOCKED: ATOM     29  O5  UNL     1      13.171   1.823   1.987 +0.00 -0.00    -0.390 OA 
DOCKED: ATOM     30  H38 UNL     1      12.938   0.949   1.628 +0.00 +0.00    +0.210 HD 
DOCKED: ENDBRANCH  28  29
DOCKED: BRANCH  28  31
DOCKED: ATOM     31  C25 UNL     1      12.570   3.094   0.039 +0.00 +0.00    +0.045 C  
DOCKED: BRANCH  31  32
DOCKED: ATOM     32  C26 UNL     1      13.272   1.928  -0.692 +0.00 +0.00    +0.074 C  
DOCKED: ATOM     33  C27 UNL     1      14.674   1.635  -0.162 +0.00 +0.00    +0.017 C  
DOCKED: BRANCH  32  34
DOCKED: ATOM     34  C28 UNL     1      12.396   0.683  -0.592 +0.00 +0.00    +0.217 C  
DOCKED: ATOM     35  O6  UNL     1      12.649  -0.276   0.130 +0.00 -0.00    -0.276 OA 
DOCKED: ATOM     36  N4  UNL     1      11.252   0.758  -1.361 +0.00 -0.00    -0.304 N  
DOCKED: ATOM     37  H45 UNL     1      11.290   1.386  -2.159 +0.00 +0.00    +0.149 HD 
DOCKED: BRANCH  36  38
DOCKED: ATOM     38  C29 UNL     1      10.401  -0.416  -1.562 +0.00 +0.00    +0.161 C  
DOCKED: BRANCH  38  39
DOCKED: ATOM     39  C30 UNL     1      11.308  -1.550  -2.079 +0.00 +0.00    +0.234 C  
DOCKED: ATOM     40  O7  UNL     1      11.594  -1.656  -3.275 +0.00 -0.00    -0.274 OA 
DOCKED: ATOM     41  N5  UNL     1      11.721  -2.447  -1.124 +0.00 -0.00    -0.310 N  
DOCKED: ATOM     42  H47 UNL     1      11.624  -2.187  -0.150 +0.00 +0.00    +0.149 HD 
DOCKED: BRANCH  41  43
DOCKED: ATOM     43  C31 UNL     1      12.643  -3.517  -1.430 +0.00 +0.00    +0.139 C  
DOCKED: BRANCH  43  44
DOCKED: ATOM     44  C32 UNL     1      13.816  -3.510  -0.483 +0.00 -0.00    -0.027 A  
DOCKED: ATOM     45  C33 UNL     1      14.717  -2.441  -0.464 +0.00 +0.00    +0.025 A  
DOCKED: ATOM     46  C34 UNL     1      15.773  -2.477   0.432 +0.00 +0.00    +0.111 A  
DOCKED: ATOM     47  N6  UNL     1      15.991  -3.490   1.293 +0.00 -0.00    -0.263 NA 
DOCKED: ATOM     48  C35 UNL     1      15.111  -4.511   1.262 +0.00 +0.00    +0.111 A  
DOCKED: ATOM     49  C36 UNL     1      14.022  -4.565   0.407 +0.00 +0.00    +0.025 A  
DOCKED: ENDBRANCH  43  44
DOCKED: ENDBRANCH  41  43
DOCKED: ENDBRANCH  38  39
DOCKED: BRANCH  38  50
DOCKED: ATOM     50  C37 UNL     1       9.235  -0.147  -2.537 +0.00 +0.00    +0.012 C  
DOCKED: ATOM     51  C38 UNL     1       8.710   1.291  -2.466 +0.00 +0.00    +0.009 C  
DOCKED: ATOM     52  C39 UNL     1       8.092  -1.136  -2.288 +0.00 +0.00    +0.009 C  
DOCKED: ENDBRANCH  38  50
DOCKED: ENDBRANCH  36  38
DOCKED: ENDBRANCH  32  34
DOCKED: ENDBRANCH  31  32
DOCKED: ENDBRANCH  28  31
DOCKED: ENDBRANCH   1  28
DOCKED: BRANCH   1  53
DOCKED: ATOM     53  C17 UNL     1      10.181   2.753   3.132 +0.00 +0.00    +0.060 C  
DOCKED: BRANCH  53  54
DOCKED: ATOM     54  C18 UNL     1      10.693   1.922   4.283 +0.00 -0.00    -0.046 A  
DOCKED: ATOM     55  C19 UNL     1      11.918   2.229   4.887 +0.00 +0.00    +0.004 A  
DOCKED: ATOM     56  C20 UNL     1      12.408   1.448   5.936 +0.00 +0.00    +0.000 A  
DOCKED: ATOM     57  C21 UNL     1      11.679   0.350   6.387 +0.00 +0.00    +0.000 A  
DOCKED: ATOM     58  C22 UNL     1      10.456   0.041   5.798 +0.00 +0.00    +0.000 A  
DOCKED: ATOM     59  C23 UNL     1       9.963   0.822   4.754 +0.00 +0.00    +0.004 A  
DOCKED: ENDBRANCH  53  54
DOCKED: ENDBRANCH   1  53
DOCKED: TORSDOF 24
DOCKED: TER
DOCKED: ENDMDL
________________________________________________________________________________


    FINAL DOCKED STATE:
    ________________________


Run:   9 / 20
Time taken for this run:   2.704s

DOCKED: MODEL        9
DOCKED: USER    Run = 9
DOCKED: USER
DOCKED: USER    Estimated Free Energy of Binding    =  +7.16 kcal/mol  [=(1)+(2)+(3)-(4)]
DOCKED: USER
DOCKED: USER    (1) Final Intermolecular Energy     =  +0.00 kcal/mol
DOCKED: USER        vdW + Hbond + desolv Energy     =  +0.00 kcal/mol
DOCKED: USER        Electrostatic Energy            =  +0.00 kcal/mol
DOCKED: USER        Moving Ligand-Fixed Receptor    =  +0.00 kcal/mol
DOCKED: USER        Moving Ligand-Moving Receptor   =  +0.00 kcal/mol
DOCKED: USER    (2) Final Total Internal Energy     = -15.88 kcal/mol
DOCKED: USER    (3) Torsional Free Energy           =  +7.16 kcal/mol
DOCKED: USER    (4) Unbound System's Energy         = -15.88 kcal/mol
DOCKED: USER
DOCKED: USER
DOCKED: REMARK  Name = ligands/ligand_19.pdb
DOCKED: REMARK  32 active torsions:
DOCKED: REMARK  status: ('A' for Active; 'I' for Inactive)
DOCKED: REMARK    1  A    between atoms: C1_1  and  C2_2
DOCKED: REMARK    2  A    between atoms: C2_2  and  C3_3
DOCKED: REMARK    3  A    between atoms: C3_3  and  C4_4
DOCKED: REMARK    4  A    between atoms: C4_4  and  N1_5
DOCKED: REMARK    5  A    between atoms: C4_4  and  C10_13
DOCKED: REMARK    6  A    between atoms: C5_6  and  O2_8
DOCKED: REMARK    7  A    between atoms: O2_8  and  C6_9
DOCKED: REMARK    8  A    between atoms: C6_9  and  C7_10
DOCKED: REMARK    9  A    between atoms: C6_9  and  C8_11
DOCKED: REMARK   10  A    between atoms: C6_9  and  C9_12
DOCKED: REMARK   11  A    between atoms: N2_15  and  C11_16
DOCKED: REMARK   12  A    between atoms: C11_16  and  C12_17
DOCKED: REMARK   13  A    between atoms: C11_16  and  C15_21
DOCKED: REMARK   14  A    between atoms: C12_17  and  C13_18
DOCKED: REMARK   15  A    between atoms: C13_18  and  S1_19
DOCKED: REMARK   16  A    between atoms: S1_19  and  C14_20
DOCKED: REMARK   17  A    between atoms: N3_23  and  C16_24
DOCKED: REMARK   18  A    between atoms: C16_24  and  C17_25
DOCKED: REMARK   19  A    between atoms: C16_24  and  C24_32
DOCKED: REMARK   20  A    between atoms: C17_25  and  C18_26
DOCKED: REMARK   21  A    between atoms: C24_32  and  O5_33
DOCKED: REMARK   22  A    between atoms: C24_32  and  C25_34
DOCKED: REMARK   23  A    between atoms: C25_34  and  C26_35
DOCKED: REMARK   24  A    between atoms: C26_35  and  C27_36
DOCKED: REMARK   25  A    between atoms: C26_35  and  C28_37
DOCKED: REMARK   26  A    between atoms: N4_39  and  C29_40
DOCKED: REMARK   27  A    between atoms: C29_40  and  C30_41
DOCKED: REMARK   28  A    between atoms: C29_40  and  C37_51
DOCKED: REMARK   29  A    between atoms: N5_43  and  C31_44
DOCKED: REMARK   30  A    between atoms: C31_44  and  C32_45
DOCKED: REMARK   31  A    between atoms: C37_51  and  C38_52
DOCKED: REMARK   32  A    between atoms: C37_51  and  C39_53
DOCKED: REMARK                            x       y       z     vdW  Elec       q    Type
DOCKED: REMARK                         _______ _______ _______ _____ _____    ______ ____
DOCKED: USER                              x       y       z     vdW  Elec       q    Type
DOCKED: USER                           _______ _______ _______ _____ _____    ______ ____
DOCKED: ROOT
DOCKED: ATOM      1  C16 UNL     1       2.652  -0.928   4.946 +0.00 +0.00    +0.106 C  
DOCKED: ENDROOT
DOCKED: BRANCH   1   4
DOCKED: ATOM      2  C15 UNL     1       1.399   1.195   5.258 +0.00 +0.00    +0.234 C  
DOCKED: ATOM      3  O4  UNL     1       0.353   0.610   5.535 +0.00 -0.00    -0.274 OA 
DOCKED: ATOM      4  N3  UNL     1       2.594   0.539   5.032 +0.00 -0.00    -0.308 N  
DOCKED: ATOM      5  H28 UNL     1       3.325   1.068   4.571 +0.00 +0.00    +0.149 HD 
DOCKED: BRANCH   2   6
DOCKED: ATOM      6  C11 UNL     1       1.494   2.731   5.173 +0.00 +0.00    +0.160 C  
DOCKED: BRANCH   6   9
DOCKED: ATOM      7  C10 UNL     1       3.075   4.172   3.946 +0.00 +0.00    +0.234 C  
DOCKED: ATOM      8  O3  UNL     1       2.988   5.082   4.772 +0.00 -0.00    -0.274 OA 
DOCKED: ATOM      9  N2  UNL     1       2.257   3.059   3.976 +0.00 -0.00    -0.302 N  
DOCKED: ATOM     10  H19 UNL     1       2.521   2.270   3.390 +0.00 +0.00    +0.150 HD 
DOCKED: BRANCH   7  11
DOCKED: ATOM     11  C4  UNL     1       4.019   4.239   2.732 +0.00 +0.00    +0.162 C  
DOCKED: BRANCH  11  12
DOCKED: ATOM     12  N1  UNL     1       5.097   3.311   3.046 +0.00 -0.00    -0.270 N  
DOCKED: ATOM     13  C5  UNL     1       4.947   1.966   2.866 +0.00 +0.00    +0.401 C  
DOCKED: ATOM     14  O1  UNL     1       3.878   1.400   2.700 +0.00 -0.00    -0.226 OA 
DOCKED: ATOM     15  H9  UNL     1       6.049   3.642   2.958 +0.00 +0.00    +0.153 HD 
DOCKED: BRANCH  13  16
DOCKED: ATOM     16  O2  UNL     1       6.169   1.390   2.896 +0.00 -0.00    -0.445 OA 
DOCKED: BRANCH  16  17
DOCKED: ATOM     17  C6  UNL     1       6.764   0.850   1.686 +0.00 +0.00    +0.107 C  
DOCKED: ATOM     18  C7  UNL     1       6.756  -0.685   1.720 +0.00 +0.00    +0.055 C  
DOCKED: ATOM     19  C8  UNL     1       6.096   1.411   0.421 +0.00 +0.00    +0.055 C  
DOCKED: ATOM     20  C9  UNL     1       8.220   1.341   1.718 +0.00 +0.00    +0.055 C  
DOCKED: ENDBRANCH  16  17
DOCKED: ENDBRANCH  13  16
DOCKED: ENDBRANCH  11  12
DOCKED: BRANCH  11  21
DOCKED: ATOM     21  C3  UNL     1       3.322   3.817   1.434 +0.00 +0.00    +0.031 C  
DOCKED: BRANCH  21  23
DOCKED: ATOM     22  C1  UNL     1       5.349   5.006   0.419 +0.00 +0.00    +0.004 C  
DOCKED: ATOM     23  C2  UNL     1       4.123   4.142   0.167 +0.00 -0.00    -0.001 C  
DOCKED: ENDBRANCH  21  23
DOCKED: ENDBRANCH  11  21
DOCKED: ENDBRANCH   7  11
DOCKED: ENDBRANCH   6   9
DOCKED: BRANCH   6  24
DOCKED: ATOM     24  C12 UNL     1       0.092   3.344   5.143 +0.00 +0.00    +0.042 C  
DOCKED: BRANCH  24  25
DOCKED: ATOM     25  C13 UNL     1      -0.547   3.168   3.765 +0.00 +0.00    +0.071 C  
DOCKED: BRANCH  25  26
DOCKED: ATOM     26  S1  UNL     1      -0.282   4.629   2.707 +0.00 -0.00    -0.164 S  
DOCKED: ATOM     27  C14 UNL     1      -0.145   3.816   1.093 +0.00 +0.00    +0.084 C  
DOCKED: ENDBRANCH  25  26
DOCKED: ENDBRANCH  24  25
DOCKED: ENDBRANCH   6  24
DOCKED: ENDBRANCH   2   6
DOCKED: ENDBRANCH   1   4
DOCKED: BRANCH   1  28
DOCKED: ATOM     28  C24 UNL     1       4.133  -1.403   4.849 +0.00 +0.00    +0.136 C  
DOCKED: BRANCH  28  29
DOCKED: ATOM     29  O5  UNL     1       4.935  -0.515   4.078 +0.00 -0.00    -0.390 OA 
DOCKED: ATOM     30  H38 UNL     1       4.791   0.399   4.382 +0.00 +0.00    +0.210 HD 
DOCKED: ENDBRANCH  28  29
DOCKED: BRANCH  28  31
DOCKED: ATOM     31  C25 UNL     1       4.808  -1.603   6.216 +0.00 +0.00    +0.045 C  
DOCKED: BRANCH  31  32
DOCKED: ATOM     32  C26 UNL     1       5.708  -0.422   6.643 +0.00 +0.00    +0.074 C  
DOCKED: ATOM     33  C27 UNL     1       6.967  -0.278   5.791 +0.00 +0.00    +0.017 C  
DOCKED: BRANCH  32  34
DOCKED: ATOM     34  C28 UNL     1       4.888   0.864   6.599 +0.00 +0.00    +0.217 C  
DOCKED: ATOM     35  O6  UNL     1       4.970   1.698   5.703 +0.00 -0.00    -0.276 OA 
DOCKED: ATOM     36  N4  UNL     1       3.999   0.980   7.649 +0.00 -0.00    -0.304 N  
DOCKED: ATOM     37  H45 UNL     1       4.231   0.460   8.491 +0.00 +0.00    +0.149 HD 
DOCKED: BRANCH  36  38
DOCKED: ATOM     38  C29 UNL     1       3.284   2.232   7.896 +0.00 +0.00    +0.161 C  
DOCKED: BRANCH  38  39
DOCKED: ATOM     39  C30 UNL     1       4.344   3.347   8.000 +0.00 +0.00    +0.234 C  
DOCKED: ATOM     40  O7  UNL     1       4.942   3.575   9.056 +0.00 -0.00    -0.274 OA 
DOCKED: ATOM     41  N5  UNL     1       4.527   4.086   6.857 +0.00 -0.00    -0.310 N  
DOCKED: ATOM     42  H47 UNL     1       4.165   3.717   5.986 +0.00 +0.00    +0.149 HD 
DOCKED: BRANCH  41  43
DOCKED: ATOM     43  C31 UNL     1       5.544   5.110   6.764 +0.00 +0.00    +0.139 C  
DOCKED: BRANCH  43  44
DOCKED: ATOM     44  C32 UNL     1       6.416   4.900   5.553 +0.00 -0.00    -0.027 A  
DOCKED: ATOM     45  C33 UNL     1       7.231   3.769   5.442 +0.00 +0.00    +0.025 A  
DOCKED: ATOM     46  C34 UNL     1       8.006   3.619   4.303 +0.00 +0.00    +0.111 A  
DOCKED: ATOM     47  N6  UNL     1       8.028   4.505   3.288 +0.00 -0.00    -0.263 NA 
DOCKED: ATOM     48  C35 UNL     1       7.234   5.588   3.412 +0.00 +0.00    +0.111 A  
DOCKED: ATOM     49  C36 UNL     1       6.420   5.826   4.508 +0.00 +0.00    +0.025 A  
DOCKED: ENDBRANCH  43  44
DOCKED: ENDBRANCH  41  43
DOCKED: ENDBRANCH  38  39
DOCKED: BRANCH  38  50
DOCKED: ATOM     50  C37 UNL     1       2.406   2.179   9.165 +0.00 +0.00    +0.012 C  
DOCKED: ATOM     51  C38 UNL     1       1.673   0.843   9.333 +0.00 +0.00    +0.009 C  
DOCKED: ATOM     52  C39 UNL     1       1.400   3.333   9.167 +0.00 +0.00    +0.009 C  
DOCKED: ENDBRANCH  38  50
DOCKED: ENDBRANCH  36  38
DOCKED: ENDBRANCH  32  34
DOCKED: ENDBRANCH  31  32
DOCKED: ENDBRANCH  28  31
DOCKED: ENDBRANCH   1  28
DOCKED: BRANCH   1  53
DOCKED: ATOM     53  C17 UNL     1       1.722  -1.429   3.814 +0.00 +0.00    +0.060 C  
DOCKED: BRANCH  53  54
DOCKED: ATOM     54  C18 UNL     1       1.978  -0.793   2.469 +0.00 -0.00    -0.046 A  
DOCKED: ATOM     55  C19 UNL     1       3.016  -1.259   1.652 +0.00 +0.00    +0.004 A  
DOCKED: ATOM     56  C20 UNL     1       3.272  -0.658   0.418 +0.00 +0.00    +0.000 A  
DOCKED: ATOM     57  C21 UNL     1       2.496   0.417  -0.009 +0.00 +0.00    +0.000 A  
DOCKED: ATOM     58  C22 UNL     1       1.457   0.883   0.792 +0.00 +0.00    +0.000 A  
DOCKED: ATOM     59  C23 UNL     1       1.196   0.281   2.023 +0.00 +0.00    +0.004 A  
DOCKED: ENDBRANCH  53  54
DOCKED: ENDBRANCH   1  53
DOCKED: TORSDOF 24
DOCKED: TER
DOCKED: ENDMDL
________________________________________________________________________________


    FINAL DOCKED STATE:
    ________________________


Run:   10 / 20
Time taken for this run:   2.704s

DOCKED: MODEL        10
DOCKED: USER    Run = 10
DOCKED: USER
DOCKED: USER    Estimated Free Energy of Binding    =  +7.16 kcal/mol  [=(1)+(2)+(3)-(4)]
DOCKED: USER
DOCKED: USER    (1) Final Intermolecular Energy     =  +0.00 kcal/mol
DOCKED: USER        vdW + Hbond + desolv Energy     =  +0.00 kcal/mol
DOCKED: USER        Electrostatic Energy            =  +0.00 kcal/mol
DOCKED: USER        Moving Ligand-Fixed Receptor    =  +0.00 kcal/mol
DOCKED: USER        Moving Ligand-Moving Receptor   =  +0.00 kcal/mol
DOCKED: USER    (2) Final Total Internal Energy     = -15.88 kcal/mol
DOCKED: USER    (3) Torsional Free Energy           =  +7.16 kcal/mol
DOCKED: USER    (4) Unbound System's Energy         = -15.88 kcal/mol
DOCKED: USER
DOCKED: USER
DOCKED: REMARK  Name = ligands/ligand_19.pdb
DOCKED: REMARK  32 active torsions:
DOCKED: REMARK  status: ('A' for Active; 'I' for Inactive)
DOCKED: REMARK    1  A    between atoms: C1_1  and  C2_2
DOCKED: REMARK    2  A    between atoms: C2_2  and  C3_3
DOCKED: REMARK    3  A    between atoms: C3_3  and  C4_4
DOCKED: REMARK    4  A    between atoms: C4_4  and  N1_5
DOCKED: REMARK    5  A    between atoms: C4_4  and  C10_13
DOCKED: REMARK    6  A    between atoms: C5_6  and  O2_8
DOCKED: REMARK    7  A    between atoms: O2_8  and  C6_9
DOCKED: REMARK    8  A    between atoms: C6_9  and  C7_10
DOCKED: REMARK    9  A    between atoms: C6_9  and  C8_11
DOCKED: REMARK   10  A    between atoms: C6_9  and  C9_12
DOCKED: REMARK   11  A    between atoms: N2_15  and  C11_16
DOCKED: REMARK   12  A    between atoms: C11_16  and  C12_17
DOCKED: REMARK   13  A    between atoms: C11_16  and  C15_21
DOCKED: REMARK   14  A    between atoms: C12_17  and  C13_18
DOCKED: REMARK   15  A    between atoms: C13_18  and  S1_19
DOCKED: REMARK   16  A    between atoms: S1_19  and  C14_20
DOCKED: REMARK   17  A    between atoms: N3_23  and  C16_24
DOCKED: REMARK   18  A    between atoms: C16_24  and  C17_25
DOCKED: REMARK   19  A    between atoms: C16_24  and  C24_32
DOCKED: REMARK   20  A    between atoms: C17_25  and  C18_26
DOCKED: REMARK   21  A    between atoms: C24_32  and  O5_33
DOCKED: REMARK   22  A    between atoms: C24_32  and  C25_34
DOCKED: REMARK   23  A    between atoms: C25_34  and  C26_35
DOCKED: REMARK   24  A    between atoms: C26_35  and  C27_36
DOCKED: REMARK   25  A    between atoms: C26_35  and  C28_37
DOCKED: REMARK   26  A    between atoms: N4_39  and  C29_40
DOCKED: REMARK   27  A    between atoms: C29_40  and  C30_41
DOCKED: REMARK   28  A    between atoms: C29_40  and  C37_51
DOCKED: REMARK   29  A    between atoms: N5_43  and  C31_44
DOCKED: REMARK   30  A    between atoms: C31_44  and  C32_45
DOCKED: REMARK   31  A    between atoms: C37_51  and  C38_52
DOCKED: REMARK   32  A    between atoms: C37_51  and  C39_53
DOCKED: REMARK                            x       y       z     vdW  Elec       q    Type
DOCKED: REMARK                         _______ _______ _______ _____ _____    ______ ____
DOCKED: USER                              x       y       z     vdW  Elec       q    Type
DOCKED: USER                           _______ _______ _______ _____ _____    ______ ____
DOCKED: ROOT
DOCKED: ATOM      1  C16 UNL     1       5.265   2.726   3.309 +0.00 +0.00    +0.106 C  
DOCKED: ENDROOT
DOCKED: BRANCH   1   4
DOCKED: ATOM      2  C15 UNL     1       3.695   0.800   3.343 +0.00 +0.00    +0.234 C  
DOCKED: ATOM      3  O4  UNL     1       3.008   1.264   2.434 +0.00 -0.00    -0.274 OA 
DOCKED: ATOM      4  N3  UNL     1       4.859   1.396   3.789 +0.00 -0.00    -0.308 N  
DOCKED: ATOM      5  H28 UNL     1       5.212   1.091   4.688 +0.00 +0.00    +0.149 HD 
DOCKED: BRANCH   2   6
DOCKED: ATOM      6  C11 UNL     1       3.347  -0.522   4.056 +0.00 +0.00    +0.160 C  
DOCKED: BRANCH   6   9
DOCKED: ATOM      7  C10 UNL     1       3.916  -1.332   6.315 +0.00 +0.00    +0.234 C  
DOCKED: ATOM      8  O3  UNL     1       3.888  -2.513   5.969 +0.00 -0.00    -0.274 OA 
DOCKED: ATOM      9  N2  UNL     1       3.504  -0.304   5.487 +0.00 -0.00    -0.302 N  
DOCKED: ATOM     10  H19 UNL     1       3.743   0.645   5.767 +0.00 +0.00    +0.150 HD 
DOCKED: BRANCH   7  11
DOCKED: ATOM     11  C4  UNL     1       4.298  -0.891   7.738 +0.00 +0.00    +0.162 C  
DOCKED: BRANCH  11  12
DOCKED: ATOM     12  N1  UNL     1       5.626  -0.306   7.604 +0.00 -0.00    -0.270 N  
DOCKED: ATOM     13  C5  UNL     1       5.793   0.974   7.159 +0.00 +0.00    +0.401 C  
DOCKED: ATOM     14  O1  UNL     1       4.934   1.635   6.598 +0.00 -0.00    -0.226 OA 
DOCKED: ATOM     15  H9  UNL     1       6.353  -0.631   8.227 +0.00 +0.00    +0.153 HD 
DOCKED: BRANCH  13  16
DOCKED: ATOM     16  O2  UNL     1       7.051   1.370   7.456 +0.00 -0.00    -0.445 OA 
DOCKED: BRANCH  16  17
DOCKED: ATOM     17  C6  UNL     1       7.293   2.361   8.490 +0.00 +0.00    +0.107 C  
DOCKED: ATOM     18  C7  UNL     1       7.761   3.685   7.869 +0.00 +0.00    +0.055 C  
DOCKED: ATOM     19  C8  UNL     1       6.071   2.542   9.404 +0.00 +0.00    +0.055 C  
DOCKED: ATOM     20  C9  UNL     1       8.437   1.773   9.331 +0.00 +0.00    +0.055 C  
DOCKED: ENDBRANCH  16  17
DOCKED: ENDBRANCH  13  16
DOCKED: ENDBRANCH  11  12
DOCKED: BRANCH  11  21
DOCKED: ATOM     21  C3  UNL     1       3.321   0.146   8.305 +0.00 +0.00    +0.031 C  
DOCKED: BRANCH  21  23
DOCKED: ATOM     22  C1  UNL     1       4.451  -0.574  10.486 +0.00 +0.00    +0.004 C  
DOCKED: ATOM     23  C2  UNL     1       3.454   0.360   9.817 +0.00 -0.00    -0.001 C  
DOCKED: ENDBRANCH  21  23
DOCKED: ENDBRANCH  11  21
DOCKED: ENDBRANCH   7  11
DOCKED: ENDBRANCH   6   9
DOCKED: BRANCH   6  24
DOCKED: ATOM     24  C12 UNL     1       1.925  -0.955   3.695 +0.00 +0.00    +0.042 C  
DOCKED: BRANCH  24  25
DOCKED: ATOM     25  C13 UNL     1       0.895  -0.135   4.472 +0.00 +0.00    +0.071 C  
DOCKED: BRANCH  25  26
DOCKED: ATOM     26  S1  UNL     1       0.419  -0.953   6.031 +0.00 -0.00    -0.164 S  
DOCKED: ATOM     27  C14 UNL     1      -0.013   0.504   7.019 +0.00 +0.00    +0.084 C  
DOCKED: ENDBRANCH  25  26
DOCKED: ENDBRANCH  24  25
DOCKED: ENDBRANCH   6  24
DOCKED: ENDBRANCH   2   6
DOCKED: ENDBRANCH   1   4
DOCKED: BRANCH   1  28
DOCKED: ATOM     28  C24 UNL     1       6.673   3.091   3.865 +0.00 +0.00    +0.136 C  
DOCKED: BRANCH  28  29
DOCKED: ATOM     29  O5  UNL     1       6.855   2.648   5.206 +0.00 -0.00    -0.390 OA 
DOCKED: ATOM     30  H38 UNL     1       6.574   1.720   5.281 +0.00 +0.00    +0.210 HD 
DOCKED: ENDBRANCH  28  29
DOCKED: BRANCH  28  31
DOCKED: ATOM     31  C25 UNL     1       7.834   2.550   3.014 +0.00 +0.00    +0.045 C  
DOCKED: BRANCH  31  32
DOCKED: ATOM     32  C26 UNL     1       8.468   1.258   3.576 +0.00 +0.00    +0.074 C  
DOCKED: ATOM     33  C27 UNL     1       9.191   1.464   4.905 +0.00 +0.00    +0.017 C  
DOCKED: BRANCH  32  34
DOCKED: ATOM     34  C28 UNL     1       7.379   0.199   3.724 +0.00 +0.00    +0.217 C  
DOCKED: ATOM     35  O6  UNL     1       6.900  -0.145   4.800 +0.00 -0.00    -0.276 OA 
DOCKED: ATOM     36  N4  UNL     1       6.943  -0.307   2.515 +0.00 -0.00    -0.304 N  
DOCKED: ATOM     37  H45 UNL     1       7.598  -0.243   1.741 +0.00 +0.00    +0.149 HD 
DOCKED: BRANCH  36  38
DOCKED: ATOM     38  C29 UNL     1       6.065  -1.476   2.461 +0.00 +0.00    +0.161 C  
DOCKED: BRANCH  38  39
DOCKED: ATOM     39  C30 UNL     1       6.741  -2.591   3.283 +0.00 +0.00    +0.234 C  
DOCKED: ATOM     40  O7  UNL     1       7.604  -3.324   2.791 +0.00 -0.00    -0.274 OA 
DOCKED: ATOM     41  N5  UNL     1       6.277  -2.732   4.568 +0.00 -0.00    -0.310 N  
DOCKED: ATOM     42  H47 UNL     1       5.730  -1.977   4.964 +0.00 +0.00    +0.149 HD 
DOCKED: BRANCH  41  43
DOCKED: ATOM     43  C31 UNL     1       6.866  -3.673   5.494 +0.00 +0.00    +0.139 C  
DOCKED: BRANCH  43  44
DOCKED: ATOM     44  C32 UNL     1       7.238  -2.998   6.789 +0.00 -0.00    -0.027 A  
DOCKED: ATOM     45  C33 UNL     1       6.610  -3.351   7.988 +0.00 +0.00    +0.025 A  
DOCKED: ATOM     46  C34 UNL     1       6.994  -2.708   9.154 +0.00 +0.00    +0.111 A  
DOCKED: ATOM     47  N6  UNL     1       7.941  -1.751   9.205 +0.00 -0.00    -0.263 NA 
DOCKED: ATOM     48  C35 UNL     1       8.537  -1.426   8.040 +0.00 +0.00    +0.111 A  
DOCKED: ATOM     49  C36 UNL     1       8.226  -2.014   6.824 +0.00 +0.00    +0.025 A  
DOCKED: ENDBRANCH  43  44
DOCKED: ENDBRANCH  41  43
DOCKED: ENDBRANCH  38  39
DOCKED: BRANCH  38  50
DOCKED: ATOM     50  C37 UNL     1       5.780  -1.943   1.017 +0.00 +0.00    +0.012 C  
DOCKED: ATOM     51  C38 UNL     1       5.681  -0.784   0.019 +0.00 +0.00    +0.009 C  
DOCKED: ATOM     52  C39 UNL     1       4.503  -2.786   0.970 +0.00 +0.00    +0.009 C  
DOCKED: ENDBRANCH  38  50
DOCKED: ENDBRANCH  36  38
DOCKED: ENDBRANCH  32  34
DOCKED: ENDBRANCH  31  32
DOCKED: ENDBRANCH  28  31
DOCKED: ENDBRANCH   1  28
DOCKED: BRANCH   1  53
DOCKED: ATOM     53  C17 UNL     1       4.149   3.758   3.604 +0.00 +0.00    +0.060 C  
DOCKED: BRANCH  53  54
DOCKED: ATOM     54  C18 UNL     1       3.699   3.797   5.043 +0.00 -0.00    -0.046 A  
DOCKED: ATOM     55  C19 UNL     1       4.431   4.519   5.995 +0.00 +0.00    +0.004 A  
DOCKED: ATOM     56  C20 UNL     1       4.034   4.537   7.333 +0.00 +0.00    +0.000 A  
DOCKED: ATOM     57  C21 UNL     1       2.901   3.830   7.733 +0.00 +0.00    +0.000 A  
DOCKED: ATOM     58  C22 UNL     1       2.163   3.115   6.795 +0.00 +0.00    +0.000 A  
DOCKED: ATOM     59  C23 UNL     1       2.555   3.100   5.457 +0.00 +0.00    +0.004 A  
DOCKED: ENDBRANCH  53  54
DOCKED: ENDBRANCH   1  53
DOCKED: TORSDOF 24
DOCKED: TER
DOCKED: ENDMDL
________________________________________________________________________________


    FINAL DOCKED STATE:
    ________________________


Run:   11 / 20
Time taken for this run:   2.704s

DOCKED: MODEL        11
DOCKED: USER    Run = 11
DOCKED: USER
DOCKED: USER    Estimated Free Energy of Binding    =  +7.16 kcal/mol  [=(1)+(2)+(3)-(4)]
DOCKED: USER
DOCKED: USER    (1) Final Intermolecular Energy     =  +0.00 kcal/mol
DOCKED: USER        vdW + Hbond + desolv Energy     =  +0.00 kcal/mol
DOCKED: USER        Electrostatic Energy            =  +0.00 kcal/mol
DOCKED: USER        Moving Ligand-Fixed Receptor    =  +0.00 kcal/mol
DOCKED: USER        Moving Ligand-Moving Receptor   =  +0.00 kcal/mol
DOCKED: USER    (2) Final Total Internal Energy     = -15.61 kcal/mol
DOCKED: USER    (3) Torsional Free Energy           =  +7.16 kcal/mol
DOCKED: USER    (4) Unbound System's Energy         = -15.61 kcal/mol
DOCKED: USER
DOCKED: USER
DOCKED: REMARK  Name = ligands/ligand_19.pdb
DOCKED: REMARK  32 active torsions:
DOCKED: REMARK  status: ('A' for Active; 'I' for Inactive)
DOCKED: REMARK    1  A    between atoms: C1_1  and  C2_2
DOCKED: REMARK    2  A    between atoms: C2_2  and  C3_3
DOCKED: REMARK    3  A    between atoms: C3_3  and  C4_4
DOCKED: REMARK    4  A    between atoms: C4_4  and  N1_5
DOCKED: REMARK    5  A    between atoms: C4_4  and  C10_13
DOCKED: REMARK    6  A    between atoms: C5_6  and  O2_8
DOCKED: REMARK    7  A    between atoms: O2_8  and  C6_9
DOCKED: REMARK    8  A    between atoms: C6_9  and  C7_10
DOCKED: REMARK    9  A    between atoms: C6_9  and  C8_11
DOCKED: REMARK   10  A    between atoms: C6_9  and  C9_12
DOCKED: REMARK   11  A    between atoms: N2_15  and  C11_16
DOCKED: REMARK   12  A    between atoms: C11_16  and  C12_17
DOCKED: REMARK   13  A    between atoms: C11_16  and  C15_21
DOCKED: REMARK   14  A    between atoms: C12_17  and  C13_18
DOCKED: REMARK   15  A    between atoms: C13_18  and  S1_19
DOCKED: REMARK   16  A    between atoms: S1_19  and  C14_20
DOCKED: REMARK   17  A    between atoms: N3_23  and  C16_24
DOCKED: REMARK   18  A    between atoms: C16_24  and  C17_25
DOCKED: REMARK   19  A    between atoms: C16_24  and  C24_32
DOCKED: REMARK   20  A    between atoms: C17_25  and  C18_26
DOCKED: REMARK   21  A    between atoms: C24_32  and  O5_33
DOCKED: REMARK   22  A    between atoms: C24_32  and  C25_34
DOCKED: REMARK   23  A    between atoms: C25_34  and  C26_35
DOCKED: REMARK   24  A    between atoms: C26_35  and  C27_36
DOCKED: REMARK   25  A    between atoms: C26_35  and  C28_37
DOCKED: REMARK   26  A    between atoms: N4_39  and  C29_40
DOCKED: REMARK   27  A    between atoms: C29_40  and  C30_41
DOCKED: REMARK   28  A    between atoms: C29_40  and  C37_51
DOCKED: REMARK   29  A    between atoms: N5_43  and  C31_44
DOCKED: REMARK   30  A    between atoms: C31_44  and  C32_45
DOCKED: REMARK   31  A    between atoms: C37_51  and  C38_52
DOCKED: REMARK   32  A    between atoms: C37_51  and  C39_53
DOCKED: REMARK                            x       y       z     vdW  Elec       q    Type
DOCKED: REMARK                         _______ _______ _______ _____ _____    ______ ____
DOCKED: USER                              x       y       z     vdW  Elec       q    Type
DOCKED: USER                           _______ _______ _______ _____ _____    ______ ____
DOCKED: ROOT
DOCKED: ATOM      1  C16 UNL     1      17.055  -5.901  -5.962 +0.00 +0.00    +0.106 C  
DOCKED: ENDROOT
DOCKED: BRANCH   1   4
DOCKED: ATOM      2  C15 UNL     1      17.928  -4.228  -4.346 +0.00 +0.00    +0.234 C  
DOCKED: ATOM      3  O4  UNL     1      19.007  -4.808  -4.232 +0.00 -0.00    -0.274 OA 
DOCKED: ATOM      4  N3  UNL     1      16.940  -4.636  -5.222 +0.00 -0.00    -0.308 N  
DOCKED: ATOM      5  H28 UNL     1      16.011  -4.262  -5.068 +0.00 +0.00    +0.149 HD 
DOCKED: BRANCH   2   6
DOCKED: ATOM      6  C11 UNL     1      17.581  -2.956  -3.547 +0.00 +0.00    +0.160 C  
DOCKED: BRANCH   6   9
DOCKED: ATOM      7  C10 UNL     1      15.398  -1.958  -2.978 +0.00 +0.00    +0.234 C  
DOCKED: ATOM      8  O3  UNL     1      15.857  -0.816  -2.937 +0.00 -0.00    -0.274 OA 
DOCKED: ATOM      9  N2  UNL     1      16.198  -3.078  -3.106 +0.00 -0.00    -0.302 N  
DOCKED: ATOM     10  H19 UNL     1      15.738  -3.957  -3.332 +0.00 +0.00    +0.150 HD 
DOCKED: BRANCH   7  11
DOCKED: ATOM     11  C4  UNL     1      13.903  -2.261  -2.773 +0.00 +0.00    +0.162 C  
DOCKED: BRANCH  11  12
DOCKED: ATOM     12  N1  UNL     1      13.422  -2.671  -4.085 +0.00 -0.00    -0.270 N  
DOCKED: ATOM     13  C5  UNL     1      13.574  -3.954  -4.526 +0.00 +0.00    +0.401 C  
DOCKED: ATOM     14  O1  UNL     1      14.323  -4.778  -4.026 +0.00 -0.00    -0.226 OA 
DOCKED: ATOM     15  H9  UNL     1      12.619  -2.189  -4.469 +0.00 +0.00    +0.153 HD 
DOCKED: BRANCH  13  16
DOCKED: ATOM     16  O2  UNL     1      12.756  -4.144  -5.584 +0.00 -0.00    -0.445 OA 
DOCKED: BRANCH  16  17
DOCKED: ATOM     17  C6  UNL     1      11.578  -4.987  -5.470 +0.00 +0.00    +0.107 C  
DOCKED: ATOM     18  C7  UNL     1      11.197  -5.568  -6.839 +0.00 +0.00    +0.055 C  
DOCKED: ATOM     19  C8  UNL     1      11.755  -6.075  -4.400 +0.00 +0.00    +0.055 C  
DOCKED: ATOM     20  C9  UNL     1      10.464  -4.035  -5.007 +0.00 +0.00    +0.055 C  
DOCKED: ENDBRANCH  16  17
DOCKED: ENDBRANCH  13  16
DOCKED: ENDBRANCH  11  12
DOCKED: BRANCH  11  21
DOCKED: ATOM     21  C3  UNL     1      13.675  -3.383  -1.755 +0.00 +0.00    +0.031 C  
DOCKED: BRANCH  21  23
DOCKED: ATOM     22  C1  UNL     1      11.895  -5.067  -1.013 +0.00 +0.00    +0.004 C  
DOCKED: ATOM     23  C2  UNL     1      12.198  -3.636  -1.432 +0.00 -0.00    -0.001 C  
DOCKED: ENDBRANCH  21  23
DOCKED: ENDBRANCH  11  21
DOCKED: ENDBRANCH   7  11
DOCKED: ENDBRANCH   6   9
DOCKED: BRANCH   6  24
DOCKED: ATOM     24  C12 UNL     1      18.545  -2.794  -2.370 +0.00 +0.00    +0.042 C  
DOCKED: BRANCH  24  25
DOCKED: ATOM     25  C13 UNL     1      18.134  -3.696  -1.206 +0.00 +0.00    +0.071 C  
DOCKED: BRANCH  25  26
DOCKED: ATOM     26  S1  UNL     1      17.165  -2.785   0.042 +0.00 -0.00    -0.164 S  
DOCKED: ATOM     27  C14 UNL     1      16.092  -4.123   0.629 +0.00 +0.00    +0.084 C  
DOCKED: ENDBRANCH  25  26
DOCKED: ENDBRANCH  24  25
DOCKED: ENDBRANCH   6  24
DOCKED: ENDBRANCH   2   6
DOCKED: ENDBRANCH   1   4
DOCKED: BRANCH   1  28
DOCKED: ATOM     28  C24 UNL     1      15.829  -6.086  -6.905 +0.00 +0.00    +0.136 C  
DOCKED: BRANCH  28  29
DOCKED: ATOM     29  O5  UNL     1      14.726  -5.271  -6.521 +0.00 -0.00    -0.390 OA 
DOCKED: ATOM     30  H38 UNL     1      14.145  -5.773  -5.923 +0.00 +0.00    +0.210 HD 
DOCKED: ENDBRANCH  28  29
DOCKED: BRANCH  28  31
DOCKED: ATOM     31  C25 UNL     1      16.141  -5.813  -8.386 +0.00 +0.00    +0.045 C  
DOCKED: BRANCH  31  32
DOCKED: ATOM     32  C26 UNL     1      14.894  -5.842  -9.298 +0.00 +0.00    +0.074 C  
DOCKED: ATOM     33  C27 UNL     1      13.757  -6.699  -8.748 +0.00 +0.00    +0.017 C  
DOCKED: BRANCH  32  34
DOCKED: ATOM     34  C28 UNL     1      14.418  -4.410  -9.527 +0.00 +0.00    +0.217 C  
DOCKED: ATOM     35  O6  UNL     1      14.774  -3.713 -10.472 +0.00 -0.00    -0.276 OA 
DOCKED: ATOM     36  N4  UNL     1      13.499  -3.984  -8.588 +0.00 -0.00    -0.304 N  
DOCKED: ATOM     37  H45 UNL     1      13.528  -4.457  -7.689 +0.00 +0.00    +0.149 HD 
DOCKED: BRANCH  36  38
DOCKED: ATOM     38  C29 UNL     1      13.093  -2.581  -8.514 +0.00 +0.00    +0.161 C  
DOCKED: BRANCH  38  39
DOCKED: ATOM     39  C30 UNL     1      14.287  -1.792  -7.942 +0.00 +0.00    +0.234 C  
DOCKED: ATOM     40  O7  UNL     1      14.650  -0.720  -8.435 +0.00 -0.00    -0.274 OA 
DOCKED: ATOM     41  N5  UNL     1      14.933  -2.393  -6.890 +0.00 -0.00    -0.310 N  
DOCKED: ATOM     42  H47 UNL     1      14.463  -3.152  -6.411 +0.00 +0.00    +0.149 HD 
DOCKED: BRANCH  41  43
DOCKED: ATOM     43  C31 UNL     1      16.016  -1.743  -6.186 +0.00 +0.00    +0.139 C  
DOCKED: BRANCH  43  44
DOCKED: ATOM     44  C32 UNL     1      17.337  -2.010  -6.859 +0.00 -0.00    -0.027 A  
DOCKED: ATOM     45  C33 UNL     1      17.426  -2.888  -7.944 +0.00 +0.00    +0.025 A  
DOCKED: ATOM     46  C34 UNL     1      18.663  -3.093  -8.535 +0.00 +0.00    +0.111 A  
DOCKED: ATOM     47  N6  UNL     1      19.799  -2.497  -8.121 +0.00 -0.00    -0.263 NA 
DOCKED: ATOM     48  C35 UNL     1      19.693  -1.652  -7.075 +0.00 +0.00    +0.111 A  
DOCKED: ATOM     49  C36 UNL     1      18.502  -1.378  -6.422 +0.00 +0.00    +0.025 A  
DOCKED: ENDBRANCH  43  44
DOCKED: ENDBRANCH  41  43
DOCKED: ENDBRANCH  38  39
DOCKED: BRANCH  38  50
DOCKED: ATOM     50  C37 UNL     1      11.824  -2.371  -7.660 +0.00 +0.00    +0.012 C  
DOCKED: ATOM     51  C38 UNL     1      10.544  -2.276  -8.497 +0.00 +0.00    +0.009 C  
DOCKED: ATOM     52  C39 UNL     1      11.972  -1.124  -6.783 +0.00 +0.00    +0.009 C  
DOCKED: ENDBRANCH  38  50
DOCKED: ENDBRANCH  36  38
DOCKED: ENDBRANCH  32  34
DOCKED: ENDBRANCH  31  32
DOCKED: ENDBRANCH  28  31
DOCKED: ENDBRANCH   1  28
DOCKED: BRANCH   1  53
DOCKED: ATOM     53  C17 UNL     1      17.314  -7.068  -4.978 +0.00 +0.00    +0.060 C  
DOCKED: BRANCH  53  54
DOCKED: ATOM     54  C18 UNL     1      16.311  -7.174  -3.857 +0.00 -0.00    -0.046 A  
DOCKED: ATOM     55  C19 UNL     1      15.103  -7.857  -4.050 +0.00 +0.00    +0.004 A  
DOCKED: ATOM     56  C20 UNL     1      14.160  -7.936  -3.023 +0.00 +0.00    +0.000 A  
DOCKED: ATOM     57  C21 UNL     1      14.414  -7.329  -1.795 +0.00 +0.00    +0.000 A  
DOCKED: ATOM     58  C22 UNL     1      15.613  -6.653  -1.591 +0.00 +0.00    +0.000 A  
DOCKED: ATOM     59  C23 UNL     1      16.559  -6.577  -2.613 +0.00 +0.00    +0.004 A  
DOCKED: ENDBRANCH  53  54
DOCKED: ENDBRANCH   1  53
DOCKED: TORSDOF 24
DOCKED: TER
DOCKED: ENDMDL
________________________________________________________________________________


    FINAL DOCKED STATE:
    ________________________


Run:   12 / 20
Time taken for this run:   2.704s

DOCKED: MODEL        12
DOCKED: USER    Run = 12
DOCKED: USER
DOCKED: USER    Estimated Free Energy of Binding    =  +7.16 kcal/mol  [=(1)+(2)+(3)-(4)]
DOCKED: USER
DOCKED: USER    (1) Final Intermolecular Energy     =  +0.00 kcal/mol
DOCKED: USER        vdW + Hbond + desolv Energy     =  +0.00 kcal/mol
DOCKED: USER        Electrostatic Energy            =  +0.00 kcal/mol
DOCKED: USER        Moving Ligand-Fixed Receptor    =  +0.00 kcal/mol
DOCKED: USER        Moving Ligand-Moving Receptor   =  +0.00 kcal/mol
DOCKED: USER    (2) Final Total Internal Energy     = -14.98 kcal/mol
DOCKED: USER    (3) Torsional Free Energy           =  +7.16 kcal/mol
DOCKED: USER    (4) Unbound System's Energy         = -14.98 kcal/mol
DOCKED: USER
DOCKED: USER
DOCKED: REMARK  Name = ligands/ligand_19.pdb
DOCKED: REMARK  32 active torsions:
DOCKED: REMARK  status: ('A' for Active; 'I' for Inactive)
DOCKED: REMARK    1  A    between atoms: C1_1  and  C2_2
DOCKED: REMARK    2  A    between atoms: C2_2  and  C3_3
DOCKED: REMARK    3  A    between atoms: C3_3  and  C4_4
DOCKED: REMARK    4  A    between atoms: C4_4  and  N1_5
DOCKED: REMARK    5  A    between atoms: C4_4  and  C10_13
DOCKED: REMARK    6  A    between atoms: C5_6  and  O2_8
DOCKED: REMARK    7  A    between atoms: O2_8  and  C6_9
DOCKED: REMARK    8  A    between atoms: C6_9  and  C7_10
DOCKED: REMARK    9  A    between atoms: C6_9  and  C8_11
DOCKED: REMARK   10  A    between atoms: C6_9  and  C9_12
DOCKED: REMARK   11  A    between atoms: N2_15  and  C11_16
DOCKED: REMARK   12  A    between atoms: C11_16  and  C12_17
DOCKED: REMARK   13  A    between atoms: C11_16  and  C15_21
DOCKED: REMARK   14  A    between atoms: C12_17  and  C13_18
DOCKED: REMARK   15  A    between atoms: C13_18  and  S1_19
DOCKED: REMARK   16  A    between atoms: S1_19  and  C14_20
DOCKED: REMARK   17  A    between atoms: N3_23  and  C16_24
DOCKED: REMARK   18  A    between atoms: C16_24  and  C17_25
DOCKED: REMARK   19  A    between atoms: C16_24  and  C24_32
DOCKED: REMARK   20  A    between atoms: C17_25  and  C18_26
DOCKED: REMARK   21  A    between atoms: C24_32  and  O5_33
DOCKED: REMARK   22  A    between atoms: C24_32  and  C25_34
DOCKED: REMARK   23  A    between atoms: C25_34  and  C26_35
DOCKED: REMARK   24  A    between atoms: C26_35  and  C27_36
DOCKED: REMARK   25  A    between atoms: C26_35  and  C28_37
DOCKED: REMARK   26  A    between atoms: N4_39  and  C29_40
DOCKED: REMARK   27  A    between atoms: C29_40  and  C30_41
DOCKED: REMARK   28  A    between atoms: C29_40  and  C37_51
DOCKED: REMARK   29  A    between atoms: N5_43  and  C31_44
DOCKED: REMARK   30  A    between atoms: C31_44  and  C32_45
DOCKED: REMARK   31  A    between atoms: C37_51  and  C38_52
DOCKED: REMARK   32  A    between atoms: C37_51  and  C39_53
DOCKED: REMARK                            x       y       z     vdW  Elec       q    Type
DOCKED: REMARK                         _______ _______ _______ _____ _____    ______ ____
DOCKED: USER                              x       y       z     vdW  Elec       q    Type
DOCKED: USER                           _______ _______ _______ _____ _____    ______ ____
DOCKED: ROOT
DOCKED: ATOM      1  C16 UNL     1      14.546  -0.376  -3.211 +0.00 +0.00    +0.106 C  
DOCKED: ENDROOT
DOCKED: BRANCH   1   4
DOCKED: ATOM      2  C15 UNL     1      12.721  -0.738  -4.859 +0.00 +0.00    +0.234 C  
DOCKED: ATOM      3  O4  UNL     1      13.240   0.005  -5.691 +0.00 -0.00    -0.274 OA 
DOCKED: ATOM      4  N3  UNL     1      13.316  -1.052  -3.652 +0.00 -0.00    -0.308 N  
DOCKED: ATOM      5  H28 UNL     1      12.718  -1.454  -2.939 +0.00 +0.00    +0.149 HD 
DOCKED: BRANCH   2   6
DOCKED: ATOM      6  C11 UNL     1      11.365  -1.433  -5.096 +0.00 +0.00    +0.160 C  
DOCKED: BRANCH   6   9
DOCKED: ATOM      7  C10 UNL     1      11.775  -3.815  -4.608 +0.00 +0.00    +0.234 C  
DOCKED: ATOM      8  O3  UNL     1      11.997  -4.087  -5.789 +0.00 -0.00    -0.274 OA 
DOCKED: ATOM      9  N2  UNL     1      11.299  -2.583  -4.204 +0.00 -0.00    -0.302 N  
DOCKED: ATOM     10  H19 UNL     1      11.332  -2.373  -3.208 +0.00 +0.00    +0.150 HD 
DOCKED: BRANCH   7  11
DOCKED: ATOM     11  C4  UNL     1      11.892  -4.856  -3.480 +0.00 +0.00    +0.162 C  
DOCKED: BRANCH  11  12
DOCKED: ATOM     12  N1  UNL     1      11.624  -4.112  -2.257 +0.00 -0.00    -0.270 N  
DOCKED: ATOM     13  C5  UNL     1      12.540  -3.241  -1.744 +0.00 +0.00    +0.401 C  
DOCKED: ATOM     14  O1  UNL     1      13.716  -3.193  -2.070 +0.00 -0.00    -0.226 OA 
DOCKED: ATOM     15  H9  UNL     1      10.662  -3.884  -2.041 +0.00 +0.00    +0.153 HD 
DOCKED: BRANCH  13  16
DOCKED: ATOM     16  O2  UNL     1      11.921  -2.451  -0.838 +0.00 -0.00    -0.445 OA 
DOCKED: BRANCH  16  17
DOCKED: ATOM     17  C6  UNL     1      12.166  -2.620   0.584 +0.00 +0.00    +0.107 C  
DOCKED: ATOM     18  C7  UNL     1      13.595  -2.185   0.940 +0.00 +0.00    +0.055 C  
DOCKED: ATOM     19  C8  UNL     1      11.106  -1.904   1.435 +0.00 +0.00    +0.055 C  
DOCKED: ATOM     20  C9  UNL     1      12.032  -4.132   0.824 +0.00 +0.00    +0.055 C  
DOCKED: ENDBRANCH  16  17
DOCKED: ENDBRANCH  13  16
DOCKED: ENDBRANCH  11  12
DOCKED: BRANCH  11  21
DOCKED: ATOM     21  C3  UNL     1      10.878  -5.995  -3.637 +0.00 +0.00    +0.031 C  
DOCKED: BRANCH  21  23
DOCKED: ATOM     22  C1  UNL     1      12.345  -7.177  -1.904 +0.00 +0.00    +0.004 C  
DOCKED: ATOM     23  C2  UNL     1      10.967  -7.059  -2.536 +0.00 -0.00    -0.001 C  
DOCKED: ENDBRANCH  21  23
DOCKED: ENDBRANCH  11  21
DOCKED: ENDBRANCH   7  11
DOCKED: ENDBRANCH   6   9
DOCKED: BRANCH   6  24
DOCKED: ATOM     24  C12 UNL     1      10.220  -0.449  -4.847 +0.00 +0.00    +0.042 C  
DOCKED: BRANCH  24  25
DOCKED: ATOM     25  C13 UNL     1      10.641   0.975  -5.209 +0.00 +0.00    +0.071 C  
DOCKED: BRANCH  25  26
DOCKED: ATOM     26  S1  UNL     1       9.924   2.202  -4.065 +0.00 -0.00    -0.164 S  
DOCKED: ATOM     27  C14 UNL     1      11.069   3.580  -4.340 +0.00 +0.00    +0.084 C  
DOCKED: ENDBRANCH  25  26
DOCKED: ENDBRANCH  24  25
DOCKED: ENDBRANCH   6  24
DOCKED: ENDBRANCH   2   6
DOCKED: ENDBRANCH   1   4
DOCKED: BRANCH   1  28
DOCKED: ATOM     28  C24 UNL     1      14.354   1.170  -3.253 +0.00 +0.00    +0.136 C  
DOCKED: BRANCH  28  29
DOCKED: ATOM     29  O5  UNL     1      12.982   1.541  -3.346 +0.00 -0.00    -0.390 OA 
DOCKED: ATOM     30  H38 UNL     1      12.436   0.741  -3.433 +0.00 +0.00    +0.210 HD 
DOCKED: ENDBRANCH  28  29
DOCKED: BRANCH  28  31
DOCKED: ATOM     31  C25 UNL     1      14.975   1.903  -2.052 +0.00 +0.00    +0.045 C  
DOCKED: BRANCH  31  32
DOCKED: ATOM     32  C26 UNL     1      15.178   1.004  -0.813 +0.00 +0.00    +0.074 C  
DOCKED: ATOM     33  C27 UNL     1      16.352   1.433   0.064 +0.00 +0.00    +0.017 C  
DOCKED: BRANCH  32  34
DOCKED: ATOM     34  C28 UNL     1      13.887   0.986   0.001 +0.00 +0.00    +0.217 C  
DOCKED: ATOM     35  O6  UNL     1      13.851   0.923   1.226 +0.00 -0.00    -0.276 OA 
DOCKED: ATOM     36  N4  UNL     1      12.751   1.098  -0.776 +0.00 -0.00    -0.304 N  
DOCKED: ATOM     37  H45 UNL     1      12.839   0.799  -1.743 +0.00 +0.00    +0.149 HD 
DOCKED: BRANCH  36  38
DOCKED: ATOM     38  C29 UNL     1      11.422   0.886  -0.202 +0.00 +0.00    +0.161 C  
DOCKED: BRANCH  38  39
DOCKED: ATOM     39  C30 UNL     1      10.569   0.187  -1.278 +0.00 +0.00    +0.234 C  
DOCKED: ATOM     40  O7  UNL     1      11.086  -0.442  -2.206 +0.00 -0.00    -0.274 OA 
DOCKED: ATOM     41  N5  UNL     1       9.212   0.362  -1.152 +0.00 -0.00    -0.310 N  
DOCKED: ATOM     42  H47 UNL     1       8.855   0.704  -0.268 +0.00 +0.00    +0.149 HD 
DOCKED: BRANCH  41  43
DOCKED: ATOM     43  C31 UNL     1       8.272  -0.299  -2.029 +0.00 +0.00    +0.139 C  
DOCKED: BRANCH  43  44
DOCKED: ATOM     44  C32 UNL     1       8.410  -1.798  -1.941 +0.00 -0.00    -0.027 A  
DOCKED: ATOM     45  C33 UNL     1       8.654  -2.426  -0.715 +0.00 +0.00    +0.025 A  
DOCKED: ATOM     46  C34 UNL     1       8.763  -3.807  -0.686 +0.00 +0.00    +0.111 A  
DOCKED: ATOM     47  N6  UNL     1       8.652  -4.591  -1.776 +0.00 -0.00    -0.263 NA 
DOCKED: ATOM     48  C35 UNL     1       8.415  -3.968  -2.949 +0.00 +0.00    +0.111 A  
DOCKED: ATOM     49  C36 UNL     1       8.286  -2.594  -3.080 +0.00 +0.00    +0.025 A  
DOCKED: ENDBRANCH  43  44
DOCKED: ENDBRANCH  41  43
DOCKED: ENDBRANCH  38  39
DOCKED: BRANCH  38  50
DOCKED: ATOM     50  C37 UNL     1      10.759   2.198   0.270 +0.00 +0.00    +0.012 C  
DOCKED: ATOM     51  C38 UNL     1      11.169   3.415  -0.568 +0.00 +0.00    +0.009 C  
DOCKED: ATOM     52  C39 UNL     1      11.067   2.451   1.748 +0.00 +0.00    +0.009 C  
DOCKED: ENDBRANCH  38  50
DOCKED: ENDBRANCH  36  38
DOCKED: ENDBRANCH  32  34
DOCKED: ENDBRANCH  31  32
DOCKED: ENDBRANCH  28  31
DOCKED: ENDBRANCH   1  28
DOCKED: BRANCH   1  53
DOCKED: ATOM     53  C17 UNL     1      15.759  -0.913  -4.009 +0.00 +0.00    +0.060 C  
DOCKED: BRANCH  53  54
DOCKED: ATOM     54  C18 UNL     1      15.773  -2.411  -4.190 +0.00 -0.00    -0.046 A  
DOCKED: ATOM     55  C19 UNL     1      15.166  -2.994  -5.309 +0.00 +0.00    +0.004 A  
DOCKED: ATOM     56  C20 UNL     1      15.154  -4.381  -5.468 +0.00 +0.00    +0.000 A  
DOCKED: ATOM     57  C21 UNL     1      15.746  -5.199  -4.507 +0.00 +0.00    +0.000 A  
DOCKED: ATOM     58  C22 UNL     1      16.359  -4.629  -3.395 +0.00 +0.00    +0.000 A  
DOCKED: ATOM     59  C23 UNL     1      16.377  -3.243  -3.237 +0.00 +0.00    +0.004 A  
DOCKED: ENDBRANCH  53  54
DOCKED: ENDBRANCH   1  53
DOCKED: TORSDOF 24
DOCKED: TER
DOCKED: ENDMDL
________________________________________________________________________________


    FINAL DOCKED STATE:
    ________________________


Run:   13 / 20
Time taken for this run:   2.704s

DOCKED: MODEL        13
DOCKED: USER    Run = 13
DOCKED: USER
DOCKED: USER    Estimated Free Energy of Binding    =  +7.16 kcal/mol  [=(1)+(2)+(3)-(4)]
DOCKED: USER
DOCKED: USER    (1) Final Intermolecular Energy     =  +0.00 kcal/mol
DOCKED: USER        vdW + Hbond + desolv Energy     =  +0.00 kcal/mol
DOCKED: USER        Electrostatic Energy            =  +0.00 kcal/mol
DOCKED: USER        Moving Ligand-Fixed Receptor    =  +0.00 kcal/mol
DOCKED: USER        Moving Ligand-Moving Receptor   =  +0.00 kcal/mol
DOCKED: USER    (2) Final Total Internal Energy     = -14.97 kcal/mol
DOCKED: USER    (3) Torsional Free Energy           =  +7.16 kcal/mol
DOCKED: USER    (4) Unbound System's Energy         = -14.97 kcal/mol
DOCKED: USER
DOCKED: USER
DOCKED: REMARK  Name = ligands/ligand_19.pdb
DOCKED: REMARK  32 active torsions:
DOCKED: REMARK  status: ('A' for Active; 'I' for Inactive)
DOCKED: REMARK    1  A    between atoms: C1_1  and  C2_2
DOCKED: REMARK    2  A    between atoms: C2_2  and  C3_3
DOCKED: REMARK    3  A    between atoms: C3_3  and  C4_4
DOCKED: REMARK    4  A    between atoms: C4_4  and  N1_5
DOCKED: REMARK    5  A    between atoms: C4_4  and  C10_13
DOCKED: REMARK    6  A    between atoms: C5_6  and  O2_8
DOCKED: REMARK    7  A    between atoms: O2_8  and  C6_9
DOCKED: REMARK    8  A    between atoms: C6_9  and  C7_10
DOCKED: REMARK    9  A    between atoms: C6_9  and  C8_11
DOCKED: REMARK   10  A    between atoms: C6_9  and  C9_12
DOCKED: REMARK   11  A    between atoms: N2_15  and  C11_16
DOCKED: REMARK   12  A    between atoms: C11_16  and  C12_17
DOCKED: REMARK   13  A    between atoms: C11_16  and  C15_21
DOCKED: REMARK   14  A    between atoms: C12_17  and  C13_18
DOCKED: REMARK   15  A    between atoms: C13_18  and  S1_19
DOCKED: REMARK   16  A    between atoms: S1_19  and  C14_20
DOCKED: REMARK   17  A    between atoms: N3_23  and  C16_24
DOCKED: REMARK   18  A    between atoms: C16_24  and  C17_25
DOCKED: REMARK   19  A    between atoms: C16_24  and  C24_32
DOCKED: REMARK   20  A    between atoms: C17_25  and  C18_26
DOCKED: REMARK   21  A    between atoms: C24_32  and  O5_33
DOCKED: REMARK   22  A    between atoms: C24_32  and  C25_34
DOCKED: REMARK   23  A    between atoms: C25_34  and  C26_35
DOCKED: REMARK   24  A    between atoms: C26_35  and  C27_36
DOCKED: REMARK   25  A    between atoms: C26_35  and  C28_37
DOCKED: REMARK   26  A    between atoms: N4_39  and  C29_40
DOCKED: REMARK   27  A    between atoms: C29_40  and  C30_41
DOCKED: REMARK   28  A    between atoms: C29_40  and  C37_51
DOCKED: REMARK   29  A    between atoms: N5_43  and  C31_44
DOCKED: REMARK   30  A    between atoms: C31_44  and  C32_45
DOCKED: REMARK   31  A    between atoms: C37_51  and  C38_52
DOCKED: REMARK   32  A    between atoms: C37_51  and  C39_53
DOCKED: REMARK                            x       y       z     vdW  Elec       q    Type
DOCKED: REMARK                         _______ _______ _______ _____ _____    ______ ____
DOCKED: USER                              x       y       z     vdW  Elec       q    Type
DOCKED: USER                           _______ _______ _______ _____ _____    ______ ____
DOCKED: ROOT
DOCKED: ATOM      1  C16 UNL     1      11.259  -0.472  -3.166 +0.00 +0.00    +0.106 C  
DOCKED: ENDROOT
DOCKED: BRANCH   1   4
DOCKED: ATOM      2  C15 UNL     1      12.849  -0.632  -1.264 +0.00 +0.00    +0.234 C  
DOCKED: ATOM      3  O4  UNL     1      11.954  -0.864  -0.453 +0.00 -0.00    -0.274 OA 
DOCKED: ATOM      4  N3  UNL     1      12.625  -0.503  -2.621 +0.00 -0.00    -0.308 N  
DOCKED: ATOM      5  H28 UNL     1      13.360  -0.070  -3.167 +0.00 +0.00    +0.149 HD 
DOCKED: BRANCH   2   6
DOCKED: ATOM      6  C11 UNL     1      14.329  -0.500  -0.852 +0.00 +0.00    +0.160 C  
DOCKED: BRANCH   6   9
DOCKED: ATOM      7  C10 UNL     1      13.747   1.388   0.624 +0.00 +0.00    +0.234 C  
DOCKED: ATOM      8  O3  UNL     1      13.399   2.101  -0.318 +0.00 -0.00    -0.274 OA 
DOCKED: ATOM      9  N2  UNL     1      14.368   0.166   0.443 +0.00 -0.00    -0.302 N  
DOCKED: ATOM     10  H19 UNL     1      14.441  -0.445   1.253 +0.00 +0.00    +0.150 HD 
DOCKED: BRANCH   7  11
DOCKED: ATOM     11  C4  UNL     1      13.634   1.835   2.092 +0.00 +0.00    +0.162 C  
DOCKED: BRANCH  11  12
DOCKED: ATOM     12  N1  UNL     1      12.444   1.164   2.597 +0.00 -0.00    -0.270 N  
DOCKED: ATOM     13  C5  UNL     1      11.308   1.079   1.846 +0.00 +0.00    +0.401 C  
DOCKED: ATOM     14  O1  UNL     1      11.078   1.748   0.850 +0.00 -0.00    -0.226 OA 
DOCKED: ATOM     15  H9  UNL     1      12.570   0.405   3.253 +0.00 +0.00    +0.153 HD 
DOCKED: BRANCH  13  16
DOCKED: ATOM     16  O2  UNL     1      10.505   0.136   2.386 +0.00 -0.00    -0.445 OA 
DOCKED: BRANCH  16  17
DOCKED: ATOM     17  C6  UNL     1       9.213   0.492   2.946 +0.00 +0.00    +0.107 C  
DOCKED: ATOM     18  C7  UNL     1       9.388   1.410   4.165 +0.00 +0.00    +0.055 C  
DOCKED: ATOM     19  C8  UNL     1       8.279   1.096   1.886 +0.00 +0.00    +0.055 C  
DOCKED: ATOM     20  C9  UNL     1       8.611  -0.843   3.411 +0.00 +0.00    +0.055 C  
DOCKED: ENDBRANCH  16  17
DOCKED: ENDBRANCH  13  16
DOCKED: ENDBRANCH  11  12
DOCKED: BRANCH  11  21
DOCKED: ATOM     21  C3  UNL     1      14.859   1.426   2.917 +0.00 +0.00    +0.031 C  
DOCKED: BRANCH  21  23
DOCKED: ATOM     22  C1  UNL     1      17.137   0.825   1.917 +0.00 +0.00    +0.004 C  
DOCKED: ATOM     23  C2  UNL     1      16.189   1.934   2.347 +0.00 -0.00    -0.001 C  
DOCKED: ENDBRANCH  21  23
DOCKED: ENDBRANCH  11  21
DOCKED: ENDBRANCH   7  11
DOCKED: ENDBRANCH   6   9
DOCKED: BRANCH   6  24
DOCKED: ATOM     24  C12 UNL     1      14.986  -1.882  -0.803 +0.00 +0.00    +0.042 C  
DOCKED: BRANCH  24  25
DOCKED: ATOM     25  C13 UNL     1      14.108  -2.873  -0.039 +0.00 +0.00    +0.071 C  
DOCKED: BRANCH  25  26
DOCKED: ATOM     26  S1  UNL     1      14.337  -2.724   1.765 +0.00 -0.00    -0.164 S  
DOCKED: ATOM     27  C14 UNL     1      12.658  -2.239   2.245 +0.00 +0.00    +0.084 C  
DOCKED: ENDBRANCH  25  26
DOCKED: ENDBRANCH  24  25
DOCKED: ENDBRANCH   6  24
DOCKED: ENDBRANCH   2   6
DOCKED: ENDBRANCH   1   4
DOCKED: BRANCH   1  28
DOCKED: ATOM     28  C24 UNL     1      10.377   0.518  -2.349 +0.00 +0.00    +0.136 C  
DOCKED: BRANCH  28  29
DOCKED: ATOM     29  O5  UNL     1      11.153   1.507  -1.680 +0.00 -0.00    -0.390 OA 
DOCKED: ATOM     30  H38 UNL     1      11.524   1.131  -0.863 +0.00 +0.00    +0.210 HD 
DOCKED: ENDBRANCH  28  29
DOCKED: BRANCH  28  31
DOCKED: ATOM     31  C25 UNL     1       9.304   1.231  -3.189 +0.00 +0.00    +0.045 C  
DOCKED: BRANCH  31  32
DOCKED: ATOM     32  C26 UNL     1       8.034   1.600  -2.392 +0.00 +0.00    +0.074 C  
DOCKED: ATOM     33  C27 UNL     1       7.721   0.624  -1.260 +0.00 +0.00    +0.017 C  
DOCKED: BRANCH  32  34
DOCKED: ATOM     34  C28 UNL     1       8.189   3.016  -1.845 +0.00 +0.00    +0.217 C  
DOCKED: ATOM     35  O6  UNL     1       7.657   4.004  -2.341 +0.00 -0.00    -0.276 OA 
DOCKED: ATOM     36  N4  UNL     1       8.953   3.076  -0.696 +0.00 -0.00    -0.304 N  
DOCKED: ATOM     37  H45 UNL     1       9.616   2.318  -0.560 +0.00 +0.00    +0.149 HD 
DOCKED: BRANCH  36  38
DOCKED: ATOM     38  C29 UNL     1       9.390   4.360  -0.149 +0.00 +0.00    +0.161 C  
DOCKED: BRANCH  38  39
DOCKED: ATOM     39  C30 UNL     1      10.490   4.902  -1.084 +0.00 +0.00    +0.234 C  
DOCKED: ATOM     40  O7  UNL     1      10.384   5.999  -1.640 +0.00 -0.00    -0.274 OA 
DOCKED: ATOM     41  N5  UNL     1      11.554   4.056  -1.284 +0.00 -0.00    -0.310 N  
DOCKED: ATOM     42  H47 UNL     1      11.674   3.279  -0.646 +0.00 +0.00    +0.149 HD 
DOCKED: BRANCH  41  43
DOCKED: ATOM     43  C31 UNL     1      12.706   4.450  -2.064 +0.00 +0.00    +0.139 C  
DOCKED: BRANCH  43  44
DOCKED: ATOM     44  C32 UNL     1      13.122   3.353  -3.009 +0.00 -0.00    -0.027 A  
DOCKED: ATOM     45  C33 UNL     1      14.369   2.731  -2.883 +0.00 +0.00    +0.025 A  
DOCKED: ATOM     46  C34 UNL     1      14.700   1.720  -3.771 +0.00 +0.00    +0.111 A  
DOCKED: ATOM     47  N6  UNL     1      13.891   1.298  -4.762 +0.00 -0.00    -0.263 NA 
DOCKED: ATOM     48  C35 UNL     1      12.693   1.908  -4.867 +0.00 +0.00    +0.111 A  
DOCKED: ATOM     49  C36 UNL     1      12.268   2.924  -4.026 +0.00 +0.00    +0.025 A  
DOCKED: ENDBRANCH  43  44
DOCKED: ENDBRANCH  41  43
DOCKED: ENDBRANCH  38  39
DOCKED: BRANCH  38  50
DOCKED: ATOM     50  C37 UNL     1       9.900   4.248   1.304 +0.00 +0.00    +0.012 C  
DOCKED: ATOM     51  C38 UNL     1       8.809   4.517   2.347 +0.00 +0.00    +0.009 C  
DOCKED: ATOM     52  C39 UNL     1      11.085   5.192   1.529 +0.00 +0.00    +0.009 C  
DOCKED: ENDBRANCH  38  50
DOCKED: ENDBRANCH  36  38
DOCKED: ENDBRANCH  32  34
DOCKED: ENDBRANCH  31  32
DOCKED: ENDBRANCH  28  31
DOCKED: ENDBRANCH   1  28
DOCKED: BRANCH   1  53
DOCKED: ATOM     53  C17 UNL     1      10.702  -1.912  -3.283 +0.00 +0.00    +0.060 C  
DOCKED: BRANCH  53  54
DOCKED: ATOM     54  C18 UNL     1      10.401  -2.574  -1.961 +0.00 -0.00    -0.046 A  
DOCKED: ATOM     55  C19 UNL     1       9.325  -2.136  -1.179 +0.00 +0.00    +0.004 A  
DOCKED: ATOM     56  C20 UNL     1       9.058  -2.728   0.057 +0.00 +0.00    +0.000 A  
DOCKED: ATOM     57  C21 UNL     1       9.867  -3.762   0.524 +0.00 +0.00    +0.000 A  
DOCKED: ATOM     58  C22 UNL     1      10.935  -4.209  -0.248 +0.00 +0.00    +0.000 A  
DOCKED: ATOM     59  C23 UNL     1      11.201  -3.622  -1.485 +0.00 +0.00    +0.004 A  
DOCKED: ENDBRANCH  53  54
DOCKED: ENDBRANCH   1  53
DOCKED: TORSDOF 24
DOCKED: TER
DOCKED: ENDMDL
________________________________________________________________________________


    FINAL DOCKED STATE:
    ________________________


Run:   14 / 20
Time taken for this run:   2.704s

DOCKED: MODEL        14
DOCKED: USER    Run = 14
DOCKED: USER
DOCKED: USER    Estimated Free Energy of Binding    =  +7.16 kcal/mol  [=(1)+(2)+(3)-(4)]
DOCKED: USER
DOCKED: USER    (1) Final Intermolecular Energy     =  +0.00 kcal/mol
DOCKED: USER        vdW + Hbond + desolv Energy     =  +0.00 kcal/mol
DOCKED: USER        Electrostatic Energy            =  +0.00 kcal/mol
DOCKED: USER        Moving Ligand-Fixed Receptor    =  +0.00 kcal/mol
DOCKED: USER        Moving Ligand-Moving Receptor   =  +0.00 kcal/mol
DOCKED: USER    (2) Final Total Internal Energy     = -15.72 kcal/mol
DOCKED: USER    (3) Torsional Free Energy           =  +7.16 kcal/mol
DOCKED: USER    (4) Unbound System's Energy         = -15.72 kcal/mol
DOCKED: USER
DOCKED: USER
DOCKED: REMARK  Name = ligands/ligand_19.pdb
DOCKED: REMARK  32 active torsions:
DOCKED: REMARK  status: ('A' for Active; 'I' for Inactive)
DOCKED: REMARK    1  A    between atoms: C1_1  and  C2_2
DOCKED: REMARK    2  A    between atoms: C2_2  and  C3_3
DOCKED: REMARK    3  A    between atoms: C3_3  and  C4_4
DOCKED: REMARK    4  A    between atoms: C4_4  and  N1_5
DOCKED: REMARK    5  A    between atoms: C4_4  and  C10_13
DOCKED: REMARK    6  A    between atoms: C5_6  and  O2_8
DOCKED: REMARK    7  A    between atoms: O2_8  and  C6_9
DOCKED: REMARK    8  A    between atoms: C6_9  and  C7_10
DOCKED: REMARK    9  A    between atoms: C6_9  and  C8_11
DOCKED: REMARK   10  A    between atoms: C6_9  and  C9_12
DOCKED: REMARK   11  A    between atoms: N2_15  and  C11_16
DOCKED: REMARK   12  A    between atoms: C11_16  and  C12_17
DOCKED: REMARK   13  A    between atoms: C11_16  and  C15_21
DOCKED: REMARK   14  A    between atoms: C12_17  and  C13_18
DOCKED: REMARK   15  A    between atoms: C13_18  and  S1_19
DOCKED: REMARK   16  A    between atoms: S1_19  and  C14_20
DOCKED: REMARK   17  A    between atoms: N3_23  and  C16_24
DOCKED: REMARK   18  A    between atoms: C16_24  and  C17_25
DOCKED: REMARK   19  A    between atoms: C16_24  and  C24_32
DOCKED: REMARK   20  A    between atoms: C17_25  and  C18_26
DOCKED: REMARK   21  A    between atoms: C24_32  and  O5_33
DOCKED: REMARK   22  A    between atoms: C24_32  and  C25_34
DOCKED: REMARK   23  A    between atoms: C25_34  and  C26_35
DOCKED: REMARK   24  A    between atoms: C26_35  and  C27_36
DOCKED: REMARK   25  A    between atoms: C26_35  and  C28_37
DOCKED: REMARK   26  A    between atoms: N4_39  and  C29_40
DOCKED: REMARK   27  A    between atoms: C29_40  and  C30_41
DOCKED: REMARK   28  A    between atoms: C29_40  and  C37_51
DOCKED: REMARK   29  A    between atoms: N5_43  and  C31_44
DOCKED: REMARK   30  A    between atoms: C31_44  and  C32_45
DOCKED: REMARK   31  A    between atoms: C37_51  and  C38_52
DOCKED: REMARK   32  A    between atoms: C37_51  and  C39_53
DOCKED: REMARK                            x       y       z     vdW  Elec       q    Type
DOCKED: REMARK                         _______ _______ _______ _____ _____    ______ ____
DOCKED: USER                              x       y       z     vdW  Elec       q    Type
DOCKED: USER                           _______ _______ _______ _____ _____    ______ ____
DOCKED: ROOT
DOCKED: ATOM      1  C16 UNL     1       8.584  -0.290  -3.012 +0.00 +0.00    +0.106 C  
DOCKED: ENDROOT
DOCKED: BRANCH   1   4
DOCKED: ATOM      2  C15 UNL     1      10.497   1.007  -3.925 +0.00 +0.00    +0.234 C  
DOCKED: ATOM      3  O4  UNL     1      10.208   0.733  -5.089 +0.00 -0.00    -0.274 OA 
DOCKED: ATOM      4  N3  UNL     1       9.725   0.622  -2.845 +0.00 -0.00    -0.308 N  
DOCKED: ATOM      5  H28 UNL     1      10.163   0.669  -1.932 +0.00 +0.00    +0.149 HD 
DOCKED: BRANCH   2   6
DOCKED: ATOM      6  C11 UNL     1      11.736   1.845  -3.551 +0.00 +0.00    +0.160 C  
DOCKED: BRANCH   6   9
DOCKED: ATOM      7  C10 UNL     1      13.109   2.161  -1.527 +0.00 +0.00    +0.234 C  
DOCKED: ATOM      8  O3  UNL     1      13.840   2.988  -2.073 +0.00 -0.00    -0.274 OA 
DOCKED: ATOM      9  N2  UNL     1      12.162   1.432  -2.221 +0.00 -0.00    -0.302 N  
DOCKED: ATOM     10  H19 UNL     1      11.470   0.923  -1.674 +0.00 +0.00    +0.150 HD 
DOCKED: BRANCH   7  11
DOCKED: ATOM     11  C4  UNL     1      13.256   1.770  -0.046 +0.00 +0.00    +0.162 C  
DOCKED: BRANCH  11  12
DOCKED: ATOM     12  N1  UNL     1      11.894   1.743   0.470 +0.00 -0.00    -0.270 N  
DOCKED: ATOM     13  C5  UNL     1      11.111   0.633   0.343 +0.00 +0.00    +0.401 C  
DOCKED: ATOM     14  O1  UNL     1      11.344  -0.302  -0.408 +0.00 -0.00    -0.226 OA 
DOCKED: ATOM     15  H9  UNL     1      11.680   2.317   1.276 +0.00 +0.00    +0.153 HD 
DOCKED: BRANCH  13  16
DOCKED: ATOM     16  O2  UNL     1      10.063   0.748   1.188 +0.00 -0.00    -0.445 OA 
DOCKED: BRANCH  16  17
DOCKED: ATOM     17  C6  UNL     1       9.821  -0.253   2.212 +0.00 +0.00    +0.107 C  
DOCKED: ATOM     18  C7  UNL     1       9.015   0.348   3.373 +0.00 +0.00    +0.055 C  
DOCKED: ATOM     19  C8  UNL     1       9.163  -1.516   1.633 +0.00 +0.00    +0.055 C  
DOCKED: ATOM     20  C9  UNL     1      11.220  -0.632   2.721 +0.00 +0.00    +0.055 C  
DOCKED: ENDBRANCH  16  17
DOCKED: ENDBRANCH  13  16
DOCKED: ENDBRANCH  11  12
DOCKED: BRANCH  11  21
DOCKED: ATOM     21  C3  UNL     1      13.912   0.396   0.127 +0.00 +0.00    +0.031 C  
DOCKED: BRANCH  21  23
DOCKED: ATOM     22  C1  UNL     1      15.379  -1.422  -0.917 +0.00 +0.00    +0.004 C  
DOCKED: ATOM     23  C2  UNL     1      14.695  -0.077  -1.103 +0.00 -0.00    -0.001 C  
DOCKED: ENDBRANCH  21  23
DOCKED: ENDBRANCH  11  21
DOCKED: ENDBRANCH   7  11
DOCKED: ENDBRANCH   6   9
DOCKED: BRANCH   6  24
DOCKED: ATOM     24  C12 UNL     1      12.839   1.646  -4.593 +0.00 +0.00    +0.042 C  
DOCKED: BRANCH  24  25
DOCKED: ATOM     25  C13 UNL     1      13.135   0.159  -4.791 +0.00 +0.00    +0.071 C  
DOCKED: BRANCH  25  26
DOCKED: ATOM     26  S1  UNL     1      14.899  -0.219  -4.519 +0.00 -0.00    -0.164 S  
DOCKED: ATOM     27  C14 UNL     1      15.532   1.458  -4.253 +0.00 +0.00    +0.084 C  
DOCKED: ENDBRANCH  25  26
DOCKED: ENDBRANCH  24  25
DOCKED: ENDBRANCH   6  24
DOCKED: ENDBRANCH   2   6
DOCKED: ENDBRANCH   1   4
DOCKED: BRANCH   1  28
DOCKED: ATOM     28  C24 UNL     1       7.724  -0.318  -1.714 +0.00 +0.00    +0.136 C  
DOCKED: BRANCH  28  29
DOCKED: ATOM     29  O5  UNL     1       8.413   0.237  -0.598 +0.00 -0.00    -0.390 OA 
DOCKED: ATOM     30  H38 UNL     1       9.327   0.451  -0.856 +0.00 +0.00    +0.210 HD 
DOCKED: ENDBRANCH  28  29
DOCKED: BRANCH  28  31
DOCKED: ATOM     31  C25 UNL     1       6.371   0.399  -1.853 +0.00 +0.00    +0.045 C  
DOCKED: BRANCH  31  32
DOCKED: ATOM     32  C26 UNL     1       5.897   1.089  -0.554 +0.00 +0.00    +0.074 C  
DOCKED: ATOM     33  C27 UNL     1       6.136   0.253   0.701 +0.00 +0.00    +0.017 C  
DOCKED: BRANCH  32  34
DOCKED: ATOM     34  C28 UNL     1       6.593   2.441  -0.432 +0.00 +0.00    +0.217 C  
DOCKED: ATOM     35  O6  UNL     1       6.219   3.459  -1.006 +0.00 -0.00    -0.276 OA 
DOCKED: ATOM     36  N4  UNL     1       7.668   2.425   0.435 +0.00 -0.00    -0.304 N  
DOCKED: ATOM     37  H45 UNL     1       8.110   1.522   0.582 +0.00 +0.00    +0.149 HD 
DOCKED: BRANCH  36  38
DOCKED: ATOM     38  C29 UNL     1       8.586   3.561   0.518 +0.00 +0.00    +0.161 C  
DOCKED: BRANCH  38  39
DOCKED: ATOM     39  C30 UNL     1       9.437   3.553  -0.767 +0.00 +0.00    +0.234 C  
DOCKED: ATOM     40  O7  UNL     1       9.992   2.526  -1.168 +0.00 -0.00    -0.274 OA 
DOCKED: ATOM     41  N5  UNL     1       9.568   4.771  -1.388 +0.00 -0.00    -0.310 N  
DOCKED: ATOM     42  H47 UNL     1       8.928   5.511  -1.128 +0.00 +0.00    +0.149 HD 
DOCKED: BRANCH  41  43
DOCKED: ATOM     43  C31 UNL     1      10.262   4.915  -2.648 +0.00 +0.00    +0.139 C  
DOCKED: BRANCH  43  44
DOCKED: ATOM     44  C32 UNL     1       9.475   4.295  -3.774 +0.00 -0.00    -0.027 A  
DOCKED: ATOM     45  C33 UNL     1      10.003   4.227  -5.067 +0.00 +0.00    +0.025 A  
DOCKED: ATOM     46  C34 UNL     1       9.244   3.637  -6.066 +0.00 +0.00    +0.111 A  
DOCKED: ATOM     47  N6  UNL     1       8.013   3.125  -5.868 +0.00 -0.00    -0.263 NA 
DOCKED: ATOM     48  C35 UNL     1       7.521   3.198  -4.615 +0.00 +0.00    +0.111 A  
DOCKED: ATOM     49  C36 UNL     1       8.204   3.763  -3.549 +0.00 +0.00    +0.025 A  
DOCKED: ENDBRANCH  43  44
DOCKED: ENDBRANCH  41  43
DOCKED: ENDBRANCH  38  39
DOCKED: BRANCH  38  50
DOCKED: ATOM     50  C37 UNL     1       9.478   3.518   1.778 +0.00 +0.00    +0.012 C  
DOCKED: ATOM     51  C38 UNL     1       8.699   3.764   3.075 +0.00 +0.00    +0.009 C  
DOCKED: ATOM     52  C39 UNL     1      10.625   4.525   1.655 +0.00 +0.00    +0.009 C  
DOCKED: ENDBRANCH  38  50
DOCKED: ENDBRANCH  36  38
DOCKED: ENDBRANCH  32  34
DOCKED: ENDBRANCH  31  32
DOCKED: ENDBRANCH  28  31
DOCKED: ENDBRANCH   1  28
DOCKED: BRANCH   1  53
DOCKED: ATOM     53  C17 UNL     1       9.079  -1.671  -3.507 +0.00 +0.00    +0.060 C  
DOCKED: BRANCH  53  54
DOCKED: ATOM     54  C18 UNL     1      10.208  -2.257  -2.696 +0.00 -0.00    -0.046 A  
DOCKED: ATOM     55  C19 UNL     1       9.947  -2.888  -1.473 +0.00 +0.00    +0.004 A  
DOCKED: ATOM     56  C20 UNL     1      10.991  -3.409  -0.706 +0.00 +0.00    +0.000 A  
DOCKED: ATOM     57  C21 UNL     1      12.307  -3.302  -1.154 +0.00 +0.00    +0.000 A  
DOCKED: ATOM     58  C22 UNL     1      12.575  -2.684  -2.372 +0.00 +0.00    +0.000 A  
DOCKED: ATOM     59  C23 UNL     1      11.534  -2.167  -3.142 +0.00 +0.00    +0.004 A  
DOCKED: ENDBRANCH  53  54
DOCKED: ENDBRANCH   1  53
DOCKED: TORSDOF 24
DOCKED: TER
DOCKED: ENDMDL
________________________________________________________________________________


    FINAL DOCKED STATE:
    ________________________


Run:   15 / 20
Time taken for this run:   2.704s

DOCKED: MODEL        15
DOCKED: USER    Run = 15
DOCKED: USER
DOCKED: USER    Estimated Free Energy of Binding    =  +7.16 kcal/mol  [=(1)+(2)+(3)-(4)]
DOCKED: USER
DOCKED: USER    (1) Final Intermolecular Energy     =  +0.00 kcal/mol
DOCKED: USER        vdW + Hbond + desolv Energy     =  +0.00 kcal/mol
DOCKED: USER        Electrostatic Energy            =  +0.00 kcal/mol
DOCKED: USER        Moving Ligand-Fixed Receptor    =  +0.00 kcal/mol
DOCKED: USER        Moving Ligand-Moving Receptor   =  +0.00 kcal/mol
DOCKED: USER    (2) Final Total Internal Energy     = -15.69 kcal/mol
DOCKED: USER    (3) Torsional Free Energy           =  +7.16 kcal/mol
DOCKED: USER    (4) Unbound System's Energy         = -15.69 kcal/mol
DOCKED: USER
DOCKED: USER
DOCKED: REMARK  Name = ligands/ligand_19.pdb
DOCKED: REMARK  32 active torsions:
DOCKED: REMARK  status: ('A' for Active; 'I' for Inactive)
DOCKED: REMARK    1  A    between atoms: C1_1  and  C2_2
DOCKED: REMARK    2  A    between atoms: C2_2  and  C3_3
DOCKED: REMARK    3  A    between atoms: C3_3  and  C4_4
DOCKED: REMARK    4  A    between atoms: C4_4  and  N1_5
DOCKED: REMARK    5  A    between atoms: C4_4  and  C10_13
DOCKED: REMARK    6  A    between atoms: C5_6  and  O2_8
DOCKED: REMARK    7  A    between atoms: O2_8  and  C6_9
DOCKED: REMARK    8  A    between atoms: C6_9  and  C7_10
DOCKED: REMARK    9  A    between atoms: C6_9  and  C8_11
DOCKED: REMARK   10  A    between atoms: C6_9  and  C9_12
DOCKED: REMARK   11  A    between atoms: N2_15  and  C11_16
DOCKED: REMARK   12  A    between atoms: C11_16  and  C12_17
DOCKED: REMARK   13  A    between atoms: C11_16  and  C15_21
DOCKED: REMARK   14  A    between atoms: C12_17  and  C13_18
DOCKED: REMARK   15  A    between atoms: C13_18  and  S1_19
DOCKED: REMARK   16  A    between atoms: S1_19  and  C14_20
DOCKED: REMARK   17  A    between atoms: N3_23  and  C16_24
DOCKED: REMARK   18  A    between atoms: C16_24  and  C17_25
DOCKED: REMARK   19  A    between atoms: C16_24  and  C24_32
DOCKED: REMARK   20  A    between atoms: C17_25  and  C18_26
DOCKED: REMARK   21  A    between atoms: C24_32  and  O5_33
DOCKED: REMARK   22  A    between atoms: C24_32  and  C25_34
DOCKED: REMARK   23  A    between atoms: C25_34  and  C26_35
DOCKED: REMARK   24  A    between atoms: C26_35  and  C27_36
DOCKED: REMARK   25  A    between atoms: C26_35  and  C28_37
DOCKED: REMARK   26  A    between atoms: N4_39  and  C29_40
DOCKED: REMARK   27  A    between atoms: C29_40  and  C30_41
DOCKED: REMARK   28  A    between atoms: C29_40  and  C37_51
DOCKED: REMARK   29  A    between atoms: N5_43  and  C31_44
DOCKED: REMARK   30  A    between atoms: C31_44  and  C32_45
DOCKED: REMARK   31  A    between atoms: C37_51  and  C38_52
DOCKED: REMARK   32  A    between atoms: C37_51  and  C39_53
DOCKED: REMARK                            x       y       z     vdW  Elec       q    Type
DOCKED: REMARK                         _______ _______ _______ _____ _____    ______ ____
DOCKED: USER                              x       y       z     vdW  Elec       q    Type
DOCKED: USER                           _______ _______ _______ _____ _____    ______ ____
DOCKED: ROOT
DOCKED: ATOM      1  C16 UNL     1       9.301  -0.303   0.769 +0.00 +0.00    +0.106 C  
DOCKED: ENDROOT
DOCKED: BRANCH   1   4
DOCKED: ATOM      2  C15 UNL     1       8.409   1.433  -0.769 +0.00 +0.00    +0.234 C  
DOCKED: ATOM      3  O4  UNL     1       8.962   2.347  -0.159 +0.00 -0.00    -0.274 OA 
DOCKED: ATOM      4  N3  UNL     1       8.574   0.100  -0.445 +0.00 -0.00    -0.308 N  
DOCKED: ATOM      5  H28 UNL     1       7.898  -0.551  -0.827 +0.00 +0.00    +0.149 HD 
DOCKED: BRANCH   2   6
DOCKED: ATOM      6  C11 UNL     1       7.500   1.679  -1.990 +0.00 +0.00    +0.160 C  
DOCKED: BRANCH   6   9
DOCKED: ATOM      7  C10 UNL     1       5.554   0.476  -2.911 +0.00 +0.00    +0.234 C  
DOCKED: ATOM      8  O3  UNL     1       5.669   1.004  -4.017 +0.00 -0.00    -0.274 OA 
DOCKED: ATOM      9  N2  UNL     1       6.302   0.870  -1.817 +0.00 -0.00    -0.302 N  
DOCKED: ATOM     10  H19 UNL     1       6.294   0.260  -1.002 +0.00 +0.00    +0.150 HD 
DOCKED: BRANCH   7  11
DOCKED: ATOM     11  C4  UNL     1       4.487  -0.590  -2.605 +0.00 +0.00    +0.162 C  
DOCKED: BRANCH  11  12
DOCKED: ATOM     12  N1  UNL     1       5.242  -1.801  -2.315 +0.00 -0.00    -0.270 N  
DOCKED: ATOM     13  C5  UNL     1       5.787  -2.018  -1.082 +0.00 +0.00    +0.401 C  
DOCKED: ATOM     14  O1  UNL     1       5.934  -1.160  -0.225 +0.00 -0.00    -0.226 OA 
DOCKED: ATOM     15  H9  UNL     1       5.000  -2.644  -2.819 +0.00 +0.00    +0.153 HD 
DOCKED: BRANCH  13  16
DOCKED: ATOM     16  O2  UNL     1       6.117  -3.324  -0.982 +0.00 -0.00    -0.445 OA 
DOCKED: BRANCH  16  17
DOCKED: ATOM     17  C6  UNL     1       5.351  -4.220  -0.132 +0.00 +0.00    +0.107 C  
DOCKED: ATOM     18  C7  UNL     1       5.331  -3.704   1.314 +0.00 +0.00    +0.055 C  
DOCKED: ATOM     19  C8  UNL     1       3.939  -4.466  -0.687 +0.00 +0.00    +0.055 C  
DOCKED: ATOM     20  C9  UNL     1       6.121  -5.549  -0.176 +0.00 +0.00    +0.055 C  
DOCKED: ENDBRANCH  16  17
DOCKED: ENDBRANCH  13  16
DOCKED: ENDBRANCH  11  12
DOCKED: BRANCH  11  21
DOCKED: ATOM     21  C3  UNL     1       3.619  -0.210  -1.400 +0.00 +0.00    +0.031 C  
DOCKED: BRANCH  21  23
DOCKED: ATOM     22  C1  UNL     1       2.445  -1.535   0.449 +0.00 +0.00    +0.004 C  
DOCKED: ATOM     23  C2  UNL     1       2.561  -1.261  -1.043 +0.00 -0.00    -0.001 C  
DOCKED: ENDBRANCH  21  23
DOCKED: ENDBRANCH  11  21
DOCKED: ENDBRANCH   7  11
DOCKED: ENDBRANCH   6   9
DOCKED: BRANCH   6  24
DOCKED: ATOM     24  C12 UNL     1       7.173   3.169  -2.109 +0.00 +0.00    +0.042 C  
DOCKED: BRANCH  24  25
DOCKED: ATOM     25  C13 UNL     1       6.113   3.574  -1.085 +0.00 +0.00    +0.071 C  
DOCKED: BRANCH  25  26
DOCKED: ATOM     26  S1  UNL     1       4.465   3.741  -1.850 +0.00 -0.00    -0.164 S  
DOCKED: ATOM     27  C14 UNL     1       3.439   3.081  -0.510 +0.00 +0.00    +0.084 C  
DOCKED: ENDBRANCH  25  26
DOCKED: ENDBRANCH  24  25
DOCKED: ENDBRANCH   6  24
DOCKED: ENDBRANCH   2   6
DOCKED: ENDBRANCH   1   4
DOCKED: BRANCH   1  28
DOCKED: ATOM     28  C24 UNL     1       9.246  -1.851   0.939 +0.00 +0.00    +0.136 C  
DOCKED: BRANCH  28  29
DOCKED: ATOM     29  O5  UNL     1       8.297  -2.456   0.068 +0.00 -0.00    -0.390 OA 
DOCKED: ATOM     30  H38 UNL     1       7.427  -2.480   0.503 +0.00 +0.00    +0.210 HD 
DOCKED: ENDBRANCH  28  29
DOCKED: BRANCH  28  31
DOCKED: ATOM     31  C25 UNL     1      10.603  -2.544   0.734 +0.00 +0.00    +0.045 C  
DOCKED: BRANCH  31  32
DOCKED: ATOM     32  C26 UNL     1      10.503  -3.904   0.008 +0.00 +0.00    +0.074 C  
DOCKED: ATOM     33  C27 UNL     1       9.385  -4.797   0.541 +0.00 +0.00    +0.017 C  
DOCKED: BRANCH  32  34
DOCKED: ATOM     34  C28 UNL     1      10.314  -3.653  -1.485 +0.00 +0.00    +0.217 C  
DOCKED: ATOM     35  O6  UNL     1      11.233  -3.394  -2.257 +0.00 -0.00    -0.276 OA 
DOCKED: ATOM     36  N4  UNL     1       9.005  -3.793  -1.901 +0.00 -0.00    -0.304 N  
DOCKED: ATOM     37  H45 UNL     1       8.293  -3.659  -1.189 +0.00 +0.00    +0.149 HD 
DOCKED: BRANCH  36  38
DOCKED: ATOM     38  C29 UNL     1       8.594  -3.385  -3.244 +0.00 +0.00    +0.161 C  
DOCKED: BRANCH  38  39
DOCKED: ATOM     39  C30 UNL     1       8.753  -1.854  -3.322 +0.00 +0.00    +0.234 C  
DOCKED: ATOM     40  O7  UNL     1       7.851  -1.091  -2.966 +0.00 -0.00    -0.274 OA 
DOCKED: ATOM     41  N5  UNL     1       9.939  -1.417  -3.860 +0.00 -0.00    -0.310 N  
DOCKED: ATOM     42  H47 UNL     1      10.703  -2.078  -3.934 +0.00 +0.00    +0.149 HD 
DOCKED: BRANCH  41  43
DOCKED: ATOM     43  C31 UNL     1      10.278  -0.013  -3.923 +0.00 +0.00    +0.139 C  
DOCKED: BRANCH  43  44
DOCKED: ATOM     44  C32 UNL     1      11.051   0.414  -2.701 +0.00 -0.00    -0.027 A  
DOCKED: ATOM     45  C33 UNL     1      11.647  -0.533  -1.862 +0.00 +0.00    +0.025 A  
DOCKED: ATOM     46  C34 UNL     1      12.355  -0.089  -0.756 +0.00 +0.00    +0.111 A  
DOCKED: ATOM     47  N6  UNL     1      12.503   1.211  -0.433 +0.00 -0.00    -0.263 NA 
DOCKED: ATOM     48  C35 UNL     1      11.923   2.109  -1.255 +0.00 +0.00    +0.111 A  
DOCKED: ATOM     49  C36 UNL     1      11.200   1.765  -2.386 +0.00 +0.00    +0.025 A  
DOCKED: ENDBRANCH  43  44
DOCKED: ENDBRANCH  41  43
DOCKED: ENDBRANCH  38  39
DOCKED: BRANCH  38  50
DOCKED: ATOM     50  C37 UNL     1       7.150  -3.813  -3.583 +0.00 +0.00    +0.012 C  
DOCKED: ATOM     51  C38 UNL     1       6.951  -5.333  -3.558 +0.00 +0.00    +0.009 C  
DOCKED: ATOM     52  C39 UNL     1       6.731  -3.252  -4.945 +0.00 +0.00    +0.009 C  
DOCKED: ENDBRANCH  38  50
DOCKED: ENDBRANCH  36  38
DOCKED: ENDBRANCH  32  34
DOCKED: ENDBRANCH  31  32
DOCKED: ENDBRANCH  28  31
DOCKED: ENDBRANCH   1  28
DOCKED: BRANCH   1  53
DOCKED: ATOM     53  C17 UNL     1       8.796   0.514   1.983 +0.00 +0.00    +0.060 C  
DOCKED: BRANCH  53  54
DOCKED: ATOM     54  C18 UNL     1       7.302   0.474   2.186 +0.00 -0.00    -0.046 A  
DOCKED: ATOM     55  C19 UNL     1       6.692  -0.662   2.734 +0.00 +0.00    +0.004 A  
DOCKED: ATOM     56  C20 UNL     1       5.307  -0.714   2.899 +0.00 +0.00    +0.000 A  
DOCKED: ATOM     57  C21 UNL     1       4.517   0.368   2.515 +0.00 +0.00    +0.000 A  
DOCKED: ATOM     58  C22 UNL     1       5.114   1.504   1.976 +0.00 +0.00    +0.000 A  
DOCKED: ATOM     59  C23 UNL     1       6.498   1.560   1.814 +0.00 +0.00    +0.004 A  
DOCKED: ENDBRANCH  53  54
DOCKED: ENDBRANCH   1  53
DOCKED: TORSDOF 24
DOCKED: TER
DOCKED: ENDMDL
________________________________________________________________________________


    FINAL DOCKED STATE:
    ________________________


Run:   16 / 20
Time taken for this run:   2.704s

DOCKED: MODEL        16
DOCKED: USER    Run = 16
DOCKED: USER
DOCKED: USER    Estimated Free Energy of Binding    =  +7.16 kcal/mol  [=(1)+(2)+(3)-(4)]
DOCKED: USER
DOCKED: USER    (1) Final Intermolecular Energy     =  +0.00 kcal/mol
DOCKED: USER        vdW + Hbond + desolv Energy     =  +0.00 kcal/mol
DOCKED: USER        Electrostatic Energy            =  +0.00 kcal/mol
DOCKED: USER        Moving Ligand-Fixed Receptor    =  +0.00 kcal/mol
DOCKED: USER        Moving Ligand-Moving Receptor   =  +0.00 kcal/mol
DOCKED: USER    (2) Final Total Internal Energy     = -15.43 kcal/mol
DOCKED: USER    (3) Torsional Free Energy           =  +7.16 kcal/mol
DOCKED: USER    (4) Unbound System's Energy         = -15.43 kcal/mol
DOCKED: USER
DOCKED: USER
DOCKED: REMARK  Name = ligands/ligand_19.pdb
DOCKED: REMARK  32 active torsions:
DOCKED: REMARK  status: ('A' for Active; 'I' for Inactive)
DOCKED: REMARK    1  A    between atoms: C1_1  and  C2_2
DOCKED: REMARK    2  A    between atoms: C2_2  and  C3_3
DOCKED: REMARK    3  A    between atoms: C3_3  and  C4_4
DOCKED: REMARK    4  A    between atoms: C4_4  and  N1_5
DOCKED: REMARK    5  A    between atoms: C4_4  and  C10_13
DOCKED: REMARK    6  A    between atoms: C5_6  and  O2_8
DOCKED: REMARK    7  A    between atoms: O2_8  and  C6_9
DOCKED: REMARK    8  A    between atoms: C6_9  and  C7_10
DOCKED: REMARK    9  A    between atoms: C6_9  and  C8_11
DOCKED: REMARK   10  A    between atoms: C6_9  and  C9_12
DOCKED: REMARK   11  A    between atoms: N2_15  and  C11_16
DOCKED: REMARK   12  A    between atoms: C11_16  and  C12_17
DOCKED: REMARK   13  A    between atoms: C11_16  and  C15_21
DOCKED: REMARK   14  A    between atoms: C12_17  and  C13_18
DOCKED: REMARK   15  A    between atoms: C13_18  and  S1_19
DOCKED: REMARK   16  A    between atoms: S1_19  and  C14_20
DOCKED: REMARK   17  A    between atoms: N3_23  and  C16_24
DOCKED: REMARK   18  A    between atoms: C16_24  and  C17_25
DOCKED: REMARK   19  A    between atoms: C16_24  and  C24_32
DOCKED: REMARK   20  A    between atoms: C17_25  and  C18_26
DOCKED: REMARK   21  A    between atoms: C24_32  and  O5_33
DOCKED: REMARK   22  A    between atoms: C24_32  and  C25_34
DOCKED: REMARK   23  A    between atoms: C25_34  and  C26_35
DOCKED: REMARK   24  A    between atoms: C26_35  and  C27_36
DOCKED: REMARK   25  A    between atoms: C26_35  and  C28_37
DOCKED: REMARK   26  A    between atoms: N4_39  and  C29_40
DOCKED: REMARK   27  A    between atoms: C29_40  and  C30_41
DOCKED: REMARK   28  A    between atoms: C29_40  and  C37_51
DOCKED: REMARK   29  A    between atoms: N5_43  and  C31_44
DOCKED: REMARK   30  A    between atoms: C31_44  and  C32_45
DOCKED: REMARK   31  A    between atoms: C37_51  and  C38_52
DOCKED: REMARK   32  A    between atoms: C37_51  and  C39_53
DOCKED: REMARK                            x       y       z     vdW  Elec       q    Type
DOCKED: REMARK                         _______ _______ _______ _____ _____    ______ ____
DOCKED: USER                              x       y       z     vdW  Elec       q    Type
DOCKED: USER                           _______ _______ _______ _____ _____    ______ ____
DOCKED: ROOT
DOCKED: ATOM      1  C16 UNL     1       7.117 -10.264  -4.555 +0.00 +0.00    +0.106 C  
DOCKED: ENDROOT
DOCKED: BRANCH   1   4
DOCKED: ATOM      2  C15 UNL     1       6.114  -9.050  -2.633 +0.00 +0.00    +0.234 C  
DOCKED: ATOM      3  O4  UNL     1       5.520 -10.049  -2.231 +0.00 -0.00    -0.274 OA 
DOCKED: ATOM      4  N3  UNL     1       6.979  -9.068  -3.711 +0.00 -0.00    -0.308 N  
DOCKED: ATOM      5  H28 UNL     1       7.218  -8.172  -4.119 +0.00 +0.00    +0.149 HD 
DOCKED: BRANCH   2   6
DOCKED: ATOM      6  C11 UNL     1       5.985  -7.675  -1.948 +0.00 +0.00    +0.160 C  
DOCKED: BRANCH   6   9
DOCKED: ATOM      7  C10 UNL     1       5.087  -6.162  -3.677 +0.00 +0.00    +0.234 C  
DOCKED: ATOM      8  O3  UNL     1       3.997  -6.734  -3.704 +0.00 -0.00    -0.274 OA 
DOCKED: ATOM      9  N2  UNL     1       6.169  -6.655  -2.972 +0.00 -0.00    -0.302 N  
DOCKED: ATOM     10  H19 UNL     1       6.961  -6.030  -2.836 +0.00 +0.00    +0.150 HD 
DOCKED: BRANCH   7  11
DOCKED: ATOM     11  C4  UNL     1       5.390  -4.910  -4.519 +0.00 +0.00    +0.162 C  
DOCKED: BRANCH  11  12
DOCKED: ATOM     12  N1  UNL     1       6.800  -5.025  -4.865 +0.00 -0.00    -0.270 N  
DOCKED: ATOM     13  C5  UNL     1       7.267  -6.084  -5.588 +0.00 +0.00    +0.401 C  
DOCKED: ATOM     14  O1  UNL     1       6.655  -7.123  -5.778 +0.00 -0.00    -0.226 OA 
DOCKED: ATOM     15  H9  UNL     1       7.332  -4.172  -4.980 +0.00 +0.00    +0.153 HD 
DOCKED: BRANCH  13  16
DOCKED: ATOM     16  O2  UNL     1       8.497  -5.775  -6.055 +0.00 -0.00    -0.445 OA 
DOCKED: BRANCH  16  17
DOCKED: ATOM     17  C6  UNL     1       8.776  -5.790  -7.481 +0.00 +0.00    +0.107 C  
DOCKED: ATOM     18  C7  UNL     1       9.761  -6.916  -7.826 +0.00 +0.00    +0.055 C  
DOCKED: ATOM     19  C8  UNL     1       7.486  -5.864  -8.314 +0.00 +0.00    +0.055 C  
DOCKED: ATOM     20  C9  UNL     1       9.449  -4.437  -7.758 +0.00 +0.00    +0.055 C  
DOCKED: ENDBRANCH  16  17
DOCKED: ENDBRANCH  13  16
DOCKED: ENDBRANCH  11  12
DOCKED: BRANCH  11  21
DOCKED: ATOM     21  C3  UNL     1       4.539  -4.849  -5.792 +0.00 +0.00    +0.031 C  
DOCKED: BRANCH  21  23
DOCKED: ATOM     22  C1  UNL     1       5.436  -2.502  -6.276 +0.00 +0.00    +0.004 C  
DOCKED: ATOM     23  C2  UNL     1       5.064  -3.864  -6.842 +0.00 -0.00    -0.001 C  
DOCKED: ENDBRANCH  21  23
DOCKED: ENDBRANCH  11  21
DOCKED: ENDBRANCH   7  11
DOCKED: ENDBRANCH   6   9
DOCKED: BRANCH   6  24
DOCKED: ATOM     24  C12 UNL     1       4.622  -7.556  -1.261 +0.00 +0.00    +0.042 C  
DOCKED: BRANCH  24  25
DOCKED: ATOM     25  C13 UNL     1       4.750  -6.820   0.072 +0.00 +0.00    +0.071 C  
DOCKED: BRANCH  25  26
DOCKED: ATOM     26  S1  UNL     1       5.774  -5.318  -0.082 +0.00 -0.00    -0.164 S  
DOCKED: ATOM     27  C14 UNL     1       4.597  -4.234  -0.933 +0.00 +0.00    +0.084 C  
DOCKED: ENDBRANCH  25  26
DOCKED: ENDBRANCH  24  25
DOCKED: ENDBRANCH   6  24
DOCKED: ENDBRANCH   2   6
DOCKED: ENDBRANCH   1   4
DOCKED: BRANCH   1  28
DOCKED: ATOM     28  C24 UNL     1       8.250 -10.055  -5.603 +0.00 +0.00    +0.136 C  
DOCKED: BRANCH  28  29
DOCKED: ATOM     29  O5  UNL     1       8.706  -8.706  -5.642 +0.00 -0.00    -0.390 OA 
DOCKED: ATOM     30  H38 UNL     1       8.091  -8.142  -5.142 +0.00 +0.00    +0.210 HD 
DOCKED: ENDBRANCH  28  29
DOCKED: BRANCH  28  31
DOCKED: ATOM     31  C25 UNL     1       9.467 -10.971  -5.390 +0.00 +0.00    +0.045 C  
DOCKED: BRANCH  31  32
DOCKED: ATOM     32  C26 UNL     1       9.638 -11.446  -3.930 +0.00 +0.00    +0.074 C  
DOCKED: ATOM     33  C27 UNL     1      10.250 -12.840  -3.812 +0.00 +0.00    +0.017 C  
DOCKED: BRANCH  32  34
DOCKED: ATOM     34  C28 UNL     1      10.489 -10.428  -3.176 +0.00 +0.00    +0.217 C  
DOCKED: ATOM     35  O6  UNL     1      11.215 -10.710  -2.228 +0.00 -0.00    -0.276 OA 
DOCKED: ATOM     36  N4  UNL     1      10.403  -9.152  -3.698 +0.00 -0.00    -0.304 N  
DOCKED: ATOM     37  H45 UNL     1       9.558  -8.939  -4.220 +0.00 +0.00    +0.149 HD 
DOCKED: BRANCH  36  38
DOCKED: ATOM     38  C29 UNL     1      10.973  -8.008  -2.987 +0.00 +0.00    +0.161 C  
DOCKED: BRANCH  38  39
DOCKED: ATOM     39  C30 UNL     1       9.821  -7.018  -2.723 +0.00 +0.00    +0.234 C  
DOCKED: ATOM     40  O7  UNL     1       8.766  -7.068  -3.361 +0.00 -0.00    -0.274 OA 
DOCKED: ATOM     41  N5  UNL     1      10.081  -6.061  -1.772 +0.00 -0.00    -0.310 N  
DOCKED: ATOM     42  H47 UNL     1      10.869  -6.205  -1.152 +0.00 +0.00    +0.149 HD 
DOCKED: BRANCH  41  43
DOCKED: ATOM     43  C31 UNL     1       9.075  -5.114  -1.348 +0.00 +0.00    +0.139 C  
DOCKED: BRANCH  43  44
DOCKED: ATOM     44  C32 UNL     1       8.778  -4.114  -2.436 +0.00 -0.00    -0.027 A  
DOCKED: ATOM     45  C33 UNL     1       9.620  -3.989  -3.546 +0.00 +0.00    +0.025 A  
DOCKED: ATOM     46  C34 UNL     1       9.298  -3.062  -4.524 +0.00 +0.00    +0.111 A  
DOCKED: ATOM     47  N6  UNL     1       8.214  -2.262  -4.471 +0.00 -0.00    -0.263 NA 
DOCKED: ATOM     48  C35 UNL     1       7.413  -2.399  -3.395 +0.00 +0.00    +0.111 A  
DOCKED: ATOM     49  C36 UNL     1       7.647  -3.299  -2.367 +0.00 +0.00    +0.025 A  
DOCKED: ENDBRANCH  43  44
DOCKED: ENDBRANCH  41  43
DOCKED: ENDBRANCH  38  39
DOCKED: BRANCH  38  50
DOCKED: ATOM     50  C37 UNL     1      12.121  -7.332  -3.767 +0.00 +0.00    +0.012 C  
DOCKED: ATOM     51  C38 UNL     1      11.626  -6.371  -4.854 +0.00 +0.00    +0.009 C  
DOCKED: ATOM     52  C39 UNL     1      13.045  -8.387  -4.381 +0.00 +0.00    +0.009 C  
DOCKED: ENDBRANCH  38  50
DOCKED: ENDBRANCH  36  38
DOCKED: ENDBRANCH  32  34
DOCKED: ENDBRANCH  31  32
DOCKED: ENDBRANCH  28  31
DOCKED: ENDBRANCH   1  28
DOCKED: BRANCH   1  53
DOCKED: ATOM     53  C17 UNL     1       5.739 -10.659  -5.142 +0.00 +0.00    +0.060 C  
DOCKED: BRANCH  53  54
DOCKED: ATOM     54  C18 UNL     1       5.152  -9.646  -6.093 +0.00 -0.00    -0.046 A  
DOCKED: ATOM     55  C19 UNL     1       5.714  -9.458  -7.362 +0.00 +0.00    +0.004 A  
DOCKED: ATOM     56  C20 UNL     1       5.190  -8.503  -8.236 +0.00 +0.00    +0.000 A  
DOCKED: ATOM     57  C21 UNL     1       4.100  -7.726  -7.848 +0.00 +0.00    +0.000 A  
DOCKED: ATOM     58  C22 UNL     1       3.530  -7.911  -6.592 +0.00 +0.00    +0.000 A  
DOCKED: ATOM     59  C23 UNL     1       4.049  -8.866  -5.719 +0.00 +0.00    +0.004 A  
DOCKED: ENDBRANCH  53  54
DOCKED: ENDBRANCH   1  53
DOCKED: TORSDOF 24
DOCKED: TER
DOCKED: ENDMDL
________________________________________________________________________________


    FINAL DOCKED STATE:
    ________________________


Run:   17 / 20
Time taken for this run:   2.704s

DOCKED: MODEL        17
DOCKED: USER    Run = 17
DOCKED: USER
DOCKED: USER    Estimated Free Energy of Binding    =  +7.16 kcal/mol  [=(1)+(2)+(3)-(4)]
DOCKED: USER
DOCKED: USER    (1) Final Intermolecular Energy     =  +0.00 kcal/mol
DOCKED: USER        vdW + Hbond + desolv Energy     =  +0.00 kcal/mol
DOCKED: USER        Electrostatic Energy            =  +0.00 kcal/mol
DOCKED: USER        Moving Ligand-Fixed Receptor    =  +0.00 kcal/mol
DOCKED: USER        Moving Ligand-Moving Receptor   =  +0.00 kcal/mol
DOCKED: USER    (2) Final Total Internal Energy     = -15.47 kcal/mol
DOCKED: USER    (3) Torsional Free Energy           =  +7.16 kcal/mol
DOCKED: USER    (4) Unbound System's Energy         = -15.47 kcal/mol
DOCKED: USER
DOCKED: USER
DOCKED: REMARK  Name = ligands/ligand_19.pdb
DOCKED: REMARK  32 active torsions:
DOCKED: REMARK  status: ('A' for Active; 'I' for Inactive)
DOCKED: REMARK    1  A    between atoms: C1_1  and  C2_2
DOCKED: REMARK    2  A    between atoms: C2_2  and  C3_3
DOCKED: REMARK    3  A    between atoms: C3_3  and  C4_4
DOCKED: REMARK    4  A    between atoms: C4_4  and  N1_5
DOCKED: REMARK    5  A    between atoms: C4_4  and  C10_13
DOCKED: REMARK    6  A    between atoms: C5_6  and  O2_8
DOCKED: REMARK    7  A    between atoms: O2_8  and  C6_9
DOCKED: REMARK    8  A    between atoms: C6_9  and  C7_10
DOCKED: REMARK    9  A    between atoms: C6_9  and  C8_11
DOCKED: REMARK   10  A    between atoms: C6_9  and  C9_12
DOCKED: REMARK   11  A    between atoms: N2_15  and  C11_16
DOCKED: REMARK   12  A    between atoms: C11_16  and  C12_17
DOCKED: REMARK   13  A    between atoms: C11_16  and  C15_21
DOCKED: REMARK   14  A    between atoms: C12_17  and  C13_18
DOCKED: REMARK   15  A    between atoms: C13_18  and  S1_19
DOCKED: REMARK   16  A    between atoms: S1_19  and  C14_20
DOCKED: REMARK   17  A    between atoms: N3_23  and  C16_24
DOCKED: REMARK   18  A    between atoms: C16_24  and  C17_25
DOCKED: REMARK   19  A    between atoms: C16_24  and  C24_32
DOCKED: REMARK   20  A    between atoms: C17_25  and  C18_26
DOCKED: REMARK   21  A    between atoms: C24_32  and  O5_33
DOCKED: REMARK   22  A    between atoms: C24_32  and  C25_34
DOCKED: REMARK   23  A    between atoms: C25_34  and  C26_35
DOCKED: REMARK   24  A    between atoms: C26_35  and  C27_36
DOCKED: REMARK   25  A    between atoms: C26_35  and  C28_37
DOCKED: REMARK   26  A    between atoms: N4_39  and  C29_40
DOCKED: REMARK   27  A    between atoms: C29_40  and  C30_41
DOCKED: REMARK   28  A    between atoms: C29_40  and  C37_51
DOCKED: REMARK   29  A    between atoms: N5_43  and  C31_44
DOCKED: REMARK   30  A    between atoms: C31_44  and  C32_45
DOCKED: REMARK   31  A    between atoms: C37_51  and  C38_52
DOCKED: REMARK   32  A    between atoms: C37_51  and  C39_53
DOCKED: REMARK                            x       y       z     vdW  Elec       q    Type
DOCKED: REMARK                         _______ _______ _______ _____ _____    ______ ____
DOCKED: USER                              x       y       z     vdW  Elec       q    Type
DOCKED: USER                           _______ _______ _______ _____ _____    ______ ____
DOCKED: ROOT
DOCKED: ATOM      1  C16 UNL     1      13.714  -4.187   4.415 +0.00 +0.00    +0.106 C  
DOCKED: ENDROOT
DOCKED: BRANCH   1   4
DOCKED: ATOM      2  C15 UNL     1      11.920  -2.673   3.599 +0.00 +0.00    +0.234 C  
DOCKED: ATOM      3  O4  UNL     1      12.414  -2.591   2.475 +0.00 -0.00    -0.274 OA 
DOCKED: ATOM      4  N3  UNL     1      12.433  -3.486   4.592 +0.00 -0.00    -0.308 N  
DOCKED: ATOM      5  H28 UNL     1      12.123  -3.301   5.539 +0.00 +0.00    +0.149 HD 
DOCKED: BRANCH   2   6
DOCKED: ATOM      6  C11 UNL     1      10.647  -1.904   4.006 +0.00 +0.00    +0.160 C  
DOCKED: BRANCH   6   9
DOCKED: ATOM      7  C10 UNL     1       9.292  -2.007   6.063 +0.00 +0.00    +0.234 C  
DOCKED: ATOM      8  O3  UNL     1       8.259  -1.684   5.477 +0.00 -0.00    -0.274 OA 
DOCKED: ATOM      9  N2  UNL     1      10.533  -1.978   5.456 +0.00 -0.00    -0.302 N  
DOCKED: ATOM     10  H19 UNL     1      11.299  -2.445   5.936 +0.00 +0.00    +0.150 HD 
DOCKED: BRANCH   7  11
DOCKED: ATOM     11  C4  UNL     1       9.322  -2.360   7.561 +0.00 +0.00    +0.162 C  
DOCKED: BRANCH  11  12
DOCKED: ATOM     12  N1  UNL     1      10.272  -1.424   8.146 +0.00 -0.00    -0.270 N  
DOCKED: ATOM     13  C5  UNL     1      11.618  -1.589   7.987 +0.00 +0.00    +0.401 C  
DOCKED: ATOM     14  O1  UNL     1      12.154  -2.617   7.601 +0.00 -0.00    -0.226 OA 
DOCKED: ATOM     15  H9  UNL     1       9.979  -0.463   8.266 +0.00 +0.00    +0.153 HD 
DOCKED: BRANCH  13  16
DOCKED: ATOM     16  O2  UNL     1      12.234  -0.432   8.316 +0.00 -0.00    -0.445 OA 
DOCKED: BRANCH  16  17
DOCKED: ATOM     17  C6  UNL     1      12.776  -0.232   9.649 +0.00 +0.00    +0.107 C  
DOCKED: ATOM     18  C7  UNL     1      13.519   1.109   9.733 +0.00 +0.00    +0.055 C  
DOCKED: ATOM     19  C8  UNL     1      11.695  -0.373  10.732 +0.00 +0.00    +0.055 C  
DOCKED: ATOM     20  C9  UNL     1      13.788  -1.374   9.830 +0.00 +0.00    +0.055 C  
DOCKED: ENDBRANCH  16  17
DOCKED: ENDBRANCH  13  16
DOCKED: ENDBRANCH  11  12
DOCKED: BRANCH  11  21
DOCKED: ATOM     21  C3  UNL     1       7.949  -2.198   8.222 +0.00 +0.00    +0.031 C  
DOCKED: BRANCH  21  23
DOCKED: ATOM     22  C1  UNL     1       9.044  -3.348  10.229 +0.00 +0.00    +0.004 C  
DOCKED: ATOM     23  C2  UNL     1       7.756  -3.066   9.470 +0.00 -0.00    -0.001 C  
DOCKED: ENDBRANCH  21  23
DOCKED: ENDBRANCH  11  21
DOCKED: ENDBRANCH   7  11
DOCKED: ENDBRANCH   6   9
DOCKED: BRANCH   6  24
DOCKED: ATOM     24  C12 UNL     1      10.727  -0.458   3.511 +0.00 +0.00    +0.042 C  
DOCKED: BRANCH  24  25
DOCKED: ATOM     25  C13 UNL     1      11.538   0.402   4.480 +0.00 +0.00    +0.071 C  
DOCKED: BRANCH  25  26
DOCKED: ATOM     26  S1  UNL     1      10.466   1.244   5.692 +0.00 -0.00    -0.164 S  
DOCKED: ATOM     27  C14 UNL     1      11.730   2.083   6.684 +0.00 +0.00    +0.084 C  
DOCKED: ENDBRANCH  25  26
DOCKED: ENDBRANCH  24  25
DOCKED: ENDBRANCH   6  24
DOCKED: ENDBRANCH   2   6
DOCKED: ENDBRANCH   1   4
DOCKED: BRANCH   1  28
DOCKED: ATOM     28  C24 UNL     1      14.005  -5.094   5.647 +0.00 +0.00    +0.136 C  
DOCKED: BRANCH  28  29
DOCKED: ATOM     29  O5  UNL     1      13.586  -4.495   6.869 +0.00 -0.00    -0.390 OA 
DOCKED: ATOM     30  H38 UNL     1      12.940  -3.792   6.680 +0.00 +0.00    +0.210 HD 
DOCKED: ENDBRANCH  28  29
DOCKED: BRANCH  28  31
DOCKED: ATOM     31  C25 UNL     1      13.372  -6.492   5.550 +0.00 +0.00    +0.045 C  
DOCKED: BRANCH  31  32
DOCKED: ATOM     32  C26 UNL     1      11.871  -6.470   5.185 +0.00 +0.00    +0.074 C  
DOCKED: ATOM     33  C27 UNL     1      11.286  -7.857   4.929 +0.00 +0.00    +0.017 C  
DOCKED: BRANCH  32  34
DOCKED: ATOM     34  C28 UNL     1      11.103  -5.768   6.302 +0.00 +0.00    +0.217 C  
DOCKED: ATOM     35  O6  UNL     1      10.951  -4.552   6.370 +0.00 -0.00    -0.276 OA 
DOCKED: ATOM     36  N4  UNL     1      10.545  -6.643   7.214 +0.00 -0.00    -0.304 N  
DOCKED: ATOM     37  H45 UNL     1      10.990  -7.553   7.290 +0.00 +0.00    +0.149 HD 
DOCKED: BRANCH  36  38
DOCKED: ATOM     38  C29 UNL     1       9.959  -6.156   8.462 +0.00 +0.00    +0.161 C  
DOCKED: BRANCH  38  39
DOCKED: ATOM     39  C30 UNL     1      11.112  -5.995   9.473 +0.00 +0.00    +0.234 C  
DOCKED: ATOM     40  O7  UNL     1      11.213  -6.729  10.460 +0.00 -0.00    -0.274 OA 
DOCKED: ATOM     41  N5  UNL     1      11.971  -4.955   9.217 +0.00 -0.00    -0.310 N  
DOCKED: ATOM     42  H47 UNL     1      11.952  -4.534   8.296 +0.00 +0.00    +0.149 HD 
DOCKED: BRANCH  41  43
DOCKED: ATOM     43  C31 UNL     1      13.150  -4.723  10.020 +0.00 +0.00    +0.139 C  
DOCKED: BRANCH  43  44
DOCKED: ATOM     44  C32 UNL     1      14.377  -5.302   9.362 +0.00 -0.00    -0.027 A  
DOCKED: ATOM     45  C33 UNL     1      14.409  -6.641   8.956 +0.00 +0.00    +0.025 A  
DOCKED: ATOM     46  C34 UNL     1      15.557  -7.122   8.347 +0.00 +0.00    +0.111 A  
DOCKED: ATOM     47  N6  UNL     1      16.657  -6.376   8.123 +0.00 -0.00    -0.263 NA 
DOCKED: ATOM     48  C35 UNL     1      16.606  -5.089   8.519 +0.00 +0.00    +0.111 A  
DOCKED: ATOM     49  C36 UNL     1      15.504  -4.513   9.132 +0.00 +0.00    +0.025 A  
DOCKED: ENDBRANCH  43  44
DOCKED: ENDBRANCH  41  43
DOCKED: ENDBRANCH  38  39
DOCKED: BRANCH  38  50
DOCKED: ATOM     50  C37 UNL     1       8.863  -7.094   9.013 +0.00 +0.00    +0.012 C  
DOCKED: ATOM     51  C38 UNL     1       9.094  -8.566   8.654 +0.00 +0.00    +0.009 C  
DOCKED: ATOM     52  C39 UNL     1       7.482  -6.646   8.525 +0.00 +0.00    +0.009 C  
DOCKED: ENDBRANCH  38  50
DOCKED: ENDBRANCH  36  38
DOCKED: ENDBRANCH  32  34
DOCKED: ENDBRANCH  31  32
DOCKED: ENDBRANCH  28  31
DOCKED: ENDBRANCH   1  28
DOCKED: BRANCH   1  53
DOCKED: ATOM     53  C17 UNL     1      14.828  -3.171   4.064 +0.00 +0.00    +0.060 C  
DOCKED: BRANCH  53  54
DOCKED: ATOM     54  C18 UNL     1      15.083  -2.131   5.128 +0.00 -0.00    -0.046 A  
DOCKED: ATOM     55  C19 UNL     1      15.904  -2.425   6.223 +0.00 +0.00    +0.004 A  
DOCKED: ATOM     56  C20 UNL     1      16.122  -1.476   7.223 +0.00 +0.00    +0.000 A  
DOCKED: ATOM     57  C21 UNL     1      15.518  -0.223   7.138 +0.00 +0.00    +0.000 A  
DOCKED: ATOM     58  C22 UNL     1      14.706   0.082   6.050 +0.00 +0.00    +0.000 A  
DOCKED: ATOM     59  C23 UNL     1      14.490  -0.863   5.048 +0.00 +0.00    +0.004 A  
DOCKED: ENDBRANCH  53  54
DOCKED: ENDBRANCH   1  53
DOCKED: TORSDOF 24
DOCKED: TER
DOCKED: ENDMDL
________________________________________________________________________________


    FINAL DOCKED STATE:
    ________________________


Run:   18 / 20
Time taken for this run:   2.704s

DOCKED: MODEL        18
DOCKED: USER    Run = 18
DOCKED: USER
DOCKED: USER    Estimated Free Energy of Binding    =  +7.16 kcal/mol  [=(1)+(2)+(3)-(4)]
DOCKED: USER
DOCKED: USER    (1) Final Intermolecular Energy     =  +0.00 kcal/mol
DOCKED: USER        vdW + Hbond + desolv Energy     =  +0.00 kcal/mol
DOCKED: USER        Electrostatic Energy            =  +0.00 kcal/mol
DOCKED: USER        Moving Ligand-Fixed Receptor    =  +0.00 kcal/mol
DOCKED: USER        Moving Ligand-Moving Receptor   =  +0.00 kcal/mol
DOCKED: USER    (2) Final Total Internal Energy     = -15.71 kcal/mol
DOCKED: USER    (3) Torsional Free Energy           =  +7.16 kcal/mol
DOCKED: USER    (4) Unbound System's Energy         = -15.71 kcal/mol
DOCKED: USER
DOCKED: USER
DOCKED: REMARK  Name = ligands/ligand_19.pdb
DOCKED: REMARK  32 active torsions:
DOCKED: REMARK  status: ('A' for Active; 'I' for Inactive)
DOCKED: REMARK    1  A    between atoms: C1_1  and  C2_2
DOCKED: REMARK    2  A    between atoms: C2_2  and  C3_3
DOCKED: REMARK    3  A    between atoms: C3_3  and  C4_4
DOCKED: REMARK    4  A    between atoms: C4_4  and  N1_5
DOCKED: REMARK    5  A    between atoms: C4_4  and  C10_13
DOCKED: REMARK    6  A    between atoms: C5_6  and  O2_8
DOCKED: REMARK    7  A    between atoms: O2_8  and  C6_9
DOCKED: REMARK    8  A    between atoms: C6_9  and  C7_10
DOCKED: REMARK    9  A    between atoms: C6_9  and  C8_11
DOCKED: REMARK   10  A    between atoms: C6_9  and  C9_12
DOCKED: REMARK   11  A    between atoms: N2_15  and  C11_16
DOCKED: REMARK   12  A    between atoms: C11_16  and  C12_17
DOCKED: REMARK   13  A    between atoms: C11_16  and  C15_21
DOCKED: REMARK   14  A    between atoms: C12_17  and  C13_18
DOCKED: REMARK   15  A    between atoms: C13_18  and  S1_19
DOCKED: REMARK   16  A    between atoms: S1_19  and  C14_20
DOCKED: REMARK   17  A    between atoms: N3_23  and  C16_24
DOCKED: REMARK   18  A    between atoms: C16_24  and  C17_25
DOCKED: REMARK   19  A    between atoms: C16_24  and  C24_32
DOCKED: REMARK   20  A    between atoms: C17_25  and  C18_26
DOCKED: REMARK   21  A    between atoms: C24_32  and  O5_33
DOCKED: REMARK   22  A    between atoms: C24_32  and  C25_34
DOCKED: REMARK   23  A    between atoms: C25_34  and  C26_35
DOCKED: REMARK   24  A    between atoms: C26_35  and  C27_36
DOCKED: REMARK   25  A    between atoms: C26_35  and  C28_37
DOCKED: REMARK   26  A    between atoms: N4_39  and  C29_40
DOCKED: REMARK   27  A    between atoms: C29_40  and  C30_41
DOCKED: REMARK   28  A    between atoms: C29_40  and  C37_51
DOCKED: REMARK   29  A    between atoms: N5_43  and  C31_44
DOCKED: REMARK   30  A    between atoms: C31_44  and  C32_45
DOCKED: REMARK   31  A    between atoms: C37_51  and  C38_52
DOCKED: REMARK   32  A    between atoms: C37_51  and  C39_53
DOCKED: REMARK                            x       y       z     vdW  Elec       q    Type
DOCKED: REMARK                         _______ _______ _______ _____ _____    ______ ____
DOCKED: USER                              x       y       z     vdW  Elec       q    Type
DOCKED: USER                           _______ _______ _______ _____ _____    ______ ____
DOCKED: ROOT
DOCKED: ATOM      1  C16 UNL     1      10.724  -6.392   2.302 +0.00 +0.00    +0.106 C  
DOCKED: ENDROOT
DOCKED: BRANCH   1   4
DOCKED: ATOM      2  C15 UNL     1      11.908  -5.871   0.180 +0.00 +0.00    +0.234 C  
DOCKED: ATOM      3  O4  UNL     1      11.742  -7.006  -0.264 +0.00 -0.00    -0.274 OA 
DOCKED: ATOM      4  N3  UNL     1      11.384  -5.448   1.387 +0.00 -0.00    -0.308 N  
DOCKED: ATOM      5  H28 UNL     1      11.776  -4.602   1.784 +0.00 +0.00    +0.149 HD 
DOCKED: BRANCH   2   6
DOCKED: ATOM      6  C11 UNL     1      12.691  -4.785  -0.585 +0.00 +0.00    +0.160 C  
DOCKED: BRANCH   6   9
DOCKED: ATOM      7  C10 UNL     1      13.938  -2.750   0.032 +0.00 +0.00    +0.234 C  
DOCKED: ATOM      8  O3  UNL     1      14.172  -2.458  -1.141 +0.00 -0.00    -0.274 OA 
DOCKED: ATOM      9  N2  UNL     1      13.366  -3.952   0.401 +0.00 -0.00    -0.302 N  
DOCKED: ATOM     10  H19 UNL     1      13.024  -4.033   1.356 +0.00 +0.00    +0.150 HD 
DOCKED: BRANCH   7  11
DOCKED: ATOM     11  C4  UNL     1      14.367  -1.858   1.211 +0.00 +0.00    +0.162 C  
DOCKED: BRANCH  11  12
DOCKED: ATOM     12  N1  UNL     1      13.194  -1.788   2.072 +0.00 -0.00    -0.270 N  
DOCKED: ATOM     13  C5  UNL     1      12.925  -2.768   2.982 +0.00 +0.00    +0.401 C  
DOCKED: ATOM     14  O1  UNL     1      13.442  -3.874   2.989 +0.00 -0.00    -0.226 OA 
DOCKED: ATOM     15  H9  UNL     1      12.847  -0.872   2.327 +0.00 +0.00    +0.153 HD 
DOCKED: BRANCH  13  16
DOCKED: ATOM     16  O2  UNL     1      12.010  -2.299   3.860 +0.00 -0.00    -0.445 OA 
DOCKED: BRANCH  16  17
DOCKED: ATOM     17  C6  UNL     1      12.334  -2.169   5.270 +0.00 +0.00    +0.107 C  
DOCKED: ATOM     18  C7  UNL     1      12.152  -3.512   5.991 +0.00 +0.00    +0.055 C  
DOCKED: ATOM     19  C8  UNL     1      13.735  -1.575   5.482 +0.00 +0.00    +0.055 C  
DOCKED: ATOM     20  C9  UNL     1      11.302  -1.168   5.814 +0.00 +0.00    +0.055 C  
DOCKED: ENDBRANCH  16  17
DOCKED: ENDBRANCH  13  16
DOCKED: ENDBRANCH  11  12
DOCKED: BRANCH  11  21
DOCKED: ATOM     21  C3  UNL     1      15.551  -2.451   1.983 +0.00 +0.00    +0.031 C  
DOCKED: BRANCH  21  23
DOCKED: ATOM     22  C1  UNL     1      17.499  -4.111   1.941 +0.00 +0.00    +0.004 C  
DOCKED: ATOM     23  C2  UNL     1      16.455  -3.353   1.135 +0.00 -0.00    -0.001 C  
DOCKED: ENDBRANCH  21  23
DOCKED: ENDBRANCH  11  21
DOCKED: ENDBRANCH   7  11
DOCKED: ENDBRANCH   6   9
DOCKED: BRANCH   6  24
DOCKED: ATOM     24  C12 UNL     1      13.678  -5.436  -1.556 +0.00 +0.00    +0.042 C  
DOCKED: BRANCH  24  25
DOCKED: ATOM     25  C13 UNL     1      14.651  -6.348  -0.810 +0.00 +0.00    +0.071 C  
DOCKED: BRANCH  25  26
DOCKED: ATOM     26  S1  UNL     1      16.387  -5.947  -1.200 +0.00 -0.00    -0.164 S  
DOCKED: ATOM     27  C14 UNL     1      16.131  -4.538  -2.311 +0.00 +0.00    +0.084 C  
DOCKED: ENDBRANCH  25  26
DOCKED: ENDBRANCH  24  25
DOCKED: ENDBRANCH   6  24
DOCKED: ENDBRANCH   2   6
DOCKED: ENDBRANCH   1   4
DOCKED: BRANCH   1  28
DOCKED: ATOM     28  C24 UNL     1      10.086  -5.624   3.497 +0.00 +0.00    +0.136 C  
DOCKED: BRANCH  28  29
DOCKED: ATOM     29  O5  UNL     1      10.569  -4.289   3.601 +0.00 -0.00    -0.390 OA 
DOCKED: ATOM     30  H38 UNL     1      11.269  -4.145   2.940 +0.00 +0.00    +0.210 HD 
DOCKED: ENDBRANCH  28  29
DOCKED: BRANCH  28  31
DOCKED: ATOM     31  C25 UNL     1       8.549  -5.581   3.456 +0.00 +0.00    +0.045 C  
DOCKED: BRANCH  31  32
DOCKED: ATOM     32  C26 UNL     1       7.948  -4.274   4.019 +0.00 +0.00    +0.074 C  
DOCKED: ATOM     33  C27 UNL     1       8.635  -3.789   5.294 +0.00 +0.00    +0.017 C  
DOCKED: BRANCH  32  34
DOCKED: ATOM     34  C28 UNL     1       8.012  -3.197   2.940 +0.00 +0.00    +0.217 C  
DOCKED: ATOM     35  O6  UNL     1       7.182  -3.075   2.044 +0.00 -0.00    -0.276 OA 
DOCKED: ATOM     36  N4  UNL     1       9.076  -2.330   3.096 +0.00 -0.00    -0.304 N  
DOCKED: ATOM     37  H45 UNL     1       9.872  -2.690   3.614 +0.00 +0.00    +0.149 HD 
DOCKED: BRANCH  36  38
DOCKED: ATOM     38  C29 UNL     1       9.426  -1.371   2.048 +0.00 +0.00    +0.161 C  
DOCKED: BRANCH  38  39
DOCKED: ATOM     39  C30 UNL     1      10.086  -2.167   0.905 +0.00 +0.00    +0.234 C  
DOCKED: ATOM     40  O7  UNL     1      11.012  -2.955   1.117 +0.00 -0.00    -0.274 OA 
DOCKED: ATOM     41  N5  UNL     1       9.602  -1.894  -0.351 +0.00 -0.00    -0.310 N  
DOCKED: ATOM     42  H47 UNL     1       8.718  -1.406  -0.427 +0.00 +0.00    +0.149 HD 
DOCKED: BRANCH  41  43
DOCKED: ATOM     43  C31 UNL     1      10.055  -2.619  -1.517 +0.00 +0.00    +0.139 C  
DOCKED: BRANCH  43  44
DOCKED: ATOM     44  C32 UNL     1       9.552  -4.039  -1.503 +0.00 -0.00    -0.027 A  
DOCKED: ATOM     45  C33 UNL     1       8.663  -4.476  -0.515 +0.00 +0.00    +0.025 A  
DOCKED: ATOM     46  C34 UNL     1       8.222  -5.789  -0.552 +0.00 +0.00    +0.111 A  
DOCKED: ATOM     47  N6  UNL     1       8.605  -6.683  -1.485 +0.00 -0.00    -0.263 NA 
DOCKED: ATOM     48  C35 UNL     1       9.461  -6.244  -2.429 +0.00 +0.00    +0.111 A  
DOCKED: ATOM     49  C36 UNL     1       9.954  -4.949  -2.481 +0.00 +0.00    +0.025 A  
DOCKED: ENDBRANCH  43  44
DOCKED: ENDBRANCH  41  43
DOCKED: ENDBRANCH  38  39
DOCKED: BRANCH  38  50
DOCKED: ATOM     50  C37 UNL     1      10.356  -0.247   2.554 +0.00 +0.00    +0.012 C  
DOCKED: ATOM     51  C38 UNL     1       9.648   0.748   3.480 +0.00 +0.00    +0.009 C  
DOCKED: ATOM     52  C39 UNL     1      10.988   0.494   1.373 +0.00 +0.00    +0.009 C  
DOCKED: ENDBRANCH  38  50
DOCKED: ENDBRANCH  36  38
DOCKED: ENDBRANCH  32  34
DOCKED: ENDBRANCH  31  32
DOCKED: ENDBRANCH  28  31
DOCKED: ENDBRANCH   1  28
DOCKED: BRANCH   1  53
DOCKED: ATOM     53  C17 UNL     1      11.705  -7.524   2.692 +0.00 +0.00    +0.060 C  
DOCKED: BRANCH  53  54
DOCKED: ATOM     54  C18 UNL     1      13.039  -7.044   3.209 +0.00 -0.00    -0.046 A  
DOCKED: ATOM     55  C19 UNL     1      13.159  -6.563   4.519 +0.00 +0.00    +0.004 A  
DOCKED: ATOM     56  C20 UNL     1      14.385  -6.093   4.993 +0.00 +0.00    +0.000 A  
DOCKED: ATOM     57  C21 UNL     1      15.503  -6.098   4.161 +0.00 +0.00    +0.000 A  
DOCKED: ATOM     58  C22 UNL     1      15.396  -6.581   2.860 +0.00 +0.00    +0.000 A  
DOCKED: ATOM     59  C23 UNL     1      14.174  -7.055   2.386 +0.00 +0.00    +0.004 A  
DOCKED: ENDBRANCH  53  54
DOCKED: ENDBRANCH   1  53
DOCKED: TORSDOF 24
DOCKED: TER
DOCKED: ENDMDL
________________________________________________________________________________


    FINAL DOCKED STATE:
    ________________________


Run:   19 / 20
Time taken for this run:   2.704s

DOCKED: MODEL        19
DOCKED: USER    Run = 19
DOCKED: USER
DOCKED: USER    Estimated Free Energy of Binding    =  +7.16 kcal/mol  [=(1)+(2)+(3)-(4)]
DOCKED: USER
DOCKED: USER    (1) Final Intermolecular Energy     =  +0.00 kcal/mol
DOCKED: USER        vdW + Hbond + desolv Energy     =  +0.00 kcal/mol
DOCKED: USER        Electrostatic Energy            =  +0.00 kcal/mol
DOCKED: USER        Moving Ligand-Fixed Receptor    =  +0.00 kcal/mol
DOCKED: USER        Moving Ligand-Moving Receptor   =  +0.00 kcal/mol
DOCKED: USER    (2) Final Total Internal Energy     = -15.88 kcal/mol
DOCKED: USER    (3) Torsional Free Energy           =  +7.16 kcal/mol
DOCKED: USER    (4) Unbound System's Energy         = -15.88 kcal/mol
DOCKED: USER
DOCKED: USER
DOCKED: REMARK  Name = ligands/ligand_19.pdb
DOCKED: REMARK  32 active torsions:
DOCKED: REMARK  status: ('A' for Active; 'I' for Inactive)
DOCKED: REMARK    1  A    between atoms: C1_1  and  C2_2
DOCKED: REMARK    2  A    between atoms: C2_2  and  C3_3
DOCKED: REMARK    3  A    between atoms: C3_3  and  C4_4
DOCKED: REMARK    4  A    between atoms: C4_4  and  N1_5
DOCKED: REMARK    5  A    between atoms: C4_4  and  C10_13
DOCKED: REMARK    6  A    between atoms: C5_6  and  O2_8
DOCKED: REMARK    7  A    between atoms: O2_8  and  C6_9
DOCKED: REMARK    8  A    between atoms: C6_9  and  C7_10
DOCKED: REMARK    9  A    between atoms: C6_9  and  C8_11
DOCKED: REMARK   10  A    between atoms: C6_9  and  C9_12
DOCKED: REMARK   11  A    between atoms: N2_15  and  C11_16
DOCKED: REMARK   12  A    between atoms: C11_16  and  C12_17
DOCKED: REMARK   13  A    between atoms: C11_16  and  C15_21
DOCKED: REMARK   14  A    between atoms: C12_17  and  C13_18
DOCKED: REMARK   15  A    between atoms: C13_18  and  S1_19
DOCKED: REMARK   16  A    between atoms: S1_19  and  C14_20
DOCKED: REMARK   17  A    between atoms: N3_23  and  C16_24
DOCKED: REMARK   18  A    between atoms: C16_24  and  C17_25
DOCKED: REMARK   19  A    between atoms: C16_24  and  C24_32
DOCKED: REMARK   20  A    between atoms: C17_25  and  C18_26
DOCKED: REMARK   21  A    between atoms: C24_32  and  O5_33
DOCKED: REMARK   22  A    between atoms: C24_32  and  C25_34
DOCKED: REMARK   23  A    between atoms: C25_34  and  C26_35
DOCKED: REMARK   24  A    between atoms: C26_35  and  C27_36
DOCKED: REMARK   25  A    between atoms: C26_35  and  C28_37
DOCKED: REMARK   26  A    between atoms: N4_39  and  C29_40
DOCKED: REMARK   27  A    between atoms: C29_40  and  C30_41
DOCKED: REMARK   28  A    between atoms: C29_40  and  C37_51
DOCKED: REMARK   29  A    between atoms: N5_43  and  C31_44
DOCKED: REMARK   30  A    between atoms: C31_44  and  C32_45
DOCKED: REMARK   31  A    between atoms: C37_51  and  C38_52
DOCKED: REMARK   32  A    between atoms: C37_51  and  C39_53
DOCKED: REMARK                            x       y       z     vdW  Elec       q    Type
DOCKED: REMARK                         _______ _______ _______ _____ _____    ______ ____
DOCKED: USER                              x       y       z     vdW  Elec       q    Type
DOCKED: USER                           _______ _______ _______ _____ _____    ______ ____
DOCKED: ROOT
DOCKED: ATOM      1  C16 UNL     1      12.901  -3.561   2.602 +0.00 +0.00    +0.106 C  
DOCKED: ENDROOT
DOCKED: BRANCH   1   4
DOCKED: ATOM      2  C15 UNL     1      11.470  -5.592   2.670 +0.00 +0.00    +0.234 C  
DOCKED: ATOM      3  O4  UNL     1      11.080  -5.432   1.515 +0.00 -0.00    -0.274 OA 
DOCKED: ATOM      4  N3  UNL     1      12.416  -4.781   3.267 +0.00 -0.00    -0.308 N  
DOCKED: ATOM      5  H28 UNL     1      12.486  -4.827   4.276 +0.00 +0.00    +0.149 HD 
DOCKED: BRANCH   2   6
DOCKED: ATOM      6  C11 UNL     1      10.969  -6.743   3.565 +0.00 +0.00    +0.160 C  
DOCKED: BRANCH   6   9
DOCKED: ATOM      7  C10 UNL     1      10.954  -6.985   6.019 +0.00 +0.00    +0.234 C  
DOCKED: ATOM      8  O3  UNL     1      11.032  -8.213   5.964 +0.00 -0.00    -0.274 OA 
DOCKED: ATOM      9  N2  UNL     1      10.751  -6.201   4.899 +0.00 -0.00    -0.302 N  
DOCKED: ATOM     10  H19 UNL     1      10.898  -5.199   4.998 +0.00 +0.00    +0.150 HD 
DOCKED: BRANCH   7  11
DOCKED: ATOM     11  C4  UNL     1      10.954  -6.212   7.349 +0.00 +0.00    +0.162 C  
DOCKED: BRANCH  11  12
DOCKED: ATOM     12  N1  UNL     1      12.257  -5.564   7.404 +0.00 -0.00    -0.270 N  
DOCKED: ATOM     13  C5  UNL     1      12.502  -4.407   6.722 +0.00 +0.00    +0.401 C  
DOCKED: ATOM     14  O1  UNL     1      11.798  -3.962   5.829 +0.00 -0.00    -0.226 OA 
DOCKED: ATOM     15  H9  UNL     1      12.810  -5.680   8.244 +0.00 +0.00    +0.153 HD 
DOCKED: BRANCH  13  16
DOCKED: ATOM     16  O2  UNL     1      13.633  -3.852   7.211 +0.00 -0.00    -0.445 OA 
DOCKED: BRANCH  16  17
DOCKED: ATOM     17  C6  UNL     1      13.578  -2.657   8.034 +0.00 +0.00    +0.107 C  
DOCKED: ATOM     18  C7  UNL     1      14.007  -1.425   7.225 +0.00 +0.00    +0.055 C  
DOCKED: ATOM     19  C8  UNL     1      12.199  -2.478   8.689 +0.00 +0.00    +0.055 C  
DOCKED: ATOM     20  C9  UNL     1      14.608  -2.905   9.147 +0.00 +0.00    +0.055 C  
DOCKED: ENDBRANCH  16  17
DOCKED: ENDBRANCH  13  16
DOCKED: ENDBRANCH  11  12
DOCKED: BRANCH  11  21
DOCKED: ATOM     21  C3  UNL     1       9.840  -5.160   7.406 +0.00 +0.00    +0.031 C  
DOCKED: BRANCH  21  23
DOCKED: ATOM     22  C1  UNL     1      10.379  -5.315   9.904 +0.00 +0.00    +0.004 C  
DOCKED: ATOM     23  C2  UNL     1       9.536  -4.656   8.822 +0.00 -0.00    -0.001 C  
DOCKED: ENDBRANCH  21  23
DOCKED: ENDBRANCH  11  21
DOCKED: ENDBRANCH   7  11
DOCKED: ENDBRANCH   6   9
DOCKED: BRANCH   6  24
DOCKED: ATOM     24  C12 UNL     1       9.692  -7.347   2.977 +0.00 +0.00    +0.042 C  
DOCKED: BRANCH  24  25
DOCKED: ATOM     25  C13 UNL     1       8.486  -6.455   3.270 +0.00 +0.00    +0.071 C  
DOCKED: BRANCH  25  26
DOCKED: ATOM     26  S1  UNL     1       7.612  -6.977   4.784 +0.00 -0.00    -0.164 S  
DOCKED: ATOM     27  C14 UNL     1       6.980  -5.372   5.340 +0.00 +0.00    +0.084 C  
DOCKED: ENDBRANCH  25  26
DOCKED: ENDBRANCH  24  25
DOCKED: ENDBRANCH   6  24
DOCKED: ENDBRANCH   2   6
DOCKED: ENDBRANCH   1   4
DOCKED: BRANCH   1  28
DOCKED: ATOM     28  C24 UNL     1      14.136  -2.991   3.360 +0.00 +0.00    +0.136 C  
DOCKED: BRANCH  28  29
DOCKED: ATOM     29  O5  UNL     1      14.016  -3.131   4.771 +0.00 -0.00    -0.390 OA 
DOCKED: ATOM     30  H38 UNL     1      13.778  -4.050   4.986 +0.00 +0.00    +0.210 HD 
DOCKED: ENDBRANCH  28  29
DOCKED: BRANCH  28  31
DOCKED: ATOM     31  C25 UNL     1      15.472  -3.615   2.923 +0.00 +0.00    +0.045 C  
DOCKED: BRANCH  31  32
DOCKED: ATOM     32  C26 UNL     1      15.988  -4.712   3.881 +0.00 +0.00    +0.074 C  
DOCKED: ATOM     33  C27 UNL     1      16.392  -4.179   5.254 +0.00 +0.00    +0.017 C  
DOCKED: BRANCH  32  34
DOCKED: ATOM     34  C28 UNL     1      14.914  -5.787   4.024 +0.00 +0.00    +0.217 C  
DOCKED: ATOM     35  O6  UNL     1      14.196  -5.910   5.011 +0.00 -0.00    -0.276 OA 
DOCKED: ATOM     36  N4  UNL     1      14.791  -6.587   2.905 +0.00 -0.00    -0.304 N  
DOCKED: ATOM     37  H45 UNL     1      15.612  -6.653   2.310 +0.00 +0.00    +0.149 HD 
DOCKED: BRANCH  36  38
DOCKED: ATOM     38  C29 UNL     1      13.972  -7.798   2.932 +0.00 +0.00    +0.161 C  
DOCKED: BRANCH  38  39
DOCKED: ATOM     39  C30 UNL     1      14.455  -8.647   4.125 +0.00 +0.00    +0.234 C  
DOCKED: ATOM     40  O7  UNL     1      15.421  -9.409   4.028 +0.00 -0.00    -0.274 OA 
DOCKED: ATOM     41  N5  UNL     1      13.704  -8.526   5.269 +0.00 -0.00    -0.310 N  
DOCKED: ATOM     42  H47 UNL     1      13.067  -7.742   5.342 +0.00 +0.00    +0.149 HD 
DOCKED: BRANCH  41  43
DOCKED: ATOM     43  C31 UNL     1      14.076  -9.188   6.500 +0.00 +0.00    +0.139 C  
DOCKED: BRANCH  43  44
DOCKED: ATOM     44  C32 UNL     1      14.108  -8.215   7.650 +0.00 -0.00    -0.027 A  
DOCKED: ATOM     45  C33 UNL     1      15.022  -7.156   7.670 +0.00 +0.00    +0.025 A  
DOCKED: ATOM     46  C34 UNL     1      15.005  -6.283   8.746 +0.00 +0.00    +0.111 A  
DOCKED: ATOM     47  N6  UNL     1      14.158  -6.394   9.788 +0.00 -0.00    -0.263 NA 
DOCKED: ATOM     48  C35 UNL     1      13.283  -7.419   9.750 +0.00 +0.00    +0.111 A  
DOCKED: ATOM     49  C36 UNL     1      13.218  -8.341   8.717 +0.00 +0.00    +0.025 A  
DOCKED: ENDBRANCH  43  44
DOCKED: ENDBRANCH  41  43
DOCKED: ENDBRANCH  38  39
DOCKED: BRANCH  38  50
DOCKED: ATOM     50  C37 UNL     1      14.045  -8.599   1.614 +0.00 +0.00    +0.012 C  
DOCKED: ATOM     51  C38 UNL     1      14.156  -7.705   0.373 +0.00 +0.00    +0.009 C  
DOCKED: ATOM     52  C39 UNL     1      12.835  -9.528   1.485 +0.00 +0.00    +0.009 C  
DOCKED: ENDBRANCH  38  50
DOCKED: ENDBRANCH  36  38
DOCKED: ENDBRANCH  32  34
DOCKED: ENDBRANCH  31  32
DOCKED: ENDBRANCH  28  31
DOCKED: ENDBRANCH   1  28
DOCKED: BRANCH   1  53
DOCKED: ATOM     53  C17 UNL     1      11.731  -2.567   2.403 +0.00 +0.00    +0.060 C  
DOCKED: BRANCH  53  54
DOCKED: ATOM     54  C18 UNL     1      10.939  -2.275   3.654 +0.00 -0.00    -0.046 A  
DOCKED: ATOM     55  C19 UNL     1      11.406  -1.338   4.584 +0.00 +0.00    +0.004 A  
DOCKED: ATOM     56  C20 UNL     1      10.690  -1.083   5.755 +0.00 +0.00    +0.000 A  
DOCKED: ATOM     57  C21 UNL     1       9.502  -1.766   6.010 +0.00 +0.00    +0.000 A  
DOCKED: ATOM     58  C22 UNL     1       9.026  -2.695   5.088 +0.00 +0.00    +0.000 A  
DOCKED: ATOM     59  C23 UNL     1       9.737  -2.947   3.915 +0.00 +0.00    +0.004 A  
DOCKED: ENDBRANCH  53  54
DOCKED: ENDBRANCH   1  53
DOCKED: TORSDOF 24
DOCKED: TER
DOCKED: ENDMDL
________________________________________________________________________________


    FINAL DOCKED STATE:
    ________________________


Run:   20 / 20
Time taken for this run:   2.704s

DOCKED: MODEL        20
DOCKED: USER    Run = 20
DOCKED: USER
DOCKED: USER    Estimated Free Energy of Binding    =  +7.16 kcal/mol  [=(1)+(2)+(3)-(4)]
DOCKED: USER
DOCKED: USER    (1) Final Intermolecular Energy     =  +0.00 kcal/mol
DOCKED: USER        vdW + Hbond + desolv Energy     =  +0.00 kcal/mol
DOCKED: USER        Electrostatic Energy            =  +0.00 kcal/mol
DOCKED: USER        Moving Ligand-Fixed Receptor    =  +0.00 kcal/mol
DOCKED: USER        Moving Ligand-Moving Receptor   =  +0.00 kcal/mol
DOCKED: USER    (2) Final Total Internal Energy     = -15.49 kcal/mol
DOCKED: USER    (3) Torsional Free Energy           =  +7.16 kcal/mol
DOCKED: USER    (4) Unbound System's Energy         = -15.49 kcal/mol
DOCKED: USER
DOCKED: USER
DOCKED: REMARK  Name = ligands/ligand_19.pdb
DOCKED: REMARK  32 active torsions:
DOCKED: REMARK  status: ('A' for Active; 'I' for Inactive)
DOCKED: REMARK    1  A    between atoms: C1_1  and  C2_2
DOCKED: REMARK    2  A    between atoms: C2_2  and  C3_3
DOCKED: REMARK    3  A    between atoms: C3_3  and  C4_4
DOCKED: REMARK    4  A    between atoms: C4_4  and  N1_5
DOCKED: REMARK    5  A    between atoms: C4_4  and  C10_13
DOCKED: REMARK    6  A    between atoms: C5_6  and  O2_8
DOCKED: REMARK    7  A    between atoms: O2_8  and  C6_9
DOCKED: REMARK    8  A    between atoms: C6_9  and  C7_10
DOCKED: REMARK    9  A    between atoms: C6_9  and  C8_11
DOCKED: REMARK   10  A    between atoms: C6_9  and  C9_12
DOCKED: REMARK   11  A    between atoms: N2_15  and  C11_16
DOCKED: REMARK   12  A    between atoms: C11_16  and  C12_17
DOCKED: REMARK   13  A    between atoms: C11_16  and  C15_21
DOCKED: REMARK   14  A    between atoms: C12_17  and  C13_18
DOCKED: REMARK   15  A    between atoms: C13_18  and  S1_19
DOCKED: REMARK   16  A    between atoms: S1_19  and  C14_20
DOCKED: REMARK   17  A    between atoms: N3_23  and  C16_24
DOCKED: REMARK   18  A    between atoms: C16_24  and  C17_25
DOCKED: REMARK   19  A    between atoms: C16_24  and  C24_32
DOCKED: REMARK   20  A    between atoms: C17_25  and  C18_26
DOCKED: REMARK   21  A    between atoms: C24_32  and  O5_33
DOCKED: REMARK   22  A    between atoms: C24_32  and  C25_34
DOCKED: REMARK   23  A    between atoms: C25_34  and  C26_35
DOCKED: REMARK   24  A    between atoms: C26_35  and  C27_36
DOCKED: REMARK   25  A    between atoms: C26_35  and  C28_37
DOCKED: REMARK   26  A    between atoms: N4_39  and  C29_40
DOCKED: REMARK   27  A    between atoms: C29_40  and  C30_41
DOCKED: REMARK   28  A    between atoms: C29_40  and  C37_51
DOCKED: REMARK   29  A    between atoms: N5_43  and  C31_44
DOCKED: REMARK   30  A    between atoms: C31_44  and  C32_45
DOCKED: REMARK   31  A    between atoms: C37_51  and  C38_52
DOCKED: REMARK   32  A    between atoms: C37_51  and  C39_53
DOCKED: REMARK                            x       y       z     vdW  Elec       q    Type
DOCKED: REMARK                         _______ _______ _______ _____ _____    ______ ____
DOCKED: USER                              x       y       z     vdW  Elec       q    Type
DOCKED: USER                           _______ _______ _______ _____ _____    ______ ____
DOCKED: ROOT
DOCKED: ATOM      1  C16 UNL     1      11.960  -6.600   3.120 +0.00 +0.00    +0.106 C  
DOCKED: ENDROOT
DOCKED: BRANCH   1   4
DOCKED: ATOM      2  C15 UNL     1      12.825  -4.388   2.388 +0.00 +0.00    +0.234 C  
DOCKED: ATOM      3  O4  UNL     1      11.760  -3.822   2.629 +0.00 -0.00    -0.274 OA 
DOCKED: ATOM      4  N3  UNL     1      13.050  -5.723   2.666 +0.00 -0.00    -0.308 N  
DOCKED: ATOM      5  H28 UNL     1      13.845  -6.157   2.212 +0.00 +0.00    +0.149 HD 
DOCKED: BRANCH   2   6
DOCKED: ATOM      6  C11 UNL     1      14.039  -3.654   1.786 +0.00 +0.00    +0.160 C  
DOCKED: BRANCH   6   9
DOCKED: ATOM      7  C10 UNL     1      16.351  -4.427   1.414 +0.00 +0.00    +0.234 C  
DOCKED: ATOM      8  O3  UNL     1      16.821  -3.298   1.554 +0.00 -0.00    -0.274 OA 
DOCKED: ATOM      9  N2  UNL     1      14.992  -4.665   1.348 +0.00 -0.00    -0.302 N  
DOCKED: ATOM     10  H19 UNL     1      14.682  -5.631   1.434 +0.00 +0.00    +0.150 HD 
DOCKED: BRANCH   7  11
DOCKED: ATOM     11  C4  UNL     1      17.229  -5.670   1.181 +0.00 +0.00    +0.162 C  
DOCKED: BRANCH  11  12
DOCKED: ATOM     12  N1  UNL     1      16.766  -6.223  -0.084 +0.00 -0.00    -0.270 N  
DOCKED: ATOM     13  C5  UNL     1      15.593  -6.916  -0.166 +0.00 +0.00    +0.401 C  
DOCKED: ATOM     14  O1  UNL     1      14.978  -7.362   0.791 +0.00 -0.00    -0.226 OA 
DOCKED: ATOM     15  H9  UNL     1      17.031  -5.746  -0.936 +0.00 +0.00    +0.153 HD 
DOCKED: BRANCH  13  16
DOCKED: ATOM     16  O2  UNL     1      15.238  -7.007  -1.466 +0.00 -0.00    -0.445 OA 
DOCKED: BRANCH  16  17
DOCKED: ATOM     17  C6  UNL     1      15.431  -8.245  -2.203 +0.00 +0.00    +0.107 C  
DOCKED: ATOM     18  C7  UNL     1      14.828  -9.429  -1.434 +0.00 +0.00    +0.055 C  
DOCKED: ATOM     19  C8  UNL     1      14.893  -8.144  -3.639 +0.00 +0.00    +0.055 C  
DOCKED: ATOM     20  C9  UNL     1      16.956  -8.421  -2.273 +0.00 +0.00    +0.055 C  
DOCKED: ENDBRANCH  16  17
DOCKED: ENDBRANCH  13  16
DOCKED: ENDBRANCH  11  12
DOCKED: BRANCH  11  21
DOCKED: ATOM     21  C3  UNL     1      18.718  -5.317   1.088 +0.00 +0.00    +0.031 C  
DOCKED: BRANCH  21  23
DOCKED: ATOM     22  C1  UNL     1      19.185  -7.833   1.065 +0.00 +0.00    +0.004 C  
DOCKED: ATOM     23  C2  UNL     1      19.653  -6.456   1.511 +0.00 -0.00    -0.001 C  
DOCKED: ENDBRANCH  21  23
DOCKED: ENDBRANCH  11  21
DOCKED: ENDBRANCH   7  11
DOCKED: ENDBRANCH   6   9
DOCKED: BRANCH   6  24
DOCKED: ATOM     24  C12 UNL     1      13.590  -2.754   0.633 +0.00 +0.00    +0.042 C  
DOCKED: BRANCH  24  25
DOCKED: ATOM     25  C13 UNL     1      13.431  -3.561  -0.655 +0.00 +0.00    +0.071 C  
DOCKED: BRANCH  25  26
DOCKED: ATOM     26  S1  UNL     1      14.957  -3.542  -1.655 +0.00 -0.00    -0.164 S  
DOCKED: ATOM     27  C14 UNL     1      14.410  -4.542  -3.064 +0.00 +0.00    +0.084 C  
DOCKED: ENDBRANCH  25  26
DOCKED: ENDBRANCH  24  25
DOCKED: ENDBRANCH   6  24
DOCKED: ENDBRANCH   2   6
DOCKED: ENDBRANCH   1   4
DOCKED: BRANCH   1  28
DOCKED: ATOM     28  C24 UNL     1      12.505  -8.029   3.412 +0.00 +0.00    +0.136 C  
DOCKED: BRANCH  28  29
DOCKED: ATOM     29  O5  UNL     1      13.517  -8.420   2.489 +0.00 -0.00    -0.390 OA 
DOCKED: ATOM     30  H38 UNL     1      13.867  -7.631   2.040 +0.00 +0.00    +0.210 HD 
DOCKED: ENDBRANCH  28  29
DOCKED: BRANCH  28  31
DOCKED: ATOM     31  C25 UNL     1      13.057  -8.202   4.837 +0.00 +0.00    +0.045 C  
DOCKED: BRANCH  31  32
DOCKED: ATOM     32  C26 UNL     1      14.057  -7.101   5.254 +0.00 +0.00    +0.074 C  
DOCKED: ATOM     33  C27 UNL     1      14.484  -7.189   6.717 +0.00 +0.00    +0.017 C  
DOCKED: BRANCH  32  34
DOCKED: ATOM     34  C28 UNL     1      15.277  -7.171   4.340 +0.00 +0.00    +0.217 C  
DOCKED: ATOM     35  O6  UNL     1      15.344  -6.624   3.243 +0.00 -0.00    -0.276 OA 
DOCKED: ATOM     36  N4  UNL     1      16.331  -7.874   4.890 +0.00 -0.00    -0.304 N  
DOCKED: ATOM     37  H45 UNL     1      16.089  -8.559   5.599 +0.00 +0.00    +0.149 HD 
DOCKED: BRANCH  36  38
DOCKED: ATOM     38  C29 UNL     1      17.499  -8.230   4.085 +0.00 +0.00    +0.161 C  
DOCKED: BRANCH  38  39
DOCKED: ATOM     39  C30 UNL     1      17.152  -9.529   3.330 +0.00 +0.00    +0.234 C  
DOCKED: ATOM     40  O7  UNL     1      17.705 -10.599   3.596 +0.00 -0.00    -0.274 OA 
DOCKED: ATOM     41  N5  UNL     1      16.231  -9.388   2.321 +0.00 -0.00    -0.310 N  
DOCKED: ATOM     42  H47 UNL     1      15.673  -8.543   2.297 +0.00 +0.00    +0.149 HD 
DOCKED: BRANCH  41  43
DOCKED: ATOM     43  C31 UNL     1      15.735 -10.523   1.577 +0.00 +0.00    +0.139 C  
DOCKED: BRANCH  43  44
DOCKED: ATOM     44  C32 UNL     1      14.398 -10.976   2.105 +0.00 -0.00    -0.027 A  
DOCKED: ATOM     45  C33 UNL     1      14.221 -11.261   3.463 +0.00 +0.00    +0.025 A  
DOCKED: ATOM     46  C34 UNL     1      12.970 -11.664   3.900 +0.00 +0.00    +0.111 A  
DOCKED: ATOM     47  N6  UNL     1      11.902 -11.805   3.090 +0.00 -0.00    -0.263 NA 
DOCKED: ATOM     48  C35 UNL     1      12.090 -11.523   1.785 +0.00 +0.00    +0.111 A  
DOCKED: ATOM     49  C36 UNL     1      13.301 -11.109   1.252 +0.00 +0.00    +0.025 A  
DOCKED: ENDBRANCH  43  44
DOCKED: ENDBRANCH  41  43
DOCKED: ENDBRANCH  38  39
DOCKED: BRANCH  38  50
DOCKED: ATOM     50  C37 UNL     1      18.778  -8.404   4.933 +0.00 +0.00    +0.012 C  
DOCKED: ATOM     51  C38 UNL     1      18.511  -9.049   6.298 +0.00 +0.00    +0.009 C  
DOCKED: ATOM     52  C39 UNL     1      19.484  -7.058   5.118 +0.00 +0.00    +0.009 C  
DOCKED: ENDBRANCH  38  50
DOCKED: ENDBRANCH  36  38
DOCKED: ENDBRANCH  32  34
DOCKED: ENDBRANCH  31  32
DOCKED: ENDBRANCH  28  31
DOCKED: ENDBRANCH   1  28
DOCKED: BRANCH   1  53
DOCKED: ATOM     53  C17 UNL     1      10.778  -6.534   2.123 +0.00 +0.00    +0.060 C  
DOCKED: BRANCH  53  54
DOCKED: ATOM     54  C18 UNL     1      11.108  -7.014   0.731 +0.00 -0.00    -0.046 A  
DOCKED: ATOM     55  C19 UNL     1      11.095  -8.382   0.432 +0.00 +0.00    +0.004 A  
DOCKED: ATOM     56  C20 UNL     1      11.425  -8.832  -0.848 +0.00 +0.00    +0.000 A  
DOCKED: ATOM     57  C21 UNL     1      11.774  -7.919  -1.840 +0.00 +0.00    +0.000 A  
DOCKED: ATOM     58  C22 UNL     1      11.783  -6.556  -1.555 +0.00 +0.00    +0.000 A  
DOCKED: ATOM     59  C23 UNL     1      11.449  -6.104  -0.279 +0.00 +0.00    +0.004 A  
DOCKED: ENDBRANCH  53  54
DOCKED: ENDBRANCH   1  53
DOCKED: TORSDOF 24
DOCKED: TER
DOCKED: ENDMDL
________________________________________________________________________________


    CLUSTERING HISTOGRAM
    ____________________


________________________________________________________________________________
     |           |     |           |     |
Clus | Lowest    | Run | Mean      | Num | Histogram
-ter | Binding   |     | Binding   | in  |
Rank | Energy    |     | Energy    | Clus|    5    10   15   20   25   30   35
_____|___________|_____|___________|_____|____:____|____:____|____:____|____:___
   1 |     +7.16 |   1 |     +7.16 |   1 |#
   2 |     +7.16 |   2 |     +7.16 |   1 |#
   3 |     +7.16 |   3 |     +7.16 |   1 |#
   4 |     +7.16 |   4 |     +7.16 |   1 |#
   5 |     +7.16 |   5 |     +7.16 |   1 |#
   6 |     +7.16 |   6 |     +7.16 |   1 |#
   7 |     +7.16 |   7 |     +7.16 |   1 |#
   8 |     +7.16 |   8 |     +7.16 |   1 |#
   9 |     +7.16 |   9 |     +7.16 |   1 |#
  10 |     +7.16 |  10 |     +7.16 |   1 |#
  11 |     +7.16 |  11 |     +7.16 |   1 |#
  12 |     +7.16 |  12 |     +7.16 |   1 |#
  13 |     +7.16 |  13 |     +7.16 |   1 |#
  14 |     +7.16 |  14 |     +7.16 |   1 |#
  15 |     +7.16 |  15 |     +7.16 |   1 |#
  16 |     +7.16 |  16 |     +7.16 |   1 |#
  17 |     +7.16 |  17 |     +7.16 |   1 |#
  18 |     +7.16 |  18 |     +7.16 |   1 |#
  19 |     +7.16 |  19 |     +7.16 |   1 |#
  20 |     +7.16 |  20 |     +7.16 |   1 |#
_____|___________|_____|___________|_____|______________________________________


    RMSD TABLE
    __________


_______________________________________________________________________
     |      |      |           |         |                 |
Rank | Sub- | Run  | Binding   | Cluster | Reference       | Grep
     | Rank |      | Energy    | RMSD    | RMSD            | Pattern
_____|______|______|___________|_________|_________________|___________
   1      1      1       +7.16      0.00     10.40           RANKING
   2      1      2       +7.16      0.00      7.41           RANKING
   3      1      3       +7.16      0.00      7.30           RANKING
   4      1      4       +7.16      0.00      5.35           RANKING
   5      1      5       +7.16      0.00     10.80           RANKING
   6      1      6       +7.16      0.00      8.28           RANKING
   7      1      7       +7.16      0.00      7.85           RANKING
   8      1      8       +7.16      0.00      9.16           RANKING
   9      1      9       +7.16      0.00      6.42           RANKING
  10      1     10       +7.16      0.00      7.22           RANKING
  11      1     11       +7.16      0.00     13.41           RANKING
  12      1     12       +7.16      0.00      9.02           RANKING
  13      1     13       +7.16      0.00      8.49           RANKING
  14      1     14       +7.16      0.00      7.70           RANKING
  15      1     15       +7.16      0.00      6.71           RANKING
  16      1     16       +7.16      0.00      8.59           RANKING
  17      1     17       +7.16      0.00     11.45           RANKING
  18      1     18       +7.16      0.00      8.98           RANKING
  19      1     19       +7.16      0.00     11.25           RANKING
  20      1     20       +7.16      0.00     12.32           RANKING

Run time 54.521 sec
Idle time 0.296 sec
