AutoDock-GPU version: v1.6

**********************************************************
**    AutoDock-GPU AUTODOCKTOOLS-COMPATIBLE DLG FILE    **
**********************************************************


    DOCKING PARAMETERS
    ________________________


Ligand file:                               ligands/ligand_13.pdbqt
Grid fld file:                             protein.maps.fld

Random seed:                               1770972140, 25585
Number of runs:                            20
Number of energy evaluations:              9755677
Number of generations:                     42000
Size of population:                        150
Rate of crossover:                         80.000000%
Tournament selection probability limit:    60.000000%
Rate of mutation:                          2.000000%
Maximal allowed delta movement:            +/- 6.000000A
Maximal allowed delta angle:               +/- 90.000000

Rate of local search:                      100.000000%
Maximal number of local search iterations: 300
Rho lower bound:                           0.010000
Spread of local search delta movement:     2.000000A
Spread of local search delta angle:        74.999999
Limit of consecutive successes/failures:   4

Handle symmetry during clustering:         YES
RMSD tolerance:                            2.000000A

Program call in command line was:          ./autodock-gpu --ffile protein.maps.fld --lfile ligands/ligand_13.pdbqt --nrun 20 


    GRID PARAMETERS
    ________________________


Receptor name:                             #MACROMOLECULE
Number of grid points (x, y, z):           61, 61, 61
Grid center (x, y, z):                     10.261000, -3.492000, -0.127000A
Grid size (x, y, z):                       22.500000, 22.500000, 22.500000A
Grid spacing:                              0.375000A


    LIGAND PARAMETERS
    ________________________


Ligand name:                               ligands/ligand_13
Number of atoms:                           57
Number of rotatable bonds:                 21
Number of atom types:                      7


    DUMMY DATA (only for ADT-compatibility)
    ________________________


DPF> outlev 1
DPF> ga_run 20
DPF> fld protein.maps.fld
DPF> move ligands/ligand_13.pdbqt


    COUNTER STATES
    ________________________


Number of energy evaluations performed:    4976060
Number of generations used:                205


    INPUT LIGAND PDBQT FILE:
    ________________________


INPUT-LIGAND-PDBQT: REMARK  Name = ligands/ligand_13.pdb
INPUT-LIGAND-PDBQT: REMARK  28 active torsions:
INPUT-LIGAND-PDBQT: REMARK  status: ('A' for Active; 'I' for Inactive)
INPUT-LIGAND-PDBQT: REMARK    1  A    between atoms: C1_1  and  C2_2
INPUT-LIGAND-PDBQT: REMARK    2  A    between atoms: C2_2  and  C3_3
INPUT-LIGAND-PDBQT: REMARK    3  A    between atoms: C2_2  and  C4_4
INPUT-LIGAND-PDBQT: REMARK    4  A    between atoms: C4_4  and  N1_5
INPUT-LIGAND-PDBQT: REMARK    5  A    between atoms: C4_4  and  C30_42
INPUT-LIGAND-PDBQT: REMARK    6  A    between atoms: C5_6  and  C6_8
INPUT-LIGAND-PDBQT: REMARK    7  A    between atoms: C6_8  and  C7_9
INPUT-LIGAND-PDBQT: REMARK    8  A    between atoms: C6_8  and  C8_10
INPUT-LIGAND-PDBQT: REMARK    9  A    between atoms: C8_10  and  C9_11
INPUT-LIGAND-PDBQT: REMARK   10  A    between atoms: C9_11  and  O2_12
INPUT-LIGAND-PDBQT: REMARK   11  A    between atoms: C9_11  and  C10_13
INPUT-LIGAND-PDBQT: REMARK   12  A    between atoms: C10_13  and  C11_14
INPUT-LIGAND-PDBQT: REMARK   13  A    between atoms: C10_13  and  N2_21
INPUT-LIGAND-PDBQT: REMARK   14  A    between atoms: C11_14  and  C12_15
INPUT-LIGAND-PDBQT: REMARK   15  A    between atoms: C18_22  and  C19_24
INPUT-LIGAND-PDBQT: REMARK   16  A    between atoms: C19_24  and  C20_25
INPUT-LIGAND-PDBQT: REMARK   17  A    between atoms: C19_24  and  N3_26
INPUT-LIGAND-PDBQT: REMARK   18  A    between atoms: C21_27  and  C22_29
INPUT-LIGAND-PDBQT: REMARK   19  A    between atoms: C22_29  and  C23_30
INPUT-LIGAND-PDBQT: REMARK   20  A    between atoms: C22_29  and  N4_34
INPUT-LIGAND-PDBQT: REMARK   21  A    between atoms: C23_30  and  C24_31
INPUT-LIGAND-PDBQT: REMARK   22  A    between atoms: C25_35  and  O6_37
INPUT-LIGAND-PDBQT: REMARK   23  A    between atoms: O6_37  and  C26_38
INPUT-LIGAND-PDBQT: REMARK   24  A    between atoms: C26_38  and  C27_39
INPUT-LIGAND-PDBQT: REMARK   25  A    between atoms: C26_38  and  C28_40
INPUT-LIGAND-PDBQT: REMARK   26  A    between atoms: C26_38  and  C29_41
INPUT-LIGAND-PDBQT: REMARK   27  A    between atoms: N5_44  and  C31_45
INPUT-LIGAND-PDBQT: REMARK   28  A    between atoms: C31_45  and  C32_46
INPUT-LIGAND-PDBQT: REMARK                            x       y       z     vdW  Elec       q    Type
INPUT-LIGAND-PDBQT: REMARK                         _______ _______ _______ _____ _____    ______ ____
INPUT-LIGAND-PDBQT: ROOT
INPUT-LIGAND-PDBQT: ATOM      1  C10 UNL     1      -0.763  -1.053  -1.059  0.00  0.00    +0.106 C 
INPUT-LIGAND-PDBQT: ENDROOT
INPUT-LIGAND-PDBQT: BRANCH   1   2
INPUT-LIGAND-PDBQT: ATOM      2  N2  UNL     1       0.464  -1.547  -0.423  0.00  0.00    -0.308 N 
INPUT-LIGAND-PDBQT: ATOM      3  C18 UNL     1       0.853  -1.323   0.875  0.00  0.00    +0.233 C 
INPUT-LIGAND-PDBQT: ATOM      4  O3  UNL     1       0.295  -0.497   1.599  0.00  0.00    -0.274 OA
INPUT-LIGAND-PDBQT: ATOM      5  H26 UNL     1       0.982  -2.266  -0.918  0.00  0.00    +0.149 HD
INPUT-LIGAND-PDBQT: BRANCH   3   6
INPUT-LIGAND-PDBQT: ATOM      6  C19 UNL     1       2.033  -2.184   1.380  0.00  0.00    +0.156 C 
INPUT-LIGAND-PDBQT: ATOM      7  C20 UNL     1       3.152  -1.299   1.929  0.00  0.00    +0.038 C 
INPUT-LIGAND-PDBQT: BRANCH   6   8
INPUT-LIGAND-PDBQT: ATOM      8  N3  UNL     1       2.519  -3.227   0.467  0.00  0.00    -0.303 N 
INPUT-LIGAND-PDBQT: ATOM      9  C21 UNL     1       3.314  -3.004  -0.639  0.00  0.00    +0.234 C 
INPUT-LIGAND-PDBQT: ATOM     10  O4  UNL     1       3.488  -1.885  -1.110  0.00  0.00    -0.274 OA
INPUT-LIGAND-PDBQT: ATOM     11  H31 UNL     1       2.425  -4.193   0.785  0.00  0.00    +0.149 HD
INPUT-LIGAND-PDBQT: BRANCH   9  12
INPUT-LIGAND-PDBQT: ATOM     12  C22 UNL     1       3.847  -4.292  -1.302  0.00  0.00    +0.167 C 
INPUT-LIGAND-PDBQT: BRANCH  12  13
INPUT-LIGAND-PDBQT: ATOM     13  N4  UNL     1       2.712  -4.948  -1.945  0.00  0.00    -0.270 N 
INPUT-LIGAND-PDBQT: ATOM     14  C25 UNL     1       1.856  -5.740  -1.238  0.00  0.00    +0.401 C 
INPUT-LIGAND-PDBQT: ATOM     15  O5  UNL     1       2.046  -6.082  -0.082  0.00  0.00    -0.226 OA
INPUT-LIGAND-PDBQT: ATOM     16  H36 UNL     1       2.294  -4.540  -2.776  0.00  0.00    +0.153 HD
INPUT-LIGAND-PDBQT: BRANCH  14  17
INPUT-LIGAND-PDBQT: ATOM     17  O6  UNL     1       0.771  -6.001  -1.995  0.00  0.00    -0.445 OA
INPUT-LIGAND-PDBQT: BRANCH  17  18
INPUT-LIGAND-PDBQT: ATOM     18  C26 UNL     1      -0.314  -6.816  -1.481  0.00  0.00    +0.107 C 
INPUT-LIGAND-PDBQT: ATOM     19  C27 UNL     1       0.158  -8.252  -1.224  0.00  0.00    +0.055 C 
INPUT-LIGAND-PDBQT: ATOM     20  C28 UNL     1      -0.948  -6.189  -0.235  0.00  0.00    +0.055 C 
INPUT-LIGAND-PDBQT: ATOM     21  C29 UNL     1      -1.357  -6.823  -2.612  0.00  0.00    +0.055 C 
INPUT-LIGAND-PDBQT: ENDBRANCH  17  18
INPUT-LIGAND-PDBQT: ENDBRANCH  14  17
INPUT-LIGAND-PDBQT: ENDBRANCH  12  13
INPUT-LIGAND-PDBQT: BRANCH  12  22
INPUT-LIGAND-PDBQT: ATOM     22  C23 UNL     1       4.950  -3.983  -2.312  0.00  0.00    +0.103 C 
INPUT-LIGAND-PDBQT: BRANCH  22  23
INPUT-LIGAND-PDBQT: ATOM     23  C24 UNL     1       5.698  -5.236  -2.706  0.00  0.00    +0.343 C 
INPUT-LIGAND-PDBQT: ATOM     24  F1  UNL     1       6.362  -5.717  -1.626  0.00  0.00    -0.209 F 
INPUT-LIGAND-PDBQT: ATOM     25  F2  UNL     1       6.636  -4.924  -3.633  0.00  0.00    -0.209 F 
INPUT-LIGAND-PDBQT: ENDBRANCH  22  23
INPUT-LIGAND-PDBQT: ENDBRANCH  12  22
INPUT-LIGAND-PDBQT: ENDBRANCH   9  12
INPUT-LIGAND-PDBQT: ENDBRANCH   6   8
INPUT-LIGAND-PDBQT: ENDBRANCH   3   6
INPUT-LIGAND-PDBQT: ENDBRANCH   1   2
INPUT-LIGAND-PDBQT: BRANCH   1  26
INPUT-LIGAND-PDBQT: ATOM     26  C11 UNL     1      -1.989  -1.797  -0.481  0.00  0.00    +0.060 C 
INPUT-LIGAND-PDBQT: BRANCH  26  27
INPUT-LIGAND-PDBQT: ATOM     27  C12 UNL     1      -3.194  -1.762  -1.393  0.00  0.00    -0.046 A 
INPUT-LIGAND-PDBQT: ATOM     28  C13 UNL     1      -4.210  -0.816  -1.194  0.00  0.00    +0.004 A 
INPUT-LIGAND-PDBQT: ATOM     29  C14 UNL     1      -5.303  -0.761  -2.059  0.00  0.00    +0.000 A 
INPUT-LIGAND-PDBQT: ATOM     30  C15 UNL     1      -5.390  -1.652  -3.127  0.00  0.00    +0.000 A 
INPUT-LIGAND-PDBQT: ATOM     31  C16 UNL     1      -4.395  -2.602  -3.325  0.00  0.00    +0.000 A 
INPUT-LIGAND-PDBQT: ATOM     32  C17 UNL     1      -3.298  -2.658  -2.465  0.00  0.00    +0.004 A 
INPUT-LIGAND-PDBQT: ENDBRANCH  26  27
INPUT-LIGAND-PDBQT: ENDBRANCH   1  26
INPUT-LIGAND-PDBQT: BRANCH   1  33
INPUT-LIGAND-PDBQT: ATOM     33  C9  UNL     1      -0.949   0.492  -1.049  0.00  0.00    +0.136 C 
INPUT-LIGAND-PDBQT: BRANCH  33  34
INPUT-LIGAND-PDBQT: ATOM     34  O2  UNL     1      -1.335   0.963   0.240  0.00  0.00    -0.390 OA
INPUT-LIGAND-PDBQT: ATOM     35  H17 UNL     1      -0.717   0.570   0.896  0.00  0.00    +0.210 HD
INPUT-LIGAND-PDBQT: ENDBRANCH  33  34
INPUT-LIGAND-PDBQT: BRANCH  33  36
INPUT-LIGAND-PDBQT: ATOM     36  C8  UNL     1       0.282   1.277  -1.546  0.00  0.00    +0.045 C 
INPUT-LIGAND-PDBQT: BRANCH  36  37
INPUT-LIGAND-PDBQT: ATOM     37  C6  UNL     1       0.006   2.774  -1.865  0.00  0.00    +0.074 C 
INPUT-LIGAND-PDBQT: ATOM     38  C7  UNL     1      -0.911   2.963  -3.076  0.00  0.00    +0.017 C 
INPUT-LIGAND-PDBQT: BRANCH  37  40
INPUT-LIGAND-PDBQT: ATOM     39  N1  UNL     1       0.414   3.777   0.313  0.00  0.00    -0.304 N 
INPUT-LIGAND-PDBQT: ATOM     40  C5  UNL     1      -0.542   3.514  -0.645  0.00  0.00    +0.217 C 
INPUT-LIGAND-PDBQT: ATOM     41  O1  UNL     1      -1.725   3.829  -0.540  0.00  0.00    -0.276 OA
INPUT-LIGAND-PDBQT: ATOM     42  H9  UNL     1       1.312   3.363   0.121  0.00  0.00    +0.149 HD
INPUT-LIGAND-PDBQT: BRANCH  39  43
INPUT-LIGAND-PDBQT: ATOM     43  C4  UNL     1       0.107   3.941   1.746  0.00  0.00    +0.161 C 
INPUT-LIGAND-PDBQT: BRANCH  43  44
INPUT-LIGAND-PDBQT: ATOM     44  C30 UNL     1      -0.769   5.170   2.152  0.00  0.00    +0.234 C 
INPUT-LIGAND-PDBQT: ATOM     45  O7  UNL     1      -0.395   6.053   2.926  0.00  0.00    -0.274 OA
INPUT-LIGAND-PDBQT: ATOM     46  N5  UNL     1      -2.048   5.129   1.650  0.00  0.00    -0.310 N 
INPUT-LIGAND-PDBQT: ATOM     47  H46 UNL     1      -2.218   4.499   0.864  0.00  0.00    +0.149 HD
INPUT-LIGAND-PDBQT: BRANCH  46  48
INPUT-LIGAND-PDBQT: ATOM     48  C31 UNL     1      -3.103   6.015   2.057  0.00  0.00    +0.139 C 
INPUT-LIGAND-PDBQT: BRANCH  48  49
INPUT-LIGAND-PDBQT: ATOM     49  C32 UNL     1      -4.053   5.293   2.978  0.00  0.00    -0.027 A 
INPUT-LIGAND-PDBQT: ATOM     50  C33 UNL     1      -4.898   4.289   2.492  0.00  0.00    +0.025 A 
INPUT-LIGAND-PDBQT: ATOM     51  C34 UNL     1      -5.716   3.619   3.393  0.00  0.00    +0.111 A 
INPUT-LIGAND-PDBQT: ATOM     52  N6  UNL     1      -5.755   3.878   4.718  0.00  0.00    -0.263 NA
INPUT-LIGAND-PDBQT: ATOM     53  C35 UNL     1      -4.925   4.845   5.163  0.00  0.00    +0.111 A 
INPUT-LIGAND-PDBQT: ATOM     54  C36 UNL     1      -4.067   5.569   4.346  0.00  0.00    +0.025 A 
INPUT-LIGAND-PDBQT: ENDBRANCH  48  49
INPUT-LIGAND-PDBQT: ENDBRANCH  46  48
INPUT-LIGAND-PDBQT: ENDBRANCH  43  44
INPUT-LIGAND-PDBQT: BRANCH  43  56
INPUT-LIGAND-PDBQT: ATOM     55  C1  UNL     1       2.034   2.506   2.637  0.00  0.00    +0.009 C 
INPUT-LIGAND-PDBQT: ATOM     56  C2  UNL     1       1.413   3.911   2.599  0.00  0.00    +0.012 C 
INPUT-LIGAND-PDBQT: ATOM     57  C3  UNL     1       2.466   4.927   2.133  0.00  0.00    +0.009 C 
INPUT-LIGAND-PDBQT: ENDBRANCH  43  56
INPUT-LIGAND-PDBQT: ENDBRANCH  39  43
INPUT-LIGAND-PDBQT: ENDBRANCH  37  40
INPUT-LIGAND-PDBQT: ENDBRANCH  36  37
INPUT-LIGAND-PDBQT: ENDBRANCH  33  36
INPUT-LIGAND-PDBQT: ENDBRANCH   1  33
INPUT-LIGAND-PDBQT: TORSDOF 21


    FINAL DOCKED STATE:
    ________________________


Run:   1 / 20
Time taken for this run:   1.475s

DOCKED: MODEL        1
DOCKED: USER    Run = 1
DOCKED: USER
DOCKED: USER    Estimated Free Energy of Binding    =  +6.26 kcal/mol  [=(1)+(2)+(3)-(4)]
DOCKED: USER
DOCKED: USER    (1) Final Intermolecular Energy     =  +0.00 kcal/mol
DOCKED: USER        vdW + Hbond + desolv Energy     =  +0.00 kcal/mol
DOCKED: USER        Electrostatic Energy            =  +0.00 kcal/mol
DOCKED: USER        Moving Ligand-Fixed Receptor    =  +0.00 kcal/mol
DOCKED: USER        Moving Ligand-Moving Receptor   =  +0.00 kcal/mol
DOCKED: USER    (2) Final Total Internal Energy     = -13.99 kcal/mol
DOCKED: USER    (3) Torsional Free Energy           =  +6.26 kcal/mol
DOCKED: USER    (4) Unbound System's Energy         = -13.99 kcal/mol
DOCKED: USER
DOCKED: USER
DOCKED: REMARK  Name = ligands/ligand_13.pdb
DOCKED: REMARK  28 active torsions:
DOCKED: REMARK  status: ('A' for Active; 'I' for Inactive)
DOCKED: REMARK    1  A    between atoms: C1_1  and  C2_2
DOCKED: REMARK    2  A    between atoms: C2_2  and  C3_3
DOCKED: REMARK    3  A    between atoms: C2_2  and  C4_4
DOCKED: REMARK    4  A    between atoms: C4_4  and  N1_5
DOCKED: REMARK    5  A    between atoms: C4_4  and  C30_42
DOCKED: REMARK    6  A    between atoms: C5_6  and  C6_8
DOCKED: REMARK    7  A    between atoms: C6_8  and  C7_9
DOCKED: REMARK    8  A    between atoms: C6_8  and  C8_10
DOCKED: REMARK    9  A    between atoms: C8_10  and  C9_11
DOCKED: REMARK   10  A    between atoms: C9_11  and  O2_12
DOCKED: REMARK   11  A    between atoms: C9_11  and  C10_13
DOCKED: REMARK   12  A    between atoms: C10_13  and  C11_14
DOCKED: REMARK   13  A    between atoms: C10_13  and  N2_21
DOCKED: REMARK   14  A    between atoms: C11_14  and  C12_15
DOCKED: REMARK   15  A    between atoms: C18_22  and  C19_24
DOCKED: REMARK   16  A    between atoms: C19_24  and  C20_25
DOCKED: REMARK   17  A    between atoms: C19_24  and  N3_26
DOCKED: REMARK   18  A    between atoms: C21_27  and  C22_29
DOCKED: REMARK   19  A    between atoms: C22_29  and  C23_30
DOCKED: REMARK   20  A    between atoms: C22_29  and  N4_34
DOCKED: REMARK   21  A    between atoms: C23_30  and  C24_31
DOCKED: REMARK   22  A    between atoms: C25_35  and  O6_37
DOCKED: REMARK   23  A    between atoms: O6_37  and  C26_38
DOCKED: REMARK   24  A    between atoms: C26_38  and  C27_39
DOCKED: REMARK   25  A    between atoms: C26_38  and  C28_40
DOCKED: REMARK   26  A    between atoms: C26_38  and  C29_41
DOCKED: REMARK   27  A    between atoms: N5_44  and  C31_45
DOCKED: REMARK   28  A    between atoms: C31_45  and  C32_46
DOCKED: REMARK                            x       y       z     vdW  Elec       q    Type
DOCKED: REMARK                         _______ _______ _______ _____ _____    ______ ____
DOCKED: USER                              x       y       z     vdW  Elec       q    Type
DOCKED: USER                           _______ _______ _______ _____ _____    ______ ____
DOCKED: ROOT
DOCKED: ATOM      1  C10 UNL     1      12.618  -5.023   0.489 +0.00 +0.00    +0.106 C  
DOCKED: ENDROOT
DOCKED: BRANCH   1   2
DOCKED: ATOM      2  N2  UNL     1      12.287  -5.562   1.814 +0.00 -0.00    -0.308 N  
DOCKED: ATOM      3  C18 UNL     1      11.379  -5.038   2.700 +0.00 +0.00    +0.233 C  
DOCKED: ATOM      4  O3  UNL     1      10.881  -3.921   2.554 +0.00 -0.00    -0.274 OA 
DOCKED: ATOM      5  H26 UNL     1      12.615  -6.499   2.024 +0.00 +0.00    +0.149 HD 
DOCKED: BRANCH   3   6
DOCKED: ATOM      6  C19 UNL     1      11.007  -5.945   3.895 +0.00 +0.00    +0.156 C  
DOCKED: ATOM      7  C20 UNL     1      10.672  -5.106   5.128 +0.00 +0.00    +0.038 C  
DOCKED: BRANCH   6   8
DOCKED: ATOM      8  N3  UNL     1      11.927  -7.053   4.185 +0.00 -0.00    -0.303 N  
DOCKED: ATOM      9  C21 UNL     1      12.089  -8.175   3.398 +0.00 +0.00    +0.234 C  
DOCKED: ATOM     10  O4  UNL     1      11.300  -8.474   2.507 +0.00 -0.00    -0.274 OA 
DOCKED: ATOM     11  H31 UNL     1      12.628  -6.888   4.909 +0.00 +0.00    +0.149 HD 
DOCKED: BRANCH   9  12
DOCKED: ATOM     12  C22 UNL     1      13.263  -9.081   3.825 +0.00 +0.00    +0.167 C  
DOCKED: BRANCH  12  13
DOCKED: ATOM     13  N4  UNL     1      14.415  -8.709   3.008 +0.00 -0.00    -0.270 N  
DOCKED: ATOM     14  C25 UNL     1      14.860  -7.422   2.954 +0.00 +0.00    +0.401 C  
DOCKED: ATOM     15  O5  UNL     1      14.264  -6.476   3.442 +0.00 -0.00    -0.226 OA 
DOCKED: ATOM     16  H36 UNL     1      15.134  -9.396   2.803 +0.00 +0.00    +0.153 HD 
DOCKED: BRANCH  14  17
DOCKED: ATOM     17  O6  UNL     1      16.068  -7.399   2.354 +0.00 -0.00    -0.445 OA 
DOCKED: BRANCH  17  18
DOCKED: ATOM     18  C26 UNL     1      17.284  -7.565   3.126 +0.00 +0.00    +0.107 C  
DOCKED: ATOM     19  C27 UNL     1      17.155  -6.892   4.498 +0.00 +0.00    +0.055 C  
DOCKED: ATOM     20  C28 UNL     1      17.677  -9.041   3.247 +0.00 +0.00    +0.055 C  
DOCKED: ATOM     21  C29 UNL     1      18.362  -6.836   2.306 +0.00 +0.00    +0.055 C  
DOCKED: ENDBRANCH  17  18
DOCKED: ENDBRANCH  14  17
DOCKED: ENDBRANCH  12  13
DOCKED: BRANCH  12  22
DOCKED: ATOM     22  C23 UNL     1      13.570  -8.929   5.313 +0.00 +0.00    +0.103 C  
DOCKED: BRANCH  22  23
DOCKED: ATOM     23  C24 UNL     1      14.629  -9.913   5.757 +0.00 +0.00    +0.343 C  
DOCKED: ATOM     24  F1  UNL     1      15.802  -9.256   5.933 +0.00 -0.00    -0.209 F  
DOCKED: ATOM     25  F2  UNL     1      14.835 -10.822   4.773 +0.00 -0.00    -0.209 F  
DOCKED: ENDBRANCH  22  23
DOCKED: ENDBRANCH  12  22
DOCKED: ENDBRANCH   9  12
DOCKED: ENDBRANCH   6   8
DOCKED: ENDBRANCH   3   6
DOCKED: ENDBRANCH   1   2
DOCKED: BRANCH   1  26
DOCKED: ATOM     26  C11 UNL     1      13.221  -3.607   0.635 +0.00 +0.00    +0.060 C  
DOCKED: BRANCH  26  27
DOCKED: ATOM     27  C12 UNL     1      14.430  -3.563   1.542 +0.00 -0.00    -0.046 A  
DOCKED: ATOM     28  C13 UNL     1      14.275  -3.430   2.929 +0.00 +0.00    +0.004 A  
DOCKED: ATOM     29  C14 UNL     1      15.390  -3.427   3.768 +0.00 +0.00    +0.000 A  
DOCKED: ATOM     30  C15 UNL     1      16.667  -3.554   3.226 +0.00 +0.00    +0.000 A  
DOCKED: ATOM     31  C16 UNL     1      16.833  -3.673   1.851 +0.00 +0.00    +0.000 A  
DOCKED: ATOM     32  C17 UNL     1      15.720  -3.680   1.009 +0.00 +0.00    +0.004 A  
DOCKED: ENDBRANCH  26  27
DOCKED: ENDBRANCH   1  26
DOCKED: BRANCH   1  33
DOCKED: ATOM     33  C9  UNL     1      13.486  -5.946  -0.414 +0.00 +0.00    +0.136 C  
DOCKED: BRANCH  33  34
DOCKED: ATOM     34  O2  UNL     1      14.048  -7.025   0.330 +0.00 -0.00    -0.390 OA 
DOCKED: ATOM     35  H17 UNL     1      14.420  -6.650   1.159 +0.00 +0.00    +0.210 HD 
DOCKED: ENDBRANCH  33  34
DOCKED: BRANCH  33  36
DOCKED: ATOM     36  C8  UNL     1      12.745  -6.493  -1.651 +0.00 +0.00    +0.045 C  
DOCKED: BRANCH  36  37
DOCKED: ATOM     37  C6  UNL     1      11.555  -7.439  -1.323 +0.00 +0.00    +0.074 C  
DOCKED: ATOM     38  C7  UNL     1      10.448  -7.386  -2.379 +0.00 +0.00    +0.017 C  
DOCKED: BRANCH  37  40
DOCKED: ATOM     39  N1  UNL     1      12.394  -9.136   0.204 +0.00 -0.00    -0.304 N  
DOCKED: ATOM     40  C5  UNL     1      12.028  -8.876  -1.099 +0.00 +0.00    +0.217 C  
DOCKED: ATOM     41  O1  UNL     1      12.078  -9.703  -2.006 +0.00 -0.00    -0.276 OA 
DOCKED: ATOM     42  H9  UNL     1      12.393  -8.325   0.801 +0.00 +0.00    +0.149 HD 
DOCKED: BRANCH  39  43
DOCKED: ATOM     43  C4  UNL     1      13.370 -10.175   0.582 +0.00 +0.00    +0.161 C  
DOCKED: BRANCH  43  44
DOCKED: ATOM     44  C30 UNL     1      14.836 -10.000   0.068 +0.00 +0.00    +0.234 C  
DOCKED: ATOM     45  O7  UNL     1      15.810  -9.858   0.809 +0.00 -0.00    -0.274 OA 
DOCKED: ATOM     46  N5  UNL     1      14.936  -9.909  -1.300 +0.00 -0.00    -0.310 N  
DOCKED: ATOM     47  H46 UNL     1      14.139 -10.241  -1.846 +0.00 +0.00    +0.149 HD 
DOCKED: BRANCH  46  48
DOCKED: ATOM     48  C31 UNL     1      16.132  -9.524  -1.997 +0.00 +0.00    +0.139 C  
DOCKED: BRANCH  48  49
DOCKED: ATOM     49  C32 UNL     1      16.316  -8.031  -1.915 +0.00 -0.00    -0.027 A  
DOCKED: ATOM     50  C33 UNL     1      15.797  -7.189  -2.906 +0.00 +0.00    +0.025 A  
DOCKED: ATOM     51  C34 UNL     1      15.949  -5.817  -2.755 +0.00 +0.00    +0.111 A  
DOCKED: ATOM     52  N6  UNL     1      16.576  -5.235  -1.709 +0.00 -0.00    -0.263 NA 
DOCKED: ATOM     53  C35 UNL     1      17.060  -6.067  -0.763 +0.00 +0.00    +0.111 A  
DOCKED: ATOM     54  C36 UNL     1      16.956  -7.451  -0.819 +0.00 +0.00    +0.025 A  
DOCKED: ENDBRANCH  48  49
DOCKED: ENDBRANCH  46  48
DOCKED: ENDBRANCH  43  44
DOCKED: BRANCH  43  56
DOCKED: ATOM     55  C1  UNL     1      13.910 -12.675   0.428 +0.00 +0.00    +0.009 C  
DOCKED: ATOM     56  C2  UNL     1      12.840 -11.595   0.210 +0.00 +0.00    +0.012 C  
DOCKED: ATOM     57  C3  UNL     1      11.558 -11.981   0.962 +0.00 +0.00    +0.009 C  
DOCKED: ENDBRANCH  43  56
DOCKED: ENDBRANCH  39  43
DOCKED: ENDBRANCH  37  40
DOCKED: ENDBRANCH  36  37
DOCKED: ENDBRANCH  33  36
DOCKED: ENDBRANCH   1  33
DOCKED: TORSDOF 21
DOCKED: TER
DOCKED: ENDMDL
________________________________________________________________________________


    FINAL DOCKED STATE:
    ________________________


Run:   2 / 20
Time taken for this run:   1.475s

DOCKED: MODEL        2
DOCKED: USER    Run = 2
DOCKED: USER
DOCKED: USER    Estimated Free Energy of Binding    =  +6.26 kcal/mol  [=(1)+(2)+(3)-(4)]
DOCKED: USER
DOCKED: USER    (1) Final Intermolecular Energy     =  +0.00 kcal/mol
DOCKED: USER        vdW + Hbond + desolv Energy     =  +0.00 kcal/mol
DOCKED: USER        Electrostatic Energy            =  +0.00 kcal/mol
DOCKED: USER        Moving Ligand-Fixed Receptor    =  +0.00 kcal/mol
DOCKED: USER        Moving Ligand-Moving Receptor   =  +0.00 kcal/mol
DOCKED: USER    (2) Final Total Internal Energy     = -13.99 kcal/mol
DOCKED: USER    (3) Torsional Free Energy           =  +6.26 kcal/mol
DOCKED: USER    (4) Unbound System's Energy         = -13.99 kcal/mol
DOCKED: USER
DOCKED: USER
DOCKED: REMARK  Name = ligands/ligand_13.pdb
DOCKED: REMARK  28 active torsions:
DOCKED: REMARK  status: ('A' for Active; 'I' for Inactive)
DOCKED: REMARK    1  A    between atoms: C1_1  and  C2_2
DOCKED: REMARK    2  A    between atoms: C2_2  and  C3_3
DOCKED: REMARK    3  A    between atoms: C2_2  and  C4_4
DOCKED: REMARK    4  A    between atoms: C4_4  and  N1_5
DOCKED: REMARK    5  A    between atoms: C4_4  and  C30_42
DOCKED: REMARK    6  A    between atoms: C5_6  and  C6_8
DOCKED: REMARK    7  A    between atoms: C6_8  and  C7_9
DOCKED: REMARK    8  A    between atoms: C6_8  and  C8_10
DOCKED: REMARK    9  A    between atoms: C8_10  and  C9_11
DOCKED: REMARK   10  A    between atoms: C9_11  and  O2_12
DOCKED: REMARK   11  A    between atoms: C9_11  and  C10_13
DOCKED: REMARK   12  A    between atoms: C10_13  and  C11_14
DOCKED: REMARK   13  A    between atoms: C10_13  and  N2_21
DOCKED: REMARK   14  A    between atoms: C11_14  and  C12_15
DOCKED: REMARK   15  A    between atoms: C18_22  and  C19_24
DOCKED: REMARK   16  A    between atoms: C19_24  and  C20_25
DOCKED: REMARK   17  A    between atoms: C19_24  and  N3_26
DOCKED: REMARK   18  A    between atoms: C21_27  and  C22_29
DOCKED: REMARK   19  A    between atoms: C22_29  and  C23_30
DOCKED: REMARK   20  A    between atoms: C22_29  and  N4_34
DOCKED: REMARK   21  A    between atoms: C23_30  and  C24_31
DOCKED: REMARK   22  A    between atoms: C25_35  and  O6_37
DOCKED: REMARK   23  A    between atoms: O6_37  and  C26_38
DOCKED: REMARK   24  A    between atoms: C26_38  and  C27_39
DOCKED: REMARK   25  A    between atoms: C26_38  and  C28_40
DOCKED: REMARK   26  A    between atoms: C26_38  and  C29_41
DOCKED: REMARK   27  A    between atoms: N5_44  and  C31_45
DOCKED: REMARK   28  A    between atoms: C31_45  and  C32_46
DOCKED: REMARK                            x       y       z     vdW  Elec       q    Type
DOCKED: REMARK                         _______ _______ _______ _____ _____    ______ ____
DOCKED: USER                              x       y       z     vdW  Elec       q    Type
DOCKED: USER                           _______ _______ _______ _____ _____    ______ ____
DOCKED: ROOT
DOCKED: ATOM      1  C10 UNL     1      12.241  -0.309  -6.989 +0.00 +0.00    +0.106 C  
DOCKED: ENDROOT
DOCKED: BRANCH   1   2
DOCKED: ATOM      2  N2  UNL     1      11.369  -1.019  -6.046 +0.00 -0.00    -0.308 N  
DOCKED: ATOM      3  C18 UNL     1      10.548  -2.080  -6.341 +0.00 +0.00    +0.233 C  
DOCKED: ATOM      4  O3  UNL     1      10.302  -2.424  -7.498 +0.00 -0.00    -0.274 OA 
DOCKED: ATOM      5  H26 UNL     1      11.516  -0.840  -5.058 +0.00 +0.00    +0.149 HD 
DOCKED: BRANCH   3   6
DOCKED: ATOM      6  C19 UNL     1       9.955  -2.828  -5.125 +0.00 +0.00    +0.156 C  
DOCKED: ATOM      7  C20 UNL     1       8.601  -3.444  -5.477 +0.00 +0.00    +0.038 C  
DOCKED: BRANCH   6   8
DOCKED: ATOM      8  N3  UNL     1       9.942  -2.097  -3.851 +0.00 -0.00    -0.303 N  
DOCKED: ATOM      9  C21 UNL     1      11.034  -1.925  -3.025 +0.00 +0.00    +0.234 C  
DOCKED: ATOM     10  O4  UNL     1      12.065  -2.577  -3.152 +0.00 -0.00    -0.274 OA 
DOCKED: ATOM     11  H31 UNL     1       9.123  -1.516  -3.666 +0.00 +0.00    +0.149 HD 
DOCKED: BRANCH   9  12
DOCKED: ATOM     12  C22 UNL     1      10.793  -0.947  -1.856 +0.00 +0.00    +0.167 C  
DOCKED: BRANCH  12  13
DOCKED: ATOM     13  N4  UNL     1      11.272   0.364  -2.284 +0.00 -0.00    -0.270 N  
DOCKED: ATOM     14  C25 UNL     1      10.761   0.981  -3.388 +0.00 +0.00    +0.401 C  
DOCKED: ATOM     15  O5  UNL     1       9.998   0.443  -4.174 +0.00 -0.00    -0.226 OA 
DOCKED: ATOM     16  H36 UNL     1      11.662   1.010  -1.604 +0.00 +0.00    +0.153 HD 
DOCKED: BRANCH  14  17
DOCKED: ATOM     17  O6  UNL     1      11.177   2.263  -3.409 +0.00 -0.00    -0.445 OA 
DOCKED: BRANCH  17  18
DOCKED: ATOM     18  C26 UNL     1      10.446   3.292  -2.694 +0.00 +0.00    +0.107 C  
DOCKED: ATOM     19  C27 UNL     1      10.900   3.368  -1.231 +0.00 +0.00    +0.055 C  
DOCKED: ATOM     20  C28 UNL     1      10.550   4.650  -3.397 +0.00 +0.00    +0.055 C  
DOCKED: ATOM     21  C29 UNL     1       8.980   2.825  -2.743 +0.00 +0.00    +0.055 C  
DOCKED: ENDBRANCH  17  18
DOCKED: ENDBRANCH  14  17
DOCKED: ENDBRANCH  12  13
DOCKED: BRANCH  12  22
DOCKED: ATOM     22  C23 UNL     1       9.316  -0.895  -1.469 +0.00 +0.00    +0.103 C  
DOCKED: BRANCH  22  23
DOCKED: ATOM     23  C24 UNL     1       9.118  -0.163  -0.161 +0.00 +0.00    +0.343 C  
DOCKED: ATOM     24  F1  UNL     1       8.503   1.021  -0.401 +0.00 -0.00    -0.209 F  
DOCKED: ATOM     25  F2  UNL     1      10.328   0.128   0.376 +0.00 -0.00    -0.209 F  
DOCKED: ENDBRANCH  22  23
DOCKED: ENDBRANCH  12  22
DOCKED: ENDBRANCH   9  12
DOCKED: ENDBRANCH   6   8
DOCKED: ENDBRANCH   3   6
DOCKED: ENDBRANCH   1   2
DOCKED: BRANCH   1  26
DOCKED: ATOM     26  C11 UNL     1      11.382   0.446  -8.030 +0.00 +0.00    +0.060 C  
DOCKED: BRANCH  26  27
DOCKED: ATOM     27  C12 UNL     1      10.412   1.424  -7.408 +0.00 -0.00    -0.046 A  
DOCKED: ATOM     28  C13 UNL     1       9.152   0.994  -6.968 +0.00 +0.00    +0.004 A  
DOCKED: ATOM     29  C14 UNL     1       8.272   1.891  -6.360 +0.00 +0.00    +0.000 A  
DOCKED: ATOM     30  C15 UNL     1       8.644   3.223  -6.191 +0.00 +0.00    +0.000 A  
DOCKED: ATOM     31  C16 UNL     1       9.885   3.662  -6.637 +0.00 +0.00    +0.000 A  
DOCKED: ATOM     32  C17 UNL     1      10.770   2.768  -7.241 +0.00 +0.00    +0.004 A  
DOCKED: ENDBRANCH  26  27
DOCKED: ENDBRANCH   1  26
DOCKED: BRANCH   1  33
DOCKED: ATOM     33  C9  UNL     1      13.326   0.602  -6.344 +0.00 +0.00    +0.136 C  
DOCKED: BRANCH  33  34
DOCKED: ATOM     34  O2  UNL     1      13.052   0.845  -4.966 +0.00 -0.00    -0.390 OA 
DOCKED: ATOM     35  H17 UNL     1      12.082   0.976  -4.876 +0.00 +0.00    +0.210 HD 
DOCKED: ENDBRANCH  33  34
DOCKED: BRANCH  33  36
DOCKED: ATOM     36  C8  UNL     1      14.766   0.076  -6.507 +0.00 +0.00    +0.045 C  
DOCKED: BRANCH  36  37
DOCKED: ATOM     37  C6  UNL     1      15.033  -1.294  -5.821 +0.00 +0.00    +0.074 C  
DOCKED: ATOM     38  C7  UNL     1      16.123  -2.107  -6.525 +0.00 +0.00    +0.017 C  
DOCKED: BRANCH  37  40
DOCKED: ATOM     39  N1  UNL     1      14.233  -1.094  -3.533 +0.00 -0.00    -0.304 N  
DOCKED: ATOM     40  C5  UNL     1      15.353  -1.124  -4.336 +0.00 +0.00    +0.217 C  
DOCKED: ATOM     41  O1  UNL     1      16.503  -1.016  -3.917 +0.00 -0.00    -0.276 OA 
DOCKED: ATOM     42  H9  UNL     1      13.364  -1.090  -4.042 +0.00 +0.00    +0.149 HD 
DOCKED: BRANCH  39  43
DOCKED: ATOM     43  C4  UNL     1      14.185  -0.407  -2.229 +0.00 +0.00    +0.161 C  
DOCKED: BRANCH  43  44
DOCKED: ATOM     44  C30 UNL     1      14.412   1.140  -2.228 +0.00 +0.00    +0.234 C  
DOCKED: ATOM     45  O7  UNL     1      13.585   1.954  -1.813 +0.00 -0.00    -0.274 OA 
DOCKED: ATOM     46  N5  UNL     1      15.583   1.528  -2.834 +0.00 -0.00    -0.310 N  
DOCKED: ATOM     47  H46 UNL     1      16.301   0.812  -2.959 +0.00 +0.00    +0.149 HD 
DOCKED: BRANCH  46  48
DOCKED: ATOM     48  C31 UNL     1      15.911   2.889  -3.157 +0.00 +0.00    +0.139 C  
DOCKED: BRANCH  48  49
DOCKED: ATOM     49  C32 UNL     1      15.161   3.318  -4.392 +0.00 -0.00    -0.027 A  
DOCKED: ATOM     50  C33 UNL     1      15.738   3.191  -5.661 +0.00 +0.00    +0.025 A  
DOCKED: ATOM     51  C34 UNL     1      14.984   3.552  -6.770 +0.00 +0.00    +0.111 A  
DOCKED: ATOM     52  N6  UNL     1      13.721   4.028  -6.705 +0.00 -0.00    -0.263 NA 
DOCKED: ATOM     53  C35 UNL     1      13.185   4.134  -5.471 +0.00 +0.00    +0.111 A  
DOCKED: ATOM     54  C36 UNL     1      13.853   3.796  -4.302 +0.00 +0.00    +0.025 A  
DOCKED: ENDBRANCH  48  49
DOCKED: ENDBRANCH  46  48
DOCKED: ENDBRANCH  43  44
DOCKED: BRANCH  43  56
DOCKED: ATOM     55  C1  UNL     1      15.188  -0.330   0.127 +0.00 +0.00    +0.009 C  
DOCKED: ATOM     56  C2  UNL     1      15.147  -1.089  -1.208 +0.00 +0.00    +0.012 C  
DOCKED: ATOM     57  C3  UNL     1      14.813  -2.565  -0.951 +0.00 +0.00    +0.009 C  
DOCKED: ENDBRANCH  43  56
DOCKED: ENDBRANCH  39  43
DOCKED: ENDBRANCH  37  40
DOCKED: ENDBRANCH  36  37
DOCKED: ENDBRANCH  33  36
DOCKED: ENDBRANCH   1  33
DOCKED: TORSDOF 21
DOCKED: TER
DOCKED: ENDMDL
________________________________________________________________________________


    FINAL DOCKED STATE:
    ________________________


Run:   3 / 20
Time taken for this run:   1.475s

DOCKED: MODEL        3
DOCKED: USER    Run = 3
DOCKED: USER
DOCKED: USER    Estimated Free Energy of Binding    =  +6.26 kcal/mol  [=(1)+(2)+(3)-(4)]
DOCKED: USER
DOCKED: USER    (1) Final Intermolecular Energy     =  +0.00 kcal/mol
DOCKED: USER        vdW + Hbond + desolv Energy     =  +0.00 kcal/mol
DOCKED: USER        Electrostatic Energy            =  +0.00 kcal/mol
DOCKED: USER        Moving Ligand-Fixed Receptor    =  +0.00 kcal/mol
DOCKED: USER        Moving Ligand-Moving Receptor   =  +0.00 kcal/mol
DOCKED: USER    (2) Final Total Internal Energy     = -13.98 kcal/mol
DOCKED: USER    (3) Torsional Free Energy           =  +6.26 kcal/mol
DOCKED: USER    (4) Unbound System's Energy         = -13.98 kcal/mol
DOCKED: USER
DOCKED: USER
DOCKED: REMARK  Name = ligands/ligand_13.pdb
DOCKED: REMARK  28 active torsions:
DOCKED: REMARK  status: ('A' for Active; 'I' for Inactive)
DOCKED: REMARK    1  A    between atoms: C1_1  and  C2_2
DOCKED: REMARK    2  A    between atoms: C2_2  and  C3_3
DOCKED: REMARK    3  A    between atoms: C2_2  and  C4_4
DOCKED: REMARK    4  A    between atoms: C4_4  and  N1_5
DOCKED: REMARK    5  A    between atoms: C4_4  and  C30_42
DOCKED: REMARK    6  A    between atoms: C5_6  and  C6_8
DOCKED: REMARK    7  A    between atoms: C6_8  and  C7_9
DOCKED: REMARK    8  A    between atoms: C6_8  and  C8_10
DOCKED: REMARK    9  A    between atoms: C8_10  and  C9_11
DOCKED: REMARK   10  A    between atoms: C9_11  and  O2_12
DOCKED: REMARK   11  A    between atoms: C9_11  and  C10_13
DOCKED: REMARK   12  A    between atoms: C10_13  and  C11_14
DOCKED: REMARK   13  A    between atoms: C10_13  and  N2_21
DOCKED: REMARK   14  A    between atoms: C11_14  and  C12_15
DOCKED: REMARK   15  A    between atoms: C18_22  and  C19_24
DOCKED: REMARK   16  A    between atoms: C19_24  and  C20_25
DOCKED: REMARK   17  A    between atoms: C19_24  and  N3_26
DOCKED: REMARK   18  A    between atoms: C21_27  and  C22_29
DOCKED: REMARK   19  A    between atoms: C22_29  and  C23_30
DOCKED: REMARK   20  A    between atoms: C22_29  and  N4_34
DOCKED: REMARK   21  A    between atoms: C23_30  and  C24_31
DOCKED: REMARK   22  A    between atoms: C25_35  and  O6_37
DOCKED: REMARK   23  A    between atoms: O6_37  and  C26_38
DOCKED: REMARK   24  A    between atoms: C26_38  and  C27_39
DOCKED: REMARK   25  A    between atoms: C26_38  and  C28_40
DOCKED: REMARK   26  A    between atoms: C26_38  and  C29_41
DOCKED: REMARK   27  A    between atoms: N5_44  and  C31_45
DOCKED: REMARK   28  A    between atoms: C31_45  and  C32_46
DOCKED: REMARK                            x       y       z     vdW  Elec       q    Type
DOCKED: REMARK                         _______ _______ _______ _____ _____    ______ ____
DOCKED: USER                              x       y       z     vdW  Elec       q    Type
DOCKED: USER                           _______ _______ _______ _____ _____    ______ ____
DOCKED: ROOT
DOCKED: ATOM      1  C10 UNL     1      16.064  -6.206  -4.463 +0.00 +0.00    +0.106 C  
DOCKED: ENDROOT
DOCKED: BRANCH   1   2
DOCKED: ATOM      2  N2  UNL     1      15.453  -5.622  -3.263 +0.00 -0.00    -0.308 N  
DOCKED: ATOM      3  C18 UNL     1      16.073  -4.801  -2.353 +0.00 +0.00    +0.233 C  
DOCKED: ATOM      4  O3  UNL     1      17.293  -4.627  -2.344 +0.00 -0.00    -0.274 OA 
DOCKED: ATOM      5  H26 UNL     1      14.442  -5.673  -3.189 +0.00 +0.00    +0.149 HD 
DOCKED: BRANCH   3   6
DOCKED: ATOM      6  C19 UNL     1      15.141  -4.095  -1.342 +0.00 +0.00    +0.156 C  
DOCKED: ATOM      7  C20 UNL     1      15.873  -3.830  -0.026 +0.00 +0.00    +0.038 C  
DOCKED: BRANCH   6   8
DOCKED: ATOM      8  N3  UNL     1      13.812  -4.690  -1.153 +0.00 -0.00    -0.303 N  
DOCKED: ATOM      9  C21 UNL     1      12.766  -4.594  -2.049 +0.00 +0.00    +0.234 C  
DOCKED: ATOM     10  O4  UNL     1      12.767  -3.794  -2.978 +0.00 -0.00    -0.274 OA 
DOCKED: ATOM     11  H31 UNL     1      13.722  -5.380  -0.405 +0.00 +0.00    +0.149 HD 
DOCKED: BRANCH   9  12
DOCKED: ATOM     12  C22 UNL     1      11.553  -5.481  -1.698 +0.00 +0.00    +0.167 C  
DOCKED: BRANCH  12  13
DOCKED: ATOM     13  N4  UNL     1      11.701  -6.730  -2.440 +0.00 -0.00    -0.270 N  
DOCKED: ATOM     14  C25 UNL     1      12.817  -7.502  -2.314 +0.00 +0.00    +0.401 C  
DOCKED: ATOM     15  O5  UNL     1      13.820  -7.153  -1.711 +0.00 -0.00    -0.226 OA 
DOCKED: ATOM     16  H36 UNL     1      10.877  -7.251  -2.727 +0.00 +0.00    +0.153 HD 
DOCKED: BRANCH  14  17
DOCKED: ATOM     17  O6  UNL     1      12.591  -8.701  -2.889 +0.00 -0.00    -0.445 OA 
DOCKED: BRANCH  17  18
DOCKED: ATOM     18  C26 UNL     1      12.079  -9.813  -2.109 +0.00 +0.00    +0.107 C  
DOCKED: ATOM     19  C27 UNL     1      12.574 -11.149  -2.676 +0.00 +0.00    +0.055 C  
DOCKED: ATOM     20  C28 UNL     1      12.417  -9.661  -0.622 +0.00 +0.00    +0.055 C  
DOCKED: ATOM     21  C29 UNL     1      10.552  -9.729  -2.276 +0.00 +0.00    +0.055 C  
DOCKED: ENDBRANCH  17  18
DOCKED: ENDBRANCH  14  17
DOCKED: ENDBRANCH  12  13
DOCKED: BRANCH  12  22
DOCKED: ATOM     22  C23 UNL     1      11.468  -5.740  -0.195 +0.00 +0.00    +0.103 C  
DOCKED: BRANCH  22  23
DOCKED: ATOM     23  C24 UNL     1      10.157  -6.394   0.175 +0.00 +0.00    +0.343 C  
DOCKED: ATOM     24  F1  UNL     1      10.383  -7.688   0.511 +0.00 -0.00    -0.209 F  
DOCKED: ATOM     25  F2  UNL     1       9.344  -6.410  -0.910 +0.00 -0.00    -0.209 F  
DOCKED: ENDBRANCH  22  23
DOCKED: ENDBRANCH  12  22
DOCKED: ENDBRANCH   9  12
DOCKED: ENDBRANCH   6   8
DOCKED: ENDBRANCH   3   6
DOCKED: ENDBRANCH   1   2
DOCKED: BRANCH   1  26
DOCKED: ATOM     26  C11 UNL     1      17.216  -7.154  -4.057 +0.00 +0.00    +0.060 C  
DOCKED: BRANCH  26  27
DOCKED: ATOM     27  C12 UNL     1      16.777  -8.261  -3.125 +0.00 -0.00    -0.046 A  
DOCKED: ATOM     28  C13 UNL     1      16.721  -8.045  -1.740 +0.00 +0.00    +0.004 A  
DOCKED: ATOM     29  C14 UNL     1      16.280  -9.055  -0.885 +0.00 +0.00    +0.000 A  
DOCKED: ATOM     30  C15 UNL     1      15.897 -10.289  -1.407 +0.00 +0.00    +0.000 A  
DOCKED: ATOM     31  C16 UNL     1      15.962 -10.518  -2.776 +0.00 +0.00    +0.000 A  
DOCKED: ATOM     32  C17 UNL     1      16.398  -9.509  -3.635 +0.00 +0.00    +0.004 A  
DOCKED: ENDBRANCH  26  27
DOCKED: ENDBRANCH   1  26
DOCKED: BRANCH   1  33
DOCKED: ATOM     33  C9  UNL     1      15.075  -6.870  -5.464 +0.00 +0.00    +0.136 C  
DOCKED: BRANCH  33  34
DOCKED: ATOM     34  O2  UNL     1      13.787  -7.052  -4.882 +0.00 -0.00    -0.390 OA 
DOCKED: ATOM     35  H17 UNL     1      13.920  -7.391  -3.969 +0.00 +0.00    +0.210 HD 
DOCKED: ENDBRANCH  33  34
DOCKED: BRANCH  33  36
DOCKED: ATOM     36  C8  UNL     1      14.942  -6.121  -6.806 +0.00 +0.00    +0.045 C  
DOCKED: BRANCH  36  37
DOCKED: ATOM     37  C6  UNL     1      14.374  -4.679  -6.686 +0.00 +0.00    +0.074 C  
DOCKED: ATOM     38  C7  UNL     1      14.877  -3.749  -7.793 +0.00 +0.00    +0.017 C  
DOCKED: BRANCH  37  40
DOCKED: ATOM     39  N1  UNL     1      12.345  -4.846  -5.355 +0.00 -0.00    -0.304 N  
DOCKED: ATOM     40  C5  UNL     1      12.846  -4.682  -6.629 +0.00 +0.00    +0.217 C  
DOCKED: ATOM     41  O1  UNL     1      12.147  -4.559  -7.632 +0.00 -0.00    -0.276 OA 
DOCKED: ATOM     42  H9  UNL     1      13.048  -5.036  -4.659 +0.00 +0.00    +0.149 HD 
DOCKED: BRANCH  39  43
DOCKED: ATOM     43  C4  UNL     1      11.023  -5.434  -5.070 +0.00 +0.00    +0.161 C  
DOCKED: BRANCH  43  44
DOCKED: ATOM     44  C30 UNL     1      10.787  -6.912  -5.519 +0.00 +0.00    +0.234 C  
DOCKED: ATOM     45  O7  UNL     1      10.475  -7.821  -4.748 +0.00 -0.00    -0.274 OA 
DOCKED: ATOM     46  N5  UNL     1      11.063  -7.138  -6.846 +0.00 -0.00    -0.310 N  
DOCKED: ATOM     47  H46 UNL     1      11.107  -6.321  -7.457 +0.00 +0.00    +0.149 HD 
DOCKED: BRANCH  46  48
DOCKED: ATOM     48  C31 UNL     1      11.140  -8.443  -7.443 +0.00 +0.00    +0.139 C  
DOCKED: BRANCH  48  49
DOCKED: ATOM     49  C32 UNL     1      12.467  -9.079  -7.116 +0.00 -0.00    -0.027 A  
DOCKED: ATOM     50  C33 UNL     1      13.555  -8.956  -7.987 +0.00 +0.00    +0.025 A  
DOCKED: ATOM     51  C34 UNL     1      14.769  -9.517  -7.613 +0.00 +0.00    +0.111 A  
DOCKED: ATOM     52  N6  UNL     1      14.971 -10.185  -6.457 +0.00 -0.00    -0.263 NA 
DOCKED: ATOM     53  C35 UNL     1      13.908 -10.283  -5.630 +0.00 +0.00    +0.111 A  
DOCKED: ATOM     54  C36 UNL     1      12.655  -9.755  -5.909 +0.00 +0.00    +0.025 A  
DOCKED: ENDBRANCH  48  49
DOCKED: ENDBRANCH  46  48
DOCKED: ENDBRANCH  43  44
DOCKED: BRANCH  43  56
DOCKED: ATOM     55  C1  UNL     1       8.493  -5.069  -5.253 +0.00 +0.00    +0.009 C  
DOCKED: ATOM     56  C2  UNL     1       9.882  -4.521  -5.616 +0.00 +0.00    +0.012 C  
DOCKED: ATOM     57  C3  UNL     1       9.996  -3.062  -5.152 +0.00 +0.00    +0.009 C  
DOCKED: ENDBRANCH  43  56
DOCKED: ENDBRANCH  39  43
DOCKED: ENDBRANCH  37  40
DOCKED: ENDBRANCH  36  37
DOCKED: ENDBRANCH  33  36
DOCKED: ENDBRANCH   1  33
DOCKED: TORSDOF 21
DOCKED: TER
DOCKED: ENDMDL
________________________________________________________________________________


    FINAL DOCKED STATE:
    ________________________


Run:   4 / 20
Time taken for this run:   1.475s

DOCKED: MODEL        4
DOCKED: USER    Run = 4
DOCKED: USER
DOCKED: USER    Estimated Free Energy of Binding    =  +6.26 kcal/mol  [=(1)+(2)+(3)-(4)]
DOCKED: USER
DOCKED: USER    (1) Final Intermolecular Energy     =  +0.00 kcal/mol
DOCKED: USER        vdW + Hbond + desolv Energy     =  +0.00 kcal/mol
DOCKED: USER        Electrostatic Energy            =  +0.00 kcal/mol
DOCKED: USER        Moving Ligand-Fixed Receptor    =  +0.00 kcal/mol
DOCKED: USER        Moving Ligand-Moving Receptor   =  +0.00 kcal/mol
DOCKED: USER    (2) Final Total Internal Energy     = -14.00 kcal/mol
DOCKED: USER    (3) Torsional Free Energy           =  +6.26 kcal/mol
DOCKED: USER    (4) Unbound System's Energy         = -14.00 kcal/mol
DOCKED: USER
DOCKED: USER
DOCKED: REMARK  Name = ligands/ligand_13.pdb
DOCKED: REMARK  28 active torsions:
DOCKED: REMARK  status: ('A' for Active; 'I' for Inactive)
DOCKED: REMARK    1  A    between atoms: C1_1  and  C2_2
DOCKED: REMARK    2  A    between atoms: C2_2  and  C3_3
DOCKED: REMARK    3  A    between atoms: C2_2  and  C4_4
DOCKED: REMARK    4  A    between atoms: C4_4  and  N1_5
DOCKED: REMARK    5  A    between atoms: C4_4  and  C30_42
DOCKED: REMARK    6  A    between atoms: C5_6  and  C6_8
DOCKED: REMARK    7  A    between atoms: C6_8  and  C7_9
DOCKED: REMARK    8  A    between atoms: C6_8  and  C8_10
DOCKED: REMARK    9  A    between atoms: C8_10  and  C9_11
DOCKED: REMARK   10  A    between atoms: C9_11  and  O2_12
DOCKED: REMARK   11  A    between atoms: C9_11  and  C10_13
DOCKED: REMARK   12  A    between atoms: C10_13  and  C11_14
DOCKED: REMARK   13  A    between atoms: C10_13  and  N2_21
DOCKED: REMARK   14  A    between atoms: C11_14  and  C12_15
DOCKED: REMARK   15  A    between atoms: C18_22  and  C19_24
DOCKED: REMARK   16  A    between atoms: C19_24  and  C20_25
DOCKED: REMARK   17  A    between atoms: C19_24  and  N3_26
DOCKED: REMARK   18  A    between atoms: C21_27  and  C22_29
DOCKED: REMARK   19  A    between atoms: C22_29  and  C23_30
DOCKED: REMARK   20  A    between atoms: C22_29  and  N4_34
DOCKED: REMARK   21  A    between atoms: C23_30  and  C24_31
DOCKED: REMARK   22  A    between atoms: C25_35  and  O6_37
DOCKED: REMARK   23  A    between atoms: O6_37  and  C26_38
DOCKED: REMARK   24  A    between atoms: C26_38  and  C27_39
DOCKED: REMARK   25  A    between atoms: C26_38  and  C28_40
DOCKED: REMARK   26  A    between atoms: C26_38  and  C29_41
DOCKED: REMARK   27  A    between atoms: N5_44  and  C31_45
DOCKED: REMARK   28  A    between atoms: C31_45  and  C32_46
DOCKED: REMARK                            x       y       z     vdW  Elec       q    Type
DOCKED: REMARK                         _______ _______ _______ _____ _____    ______ ____
DOCKED: USER                              x       y       z     vdW  Elec       q    Type
DOCKED: USER                           _______ _______ _______ _____ _____    ______ ____
DOCKED: ROOT
DOCKED: ATOM      1  C10 UNL     1      10.530  -8.072   2.293 +0.00 +0.00    +0.106 C  
DOCKED: ENDROOT
DOCKED: BRANCH   1   2
DOCKED: ATOM      2  N2  UNL     1      10.490  -6.888   3.158 +0.00 -0.00    -0.308 N  
DOCKED: ATOM      3  C18 UNL     1      10.909  -6.821   4.464 +0.00 +0.00    +0.233 C  
DOCKED: ATOM      4  O3  UNL     1      11.185  -7.825   5.122 +0.00 -0.00    -0.274 OA 
DOCKED: ATOM      5  H26 UNL     1      10.312  -5.995   2.709 +0.00 +0.00    +0.149 HD 
DOCKED: BRANCH   3   6
DOCKED: ATOM      6  C19 UNL     1      11.028  -5.399   5.059 +0.00 +0.00    +0.156 C  
DOCKED: ATOM      7  C20 UNL     1      10.688  -5.407   6.550 +0.00 +0.00    +0.038 C  
DOCKED: BRANCH   6   8
DOCKED: ATOM      8  N3  UNL     1      10.354  -4.323   4.320 +0.00 -0.00    -0.303 N  
DOCKED: ATOM      9  C21 UNL     1      10.724  -3.868   3.071 +0.00 +0.00    +0.234 C  
DOCKED: ATOM     10  O4  UNL     1      11.803  -4.149   2.561 +0.00 -0.00    -0.274 OA 
DOCKED: ATOM     11  H31 UNL     1       9.439  -4.033   4.669 +0.00 +0.00    +0.149 HD 
DOCKED: BRANCH   9  12
DOCKED: ATOM     12  C22 UNL     1       9.724  -2.875   2.441 +0.00 +0.00    +0.167 C  
DOCKED: BRANCH  12  13
DOCKED: ATOM     13  N4  UNL     1       8.846  -3.644   1.563 +0.00 -0.00    -0.270 N  
DOCKED: ATOM     14  C25 UNL     1       8.160  -4.730   2.021 +0.00 +0.00    +0.401 C  
DOCKED: ATOM     15  O5  UNL     1       8.332  -5.227   3.122 +0.00 -0.00    -0.226 OA 
DOCKED: ATOM     16  H36 UNL     1       8.411  -3.196   0.763 +0.00 +0.00    +0.153 HD 
DOCKED: BRANCH  14  17
DOCKED: ATOM     17  O6  UNL     1       7.241  -5.089   1.101 +0.00 -0.00    -0.445 OA 
DOCKED: BRANCH  17  18
DOCKED: ATOM     18  C26 UNL     1       5.898  -4.541   1.141 +0.00 +0.00    +0.107 C  
DOCKED: ATOM     19  C27 UNL     1       5.434  -4.341   2.588 +0.00 +0.00    +0.055 C  
DOCKED: ATOM     20  C28 UNL     1       5.791  -3.251   0.320 +0.00 +0.00    +0.055 C  
DOCKED: ATOM     21  C29 UNL     1       5.025  -5.620   0.476 +0.00 +0.00    +0.055 C  
DOCKED: ENDBRANCH  17  18
DOCKED: ENDBRANCH  14  17
DOCKED: ENDBRANCH  12  13
DOCKED: BRANCH  12  22
DOCKED: ATOM     22  C23 UNL     1       8.924  -2.136   3.511 +0.00 +0.00    +0.103 C  
DOCKED: BRANCH  22  23
DOCKED: ATOM     23  C24 UNL     1       8.053  -1.063   2.900 +0.00 +0.00    +0.343 C  
DOCKED: ATOM     24  F1  UNL     1       6.768  -1.496   2.866 +0.00 -0.00    -0.209 F  
DOCKED: ATOM     25  F2  UNL     1       8.429  -0.860   1.614 +0.00 -0.00    -0.209 F  
DOCKED: ENDBRANCH  22  23
DOCKED: ENDBRANCH  12  22
DOCKED: ENDBRANCH   9  12
DOCKED: ENDBRANCH   6   8
DOCKED: ENDBRANCH   3   6
DOCKED: ENDBRANCH   1   2
DOCKED: BRANCH   1  26
DOCKED: ATOM     26  C11 UNL     1       9.635  -9.185   2.886 +0.00 +0.00    +0.060 C  
DOCKED: BRANCH  26  27
DOCKED: ATOM     27  C12 UNL     1       8.208  -8.744   3.118 +0.00 -0.00    -0.046 A  
DOCKED: ATOM     28  C13 UNL     1       7.852  -8.077   4.300 +0.00 +0.00    +0.004 A  
DOCKED: ATOM     29  C14 UNL     1       6.543  -7.638   4.496 +0.00 +0.00    +0.000 A  
DOCKED: ATOM     30  C15 UNL     1       5.579  -7.863   3.514 +0.00 +0.00    +0.000 A  
DOCKED: ATOM     31  C16 UNL     1       5.919  -8.534   2.346 +0.00 +0.00    +0.000 A  
DOCKED: ATOM     32  C17 UNL     1       7.228  -8.972   2.143 +0.00 +0.00    +0.004 A  
DOCKED: ENDBRANCH  26  27
DOCKED: ENDBRANCH   1  26
DOCKED: BRANCH   1  33
DOCKED: ATOM     33  C9  UNL     1      10.234  -7.814   0.787 +0.00 +0.00    +0.136 C  
DOCKED: BRANCH  33  34
DOCKED: ATOM     34  O2  UNL     1       9.711  -6.505   0.575 +0.00 -0.00    -0.390 OA 
DOCKED: ATOM     35  H17 UNL     1       8.992  -6.364   1.230 +0.00 +0.00    +0.210 HD 
DOCKED: ENDBRANCH  33  34
DOCKED: BRANCH  33  36
DOCKED: ATOM     36  C8  UNL     1      11.443  -8.052  -0.141 +0.00 +0.00    +0.045 C  
DOCKED: BRANCH  36  37
DOCKED: ATOM     37  C6  UNL     1      12.618  -7.054   0.064 +0.00 +0.00    +0.074 C  
DOCKED: ATOM     38  C7  UNL     1      13.981  -7.665  -0.274 +0.00 +0.00    +0.017 C  
DOCKED: BRANCH  37  40
DOCKED: ATOM     39  N1  UNL     1      11.694  -4.805  -0.005 +0.00 -0.00    -0.304 N  
DOCKED: ATOM     40  C5  UNL     1      12.394  -5.758  -0.715 +0.00 +0.00    +0.217 C  
DOCKED: ATOM     41  O1  UNL     1      12.797  -5.600  -1.865 +0.00 -0.00    -0.276 OA 
DOCKED: ATOM     42  H9  UNL     1      11.347  -5.128   0.884 +0.00 +0.00    +0.149 HD 
DOCKED: BRANCH  39  43
DOCKED: ATOM     43  C4  UNL     1      10.875  -3.756  -0.639 +0.00 +0.00    +0.161 C  
DOCKED: BRANCH  43  44
DOCKED: ATOM     44  C30 UNL     1       9.659  -4.224  -1.503 +0.00 +0.00    +0.234 C  
DOCKED: ATOM     45  O7  UNL     1       8.486  -3.955  -1.238 +0.00 -0.00    -0.274 OA 
DOCKED: ATOM     46  N5  UNL     1      10.004  -5.061  -2.537 +0.00 -0.00    -0.310 N  
DOCKED: ATOM     47  H46 UNL     1      10.986  -5.068  -2.821 +0.00 +0.00    +0.149 HD 
DOCKED: BRANCH  46  48
DOCKED: ATOM     48  C31 UNL     1       9.058  -5.797  -3.329 +0.00 +0.00    +0.139 C  
DOCKED: BRANCH  48  49
DOCKED: ATOM     49  C32 UNL     1       8.552  -6.985  -2.550 +0.00 -0.00    -0.027 A  
DOCKED: ATOM     50  C33 UNL     1       9.187  -8.228  -2.647 +0.00 +0.00    +0.025 A  
DOCKED: ATOM     51  C34 UNL     1       8.712  -9.276  -1.868 +0.00 +0.00    +0.111 A  
DOCKED: ATOM     52  N6  UNL     1       7.666  -9.176  -1.020 +0.00 -0.00    -0.263 NA 
DOCKED: ATOM     53  C35 UNL     1       7.076  -7.965  -0.939 +0.00 +0.00    +0.111 A  
DOCKED: ATOM     54  C36 UNL     1       7.477  -6.855  -1.671 +0.00 +0.00    +0.025 A  
DOCKED: ENDBRANCH  48  49
DOCKED: ENDBRANCH  46  48
DOCKED: ENDBRANCH  43  44
DOCKED: BRANCH  43  56
DOCKED: ATOM     55  C1  UNL     1      10.924  -1.816  -2.313 +0.00 +0.00    +0.009 C  
DOCKED: ATOM     56  C2  UNL     1      11.769  -2.777  -1.462 +0.00 +0.00    +0.012 C  
DOCKED: ATOM     57  C3  UNL     1      12.747  -1.972  -0.594 +0.00 +0.00    +0.009 C  
DOCKED: ENDBRANCH  43  56
DOCKED: ENDBRANCH  39  43
DOCKED: ENDBRANCH  37  40
DOCKED: ENDBRANCH  36  37
DOCKED: ENDBRANCH  33  36
DOCKED: ENDBRANCH   1  33
DOCKED: TORSDOF 21
DOCKED: TER
DOCKED: ENDMDL
________________________________________________________________________________


    FINAL DOCKED STATE:
    ________________________


Run:   5 / 20
Time taken for this run:   1.475s

DOCKED: MODEL        5
DOCKED: USER    Run = 5
DOCKED: USER
DOCKED: USER    Estimated Free Energy of Binding    =  +6.26 kcal/mol  [=(1)+(2)+(3)-(4)]
DOCKED: USER
DOCKED: USER    (1) Final Intermolecular Energy     =  +0.00 kcal/mol
DOCKED: USER        vdW + Hbond + desolv Energy     =  +0.00 kcal/mol
DOCKED: USER        Electrostatic Energy            =  +0.00 kcal/mol
DOCKED: USER        Moving Ligand-Fixed Receptor    =  +0.00 kcal/mol
DOCKED: USER        Moving Ligand-Moving Receptor   =  +0.00 kcal/mol
DOCKED: USER    (2) Final Total Internal Energy     = -14.01 kcal/mol
DOCKED: USER    (3) Torsional Free Energy           =  +6.26 kcal/mol
DOCKED: USER    (4) Unbound System's Energy         = -14.01 kcal/mol
DOCKED: USER
DOCKED: USER
DOCKED: REMARK  Name = ligands/ligand_13.pdb
DOCKED: REMARK  28 active torsions:
DOCKED: REMARK  status: ('A' for Active; 'I' for Inactive)
DOCKED: REMARK    1  A    between atoms: C1_1  and  C2_2
DOCKED: REMARK    2  A    between atoms: C2_2  and  C3_3
DOCKED: REMARK    3  A    between atoms: C2_2  and  C4_4
DOCKED: REMARK    4  A    between atoms: C4_4  and  N1_5
DOCKED: REMARK    5  A    between atoms: C4_4  and  C30_42
DOCKED: REMARK    6  A    between atoms: C5_6  and  C6_8
DOCKED: REMARK    7  A    between atoms: C6_8  and  C7_9
DOCKED: REMARK    8  A    between atoms: C6_8  and  C8_10
DOCKED: REMARK    9  A    between atoms: C8_10  and  C9_11
DOCKED: REMARK   10  A    between atoms: C9_11  and  O2_12
DOCKED: REMARK   11  A    between atoms: C9_11  and  C10_13
DOCKED: REMARK   12  A    between atoms: C10_13  and  C11_14
DOCKED: REMARK   13  A    between atoms: C10_13  and  N2_21
DOCKED: REMARK   14  A    between atoms: C11_14  and  C12_15
DOCKED: REMARK   15  A    between atoms: C18_22  and  C19_24
DOCKED: REMARK   16  A    between atoms: C19_24  and  C20_25
DOCKED: REMARK   17  A    between atoms: C19_24  and  N3_26
DOCKED: REMARK   18  A    between atoms: C21_27  and  C22_29
DOCKED: REMARK   19  A    between atoms: C22_29  and  C23_30
DOCKED: REMARK   20  A    between atoms: C22_29  and  N4_34
DOCKED: REMARK   21  A    between atoms: C23_30  and  C24_31
DOCKED: REMARK   22  A    between atoms: C25_35  and  O6_37
DOCKED: REMARK   23  A    between atoms: O6_37  and  C26_38
DOCKED: REMARK   24  A    between atoms: C26_38  and  C27_39
DOCKED: REMARK   25  A    between atoms: C26_38  and  C28_40
DOCKED: REMARK   26  A    between atoms: C26_38  and  C29_41
DOCKED: REMARK   27  A    between atoms: N5_44  and  C31_45
DOCKED: REMARK   28  A    between atoms: C31_45  and  C32_46
DOCKED: REMARK                            x       y       z     vdW  Elec       q    Type
DOCKED: REMARK                         _______ _______ _______ _____ _____    ______ ____
DOCKED: USER                              x       y       z     vdW  Elec       q    Type
DOCKED: USER                           _______ _______ _______ _____ _____    ______ ____
DOCKED: ROOT
DOCKED: ATOM      1  C10 UNL     1      11.013  -9.457  -0.383 +0.00 +0.00    +0.106 C  
DOCKED: ENDROOT
DOCKED: BRANCH   1   2
DOCKED: ATOM      2  N2  UNL     1      11.365  -8.042  -0.552 +0.00 -0.00    -0.308 N  
DOCKED: ATOM      3  C18 UNL     1      10.726  -7.138  -1.364 +0.00 +0.00    +0.233 C  
DOCKED: ATOM      4  O3  UNL     1       9.894  -7.479  -2.207 +0.00 -0.00    -0.274 OA 
DOCKED: ATOM      5  H26 UNL     1      12.014  -7.646   0.120 +0.00 +0.00    +0.149 HD 
DOCKED: BRANCH   3   6
DOCKED: ATOM      6  C19 UNL     1      11.106  -5.656  -1.147 +0.00 +0.00    +0.156 C  
DOCKED: ATOM      7  C20 UNL     1      10.974  -4.867  -2.451 +0.00 +0.00    +0.038 C  
DOCKED: BRANCH   6   8
DOCKED: ATOM      8  N3  UNL     1      12.371  -5.401  -0.446 +0.00 -0.00    -0.303 N  
DOCKED: ATOM      9  C21 UNL     1      12.585  -5.610   0.902 +0.00 +0.00    +0.234 C  
DOCKED: ATOM     10  O4  UNL     1      11.667  -5.795   1.694 +0.00 -0.00    -0.274 OA 
DOCKED: ATOM     11  H31 UNL     1      13.195  -5.248  -1.029 +0.00 +0.00    +0.149 HD 
DOCKED: BRANCH   9  12
DOCKED: ATOM     12  C22 UNL     1      14.058  -5.457   1.337 +0.00 +0.00    +0.167 C  
DOCKED: BRANCH  12  13
DOCKED: ATOM     13  N4  UNL     1      14.651  -6.791   1.333 +0.00 -0.00    -0.270 N  
DOCKED: ATOM     14  C25 UNL     1      14.615  -7.581   0.222 +0.00 +0.00    +0.401 C  
DOCKED: ATOM     15  O5  UNL     1      13.973  -7.313  -0.781 +0.00 -0.00    -0.226 OA 
DOCKED: ATOM     16  H36 UNL     1      15.422  -7.006   1.958 +0.00 +0.00    +0.153 HD 
DOCKED: BRANCH  14  17
DOCKED: ATOM     17  O6  UNL     1      15.445  -8.629   0.399 +0.00 -0.00    -0.445 OA 
DOCKED: BRANCH  17  18
DOCKED: ATOM     18  C26 UNL     1      16.811  -8.585  -0.090 +0.00 +0.00    +0.107 C  
DOCKED: ATOM     19  C27 UNL     1      17.305  -9.991  -0.452 +0.00 +0.00    +0.055 C  
DOCKED: ATOM     20  C28 UNL     1      16.959  -7.606  -1.259 +0.00 +0.00    +0.055 C  
DOCKED: ATOM     21  C29 UNL     1      17.628  -8.055   1.101 +0.00 +0.00    +0.055 C  
DOCKED: ENDBRANCH  17  18
DOCKED: ENDBRANCH  14  17
DOCKED: ENDBRANCH  12  13
DOCKED: BRANCH  12  22
DOCKED: ATOM     22  C23 UNL     1      14.818  -4.514   0.406 +0.00 +0.00    +0.103 C  
DOCKED: BRANCH  22  23
DOCKED: ATOM     23  C24 UNL     1      16.208  -4.231   0.930 +0.00 +0.00    +0.343 C  
DOCKED: ATOM     24  F1  UNL     1      17.110  -4.935   0.202 +0.00 -0.00    -0.209 F  
DOCKED: ATOM     25  F2  UNL     1      16.304  -4.676   2.206 +0.00 -0.00    -0.209 F  
DOCKED: ENDBRANCH  22  23
DOCKED: ENDBRANCH  12  22
DOCKED: ENDBRANCH   9  12
DOCKED: ENDBRANCH   6   8
DOCKED: ENDBRANCH   3   6
DOCKED: ENDBRANCH   1   2
DOCKED: BRANCH   1  26
DOCKED: ATOM     26  C11 UNL     1      11.147 -10.195  -1.735 +0.00 +0.00    +0.060 C  
DOCKED: BRANCH  26  27
DOCKED: ATOM     27  C12 UNL     1      12.535 -10.109  -2.328 +0.00 -0.00    -0.046 A  
DOCKED: ATOM     28  C13 UNL     1      12.917  -8.991  -3.085 +0.00 +0.00    +0.004 A  
DOCKED: ATOM     29  C14 UNL     1      14.210  -8.896  -3.600 +0.00 +0.00    +0.000 A  
DOCKED: ATOM     30  C15 UNL     1      15.129  -9.917  -3.366 +0.00 +0.00    +0.000 A  
DOCKED: ATOM     31  C16 UNL     1      14.756 -11.034  -2.629 +0.00 +0.00    +0.000 A  
DOCKED: ATOM     32  C17 UNL     1      13.466 -11.132  -2.108 +0.00 +0.00    +0.004 A  
DOCKED: ENDBRANCH  26  27
DOCKED: ENDBRANCH   1  26
DOCKED: BRANCH   1  33
DOCKED: ATOM     33  C9  UNL     1      11.748 -10.198   0.772 +0.00 +0.00    +0.136 C  
DOCKED: BRANCH  33  34
DOCKED: ATOM     34  O2  UNL     1      12.842  -9.433   1.270 +0.00 -0.00    -0.390 OA 
DOCKED: ATOM     35  H17 UNL     1      13.343  -9.093   0.495 +0.00 +0.00    +0.210 HD 
DOCKED: ENDBRANCH  33  34
DOCKED: BRANCH  33  36
DOCKED: ATOM     36  C8  UNL     1      10.828 -10.616   1.937 +0.00 +0.00    +0.045 C  
DOCKED: BRANCH  36  37
DOCKED: ATOM     37  C6  UNL     1      10.158  -9.429   2.686 +0.00 +0.00    +0.074 C  
DOCKED: ATOM     38  C7  UNL     1       8.796  -9.796   3.281 +0.00 +0.00    +0.017 C  
DOCKED: BRANCH  37  40
DOCKED: ATOM     39  N1  UNL     1      11.942  -7.885   3.276 +0.00 -0.00    -0.304 N  
DOCKED: ATOM     40  C5  UNL     1      11.083  -8.850   3.756 +0.00 +0.00    +0.217 C  
DOCKED: ATOM     41  O1  UNL     1      11.056  -9.225   4.926 +0.00 -0.00    -0.276 OA 
DOCKED: ATOM     42  H9  UNL     1      11.908  -7.766   2.276 +0.00 +0.00    +0.149 HD 
DOCKED: BRANCH  39  43
DOCKED: ATOM     43  C4  UNL     1      13.250  -7.583   3.886 +0.00 +0.00    +0.161 C  
DOCKED: BRANCH  43  44
DOCKED: ATOM     44  C30 UNL     1      14.318  -8.725   3.888 +0.00 +0.00    +0.234 C  
DOCKED: ATOM     45  O7  UNL     1      15.414  -8.640   3.331 +0.00 -0.00    -0.274 OA 
DOCKED: ATOM     46  N5  UNL     1      13.884  -9.887   4.481 +0.00 -0.00    -0.310 N  
DOCKED: ATOM     47  H46 UNL     1      13.070  -9.820   5.094 +0.00 +0.00    +0.149 HD 
DOCKED: BRANCH  46  48
DOCKED: ATOM     48  C31 UNL     1      14.587 -11.138   4.412 +0.00 +0.00    +0.139 C  
DOCKED: BRANCH  48  49
DOCKED: ATOM     49  C32 UNL     1      14.368 -11.776   3.064 +0.00 -0.00    -0.027 A  
DOCKED: ATOM     50  C33 UNL     1      13.336 -12.700   2.867 +0.00 +0.00    +0.025 A  
DOCKED: ATOM     51  C34 UNL     1      13.145 -13.218   1.592 +0.00 +0.00    +0.111 A  
DOCKED: ATOM     52  N6  UNL     1      13.900 -12.891   0.521 +0.00 -0.00    -0.263 NA 
DOCKED: ATOM     53  C35 UNL     1      14.884 -11.992   0.735 +0.00 +0.00    +0.111 A  
DOCKED: ATOM     54  C36 UNL     1      15.154 -11.414   1.968 +0.00 +0.00    +0.025 A  
DOCKED: ENDBRANCH  48  49
DOCKED: ENDBRANCH  46  48
DOCKED: ENDBRANCH  43  44
DOCKED: BRANCH  43  56
DOCKED: ATOM     55  C1  UNL     1      14.414  -6.906   6.066 +0.00 +0.00    +0.009 C  
DOCKED: ATOM     56  C2  UNL     1      13.071  -7.017   5.329 +0.00 +0.00    +0.012 C  
DOCKED: ATOM     57  C3  UNL     1      12.351  -5.661   5.364 +0.00 +0.00    +0.009 C  
DOCKED: ENDBRANCH  43  56
DOCKED: ENDBRANCH  39  43
DOCKED: ENDBRANCH  37  40
DOCKED: ENDBRANCH  36  37
DOCKED: ENDBRANCH  33  36
DOCKED: ENDBRANCH   1  33
DOCKED: TORSDOF 21
DOCKED: TER
DOCKED: ENDMDL
________________________________________________________________________________


    FINAL DOCKED STATE:
    ________________________


Run:   6 / 20
Time taken for this run:   1.475s

DOCKED: MODEL        6
DOCKED: USER    Run = 6
DOCKED: USER
DOCKED: USER    Estimated Free Energy of Binding    =  +6.26 kcal/mol  [=(1)+(2)+(3)-(4)]
DOCKED: USER
DOCKED: USER    (1) Final Intermolecular Energy     =  +0.00 kcal/mol
DOCKED: USER        vdW + Hbond + desolv Energy     =  +0.00 kcal/mol
DOCKED: USER        Electrostatic Energy            =  +0.00 kcal/mol
DOCKED: USER        Moving Ligand-Fixed Receptor    =  +0.00 kcal/mol
DOCKED: USER        Moving Ligand-Moving Receptor   =  +0.00 kcal/mol
DOCKED: USER    (2) Final Total Internal Energy     = -14.01 kcal/mol
DOCKED: USER    (3) Torsional Free Energy           =  +6.26 kcal/mol
DOCKED: USER    (4) Unbound System's Energy         = -14.01 kcal/mol
DOCKED: USER
DOCKED: USER
DOCKED: REMARK  Name = ligands/ligand_13.pdb
DOCKED: REMARK  28 active torsions:
DOCKED: REMARK  status: ('A' for Active; 'I' for Inactive)
DOCKED: REMARK    1  A    between atoms: C1_1  and  C2_2
DOCKED: REMARK    2  A    between atoms: C2_2  and  C3_3
DOCKED: REMARK    3  A    between atoms: C2_2  and  C4_4
DOCKED: REMARK    4  A    between atoms: C4_4  and  N1_5
DOCKED: REMARK    5  A    between atoms: C4_4  and  C30_42
DOCKED: REMARK    6  A    between atoms: C5_6  and  C6_8
DOCKED: REMARK    7  A    between atoms: C6_8  and  C7_9
DOCKED: REMARK    8  A    between atoms: C6_8  and  C8_10
DOCKED: REMARK    9  A    between atoms: C8_10  and  C9_11
DOCKED: REMARK   10  A    between atoms: C9_11  and  O2_12
DOCKED: REMARK   11  A    between atoms: C9_11  and  C10_13
DOCKED: REMARK   12  A    between atoms: C10_13  and  C11_14
DOCKED: REMARK   13  A    between atoms: C10_13  and  N2_21
DOCKED: REMARK   14  A    between atoms: C11_14  and  C12_15
DOCKED: REMARK   15  A    between atoms: C18_22  and  C19_24
DOCKED: REMARK   16  A    between atoms: C19_24  and  C20_25
DOCKED: REMARK   17  A    between atoms: C19_24  and  N3_26
DOCKED: REMARK   18  A    between atoms: C21_27  and  C22_29
DOCKED: REMARK   19  A    between atoms: C22_29  and  C23_30
DOCKED: REMARK   20  A    between atoms: C22_29  and  N4_34
DOCKED: REMARK   21  A    between atoms: C23_30  and  C24_31
DOCKED: REMARK   22  A    between atoms: C25_35  and  O6_37
DOCKED: REMARK   23  A    between atoms: O6_37  and  C26_38
DOCKED: REMARK   24  A    between atoms: C26_38  and  C27_39
DOCKED: REMARK   25  A    between atoms: C26_38  and  C28_40
DOCKED: REMARK   26  A    between atoms: C26_38  and  C29_41
DOCKED: REMARK   27  A    between atoms: N5_44  and  C31_45
DOCKED: REMARK   28  A    between atoms: C31_45  and  C32_46
DOCKED: REMARK                            x       y       z     vdW  Elec       q    Type
DOCKED: REMARK                         _______ _______ _______ _____ _____    ______ ____
DOCKED: USER                              x       y       z     vdW  Elec       q    Type
DOCKED: USER                           _______ _______ _______ _____ _____    ______ ____
DOCKED: ROOT
DOCKED: ATOM      1  C10 UNL     1      13.517  -6.855  -0.503 +0.00 +0.00    +0.106 C  
DOCKED: ENDROOT
DOCKED: BRANCH   1   2
DOCKED: ATOM      2  N2  UNL     1      14.489  -6.224   0.397 +0.00 -0.00    -0.308 N  
DOCKED: ATOM      3  C18 UNL     1      15.676  -6.770   0.820 +0.00 +0.00    +0.233 C  
DOCKED: ATOM      4  O3  UNL     1      15.960  -7.955   0.642 +0.00 -0.00    -0.274 OA 
DOCKED: ATOM      5  H26 UNL     1      14.372  -5.233   0.579 +0.00 +0.00    +0.149 HD 
DOCKED: BRANCH   3   6
DOCKED: ATOM      6  C19 UNL     1      16.647  -5.797   1.528 +0.00 +0.00    +0.156 C  
DOCKED: ATOM      7  C20 UNL     1      17.506  -6.540   2.551 +0.00 +0.00    +0.038 C  
DOCKED: BRANCH   6   8
DOCKED: ATOM      8  N3  UNL     1      16.060  -4.559   2.059 +0.00 -0.00    -0.303 N  
DOCKED: ATOM      9  C21 UNL     1      15.707  -3.461   1.301 +0.00 +0.00    +0.234 C  
DOCKED: ATOM     10  O4  UNL     1      16.078  -3.315   0.141 +0.00 -0.00    -0.274 OA 
DOCKED: ATOM     11  H31 UNL     1      15.712  -4.593   3.019 +0.00 +0.00    +0.149 HD 
DOCKED: BRANCH   9  12
DOCKED: ATOM     12  C22 UNL     1      14.926  -2.382   2.081 +0.00 +0.00    +0.167 C  
DOCKED: BRANCH  12  13
DOCKED: ATOM     13  N4  UNL     1      13.505  -2.637   1.864 +0.00 -0.00    -0.270 N  
DOCKED: ATOM     14  C25 UNL     1      12.938  -3.830   2.201 +0.00 +0.00    +0.401 C  
DOCKED: ATOM     15  O5  UNL     1      13.576  -4.808   2.556 +0.00 -0.00    -0.226 OA 
DOCKED: ATOM     16  H36 UNL     1      12.846  -1.863   1.855 +0.00 +0.00    +0.153 HD 
DOCKED: BRANCH  14  17
DOCKED: ATOM     17  O6  UNL     1      11.596  -3.712   2.145 +0.00 -0.00    -0.445 OA 
DOCKED: BRANCH  17  18
DOCKED: ATOM     18  C26 UNL     1      10.846  -3.225   3.288 +0.00 +0.00    +0.107 C  
DOCKED: ATOM     19  C27 UNL     1      10.755  -1.695   3.268 +0.00 +0.00    +0.055 C  
DOCKED: ATOM     20  C28 UNL     1       9.464  -3.881   3.375 +0.00 +0.00    +0.055 C  
DOCKED: ATOM     21  C29 UNL     1      11.676  -3.665   4.506 +0.00 +0.00    +0.055 C  
DOCKED: ENDBRANCH  17  18
DOCKED: ENDBRANCH  14  17
DOCKED: ENDBRANCH  12  13
DOCKED: BRANCH  12  22
DOCKED: ATOM     22  C23 UNL     1      15.271  -2.410   3.568 +0.00 +0.00    +0.103 C  
DOCKED: BRANCH  22  23
DOCKED: ATOM     23  C24 UNL     1      14.742  -1.184   4.276 +0.00 +0.00    +0.343 C  
DOCKED: ATOM     24  F1  UNL     1      13.801  -1.560   5.177 +0.00 -0.00    -0.209 F  
DOCKED: ATOM     25  F2  UNL     1      14.122  -0.381   3.377 +0.00 -0.00    -0.209 F  
DOCKED: ENDBRANCH  22  23
DOCKED: ENDBRANCH  12  22
DOCKED: ENDBRANCH   9  12
DOCKED: ENDBRANCH   6   8
DOCKED: ENDBRANCH   3   6
DOCKED: ENDBRANCH   1   2
DOCKED: BRANCH   1  26
DOCKED: ATOM     26  C11 UNL     1      12.901  -8.099   0.178 +0.00 +0.00    +0.060 C  
DOCKED: BRANCH  26  27
DOCKED: ATOM     27  C12 UNL     1      12.251  -7.792   1.508 +0.00 -0.00    -0.046 A  
DOCKED: ATOM     28  C13 UNL     1      13.015  -7.763   2.684 +0.00 +0.00    +0.004 A  
DOCKED: ATOM     29  C14 UNL     1      12.420  -7.443   3.904 +0.00 +0.00    +0.000 A  
DOCKED: ATOM     30  C15 UNL     1      11.058  -7.152   3.959 +0.00 +0.00    +0.000 A  
DOCKED: ATOM     31  C16 UNL     1      10.290  -7.190   2.801 +0.00 +0.00    +0.000 A  
DOCKED: ATOM     32  C17 UNL     1      10.881  -7.506   1.578 +0.00 +0.00    +0.004 A  
DOCKED: ENDBRANCH  26  27
DOCKED: ENDBRANCH   1  26
DOCKED: BRANCH   1  33
DOCKED: ATOM     33  C9  UNL     1      12.433  -5.906  -1.092 +0.00 +0.00    +0.136 C  
DOCKED: BRANCH  33  34
DOCKED: ATOM     34  O2  UNL     1      12.404  -4.657  -0.405 +0.00 -0.00    -0.390 OA 
DOCKED: ATOM     35  H17 UNL     1      12.494  -4.846   0.556 +0.00 +0.00    +0.210 HD 
DOCKED: ENDBRANCH  33  34
DOCKED: BRANCH  33  36
DOCKED: ATOM     36  C8  UNL     1      12.565  -5.665  -2.610 +0.00 +0.00    +0.045 C  
DOCKED: BRANCH  36  37
DOCKED: ATOM     37  C6  UNL     1      13.878  -4.947  -3.036 +0.00 +0.00    +0.074 C  
DOCKED: ATOM     38  C7  UNL     1      14.319  -5.313  -4.456 +0.00 +0.00    +0.017 C  
DOCKED: BRANCH  37  40
DOCKED: ATOM     39  N1  UNL     1      14.100  -2.988  -1.612 +0.00 -0.00    -0.304 N  
DOCKED: ATOM     40  C5  UNL     1      13.765  -3.432  -2.874 +0.00 +0.00    +0.217 C  
DOCKED: ATOM     41  O1  UNL     1      13.400  -2.695  -3.787 +0.00 -0.00    -0.276 OA 
DOCKED: ATOM     42  H9  UNL     1      14.277  -3.727  -0.951 +0.00 +0.00    +0.149 HD 
DOCKED: BRANCH  39  43
DOCKED: ATOM     43  C4  UNL     1      13.570  -1.747  -1.018 +0.00 +0.00    +0.161 C  
DOCKED: BRANCH  43  44
DOCKED: ATOM     44  C30 UNL     1      12.023  -1.657  -0.815 +0.00 +0.00    +0.234 C  
DOCKED: ATOM     45  O7  UNL     1      11.484  -1.482   0.279 +0.00 -0.00    -0.274 OA 
DOCKED: ATOM     46  N5  UNL     1      11.299  -1.898  -1.958 +0.00 -0.00    -0.310 N  
DOCKED: ATOM     47  H46 UNL     1      11.797  -1.825  -2.847 +0.00 +0.00    +0.149 HD 
DOCKED: BRANCH  46  48
DOCKED: ATOM     48  C31 UNL     1       9.876  -2.093  -1.985 +0.00 +0.00    +0.139 C  
DOCKED: BRANCH  48  49
DOCKED: ATOM     49  C32 UNL     1       9.539  -3.486  -1.518 +0.00 -0.00    -0.027 A  
DOCKED: ATOM     50  C33 UNL     1       9.399  -4.535  -2.434 +0.00 +0.00    +0.025 A  
DOCKED: ATOM     51  C34 UNL     1       9.141  -5.810  -1.946 +0.00 +0.00    +0.111 A  
DOCKED: ATOM     52  N6  UNL     1       9.009  -6.107  -0.635 +0.00 -0.00    -0.263 NA 
DOCKED: ATOM     53  C35 UNL     1       9.157  -5.080   0.228 +0.00 +0.00    +0.111 A  
DOCKED: ATOM     54  C36 UNL     1       9.420  -3.772  -0.157 +0.00 +0.00    +0.025 A  
DOCKED: ENDBRANCH  48  49
DOCKED: ENDBRANCH  46  48
DOCKED: ENDBRANCH  43  44
DOCKED: BRANCH  43  56
DOCKED: ATOM     55  C1  UNL     1      13.528   0.808  -1.207 +0.00 +0.00    +0.009 C  
DOCKED: ATOM     56  C2  UNL     1      14.079  -0.497  -1.801 +0.00 +0.00    +0.012 C  
DOCKED: ATOM     57  C3  UNL     1      15.610  -0.417  -1.887 +0.00 +0.00    +0.009 C  
DOCKED: ENDBRANCH  43  56
DOCKED: ENDBRANCH  39  43
DOCKED: ENDBRANCH  37  40
DOCKED: ENDBRANCH  36  37
DOCKED: ENDBRANCH  33  36
DOCKED: ENDBRANCH   1  33
DOCKED: TORSDOF 21
DOCKED: TER
DOCKED: ENDMDL
________________________________________________________________________________


    FINAL DOCKED STATE:
    ________________________


Run:   7 / 20
Time taken for this run:   1.475s

DOCKED: MODEL        7
DOCKED: USER    Run = 7
DOCKED: USER
DOCKED: USER    Estimated Free Energy of Binding    =  +6.26 kcal/mol  [=(1)+(2)+(3)-(4)]
DOCKED: USER
DOCKED: USER    (1) Final Intermolecular Energy     =  +0.00 kcal/mol
DOCKED: USER        vdW + Hbond + desolv Energy     =  +0.00 kcal/mol
DOCKED: USER        Electrostatic Energy            =  +0.00 kcal/mol
DOCKED: USER        Moving Ligand-Fixed Receptor    =  +0.00 kcal/mol
DOCKED: USER        Moving Ligand-Moving Receptor   =  +0.00 kcal/mol
DOCKED: USER    (2) Final Total Internal Energy     = -14.01 kcal/mol
DOCKED: USER    (3) Torsional Free Energy           =  +6.26 kcal/mol
DOCKED: USER    (4) Unbound System's Energy         = -14.01 kcal/mol
DOCKED: USER
DOCKED: USER
DOCKED: REMARK  Name = ligands/ligand_13.pdb
DOCKED: REMARK  28 active torsions:
DOCKED: REMARK  status: ('A' for Active; 'I' for Inactive)
DOCKED: REMARK    1  A    between atoms: C1_1  and  C2_2
DOCKED: REMARK    2  A    between atoms: C2_2  and  C3_3
DOCKED: REMARK    3  A    between atoms: C2_2  and  C4_4
DOCKED: REMARK    4  A    between atoms: C4_4  and  N1_5
DOCKED: REMARK    5  A    between atoms: C4_4  and  C30_42
DOCKED: REMARK    6  A    between atoms: C5_6  and  C6_8
DOCKED: REMARK    7  A    between atoms: C6_8  and  C7_9
DOCKED: REMARK    8  A    between atoms: C6_8  and  C8_10
DOCKED: REMARK    9  A    between atoms: C8_10  and  C9_11
DOCKED: REMARK   10  A    between atoms: C9_11  and  O2_12
DOCKED: REMARK   11  A    between atoms: C9_11  and  C10_13
DOCKED: REMARK   12  A    between atoms: C10_13  and  C11_14
DOCKED: REMARK   13  A    between atoms: C10_13  and  N2_21
DOCKED: REMARK   14  A    between atoms: C11_14  and  C12_15
DOCKED: REMARK   15  A    between atoms: C18_22  and  C19_24
DOCKED: REMARK   16  A    between atoms: C19_24  and  C20_25
DOCKED: REMARK   17  A    between atoms: C19_24  and  N3_26
DOCKED: REMARK   18  A    between atoms: C21_27  and  C22_29
DOCKED: REMARK   19  A    between atoms: C22_29  and  C23_30
DOCKED: REMARK   20  A    between atoms: C22_29  and  N4_34
DOCKED: REMARK   21  A    between atoms: C23_30  and  C24_31
DOCKED: REMARK   22  A    between atoms: C25_35  and  O6_37
DOCKED: REMARK   23  A    between atoms: O6_37  and  C26_38
DOCKED: REMARK   24  A    between atoms: C26_38  and  C27_39
DOCKED: REMARK   25  A    between atoms: C26_38  and  C28_40
DOCKED: REMARK   26  A    between atoms: C26_38  and  C29_41
DOCKED: REMARK   27  A    between atoms: N5_44  and  C31_45
DOCKED: REMARK   28  A    between atoms: C31_45  and  C32_46
DOCKED: REMARK                            x       y       z     vdW  Elec       q    Type
DOCKED: REMARK                         _______ _______ _______ _____ _____    ______ ____
DOCKED: USER                              x       y       z     vdW  Elec       q    Type
DOCKED: USER                           _______ _______ _______ _____ _____    ______ ____
DOCKED: ROOT
DOCKED: ATOM      1  C10 UNL     1      13.552   1.422  -5.106 +0.00 +0.00    +0.106 C  
DOCKED: ENDROOT
DOCKED: BRANCH   1   2
DOCKED: ATOM      2  N2  UNL     1      14.028   0.995  -3.785 +0.00 -0.00    -0.308 N  
DOCKED: ATOM      3  C18 UNL     1      13.454   1.304  -2.576 +0.00 +0.00    +0.233 C  
DOCKED: ATOM      4  O3  UNL     1      12.573   2.157  -2.462 +0.00 -0.00    -0.274 OA 
DOCKED: ATOM      5  H26 UNL     1      14.729   0.261  -3.763 +0.00 +0.00    +0.149 HD 
DOCKED: BRANCH   3   6
DOCKED: ATOM      6  C19 UNL     1      13.975   0.502  -1.362 +0.00 +0.00    +0.156 C  
DOCKED: ATOM      7  C20 UNL     1      13.806   1.304  -0.072 +0.00 +0.00    +0.038 C  
DOCKED: BRANCH   6   8
DOCKED: ATOM      8  N3  UNL     1      15.310  -0.096  -1.498 +0.00 -0.00    -0.303 N  
DOCKED: ATOM      9  C21 UNL     1      15.592  -1.256  -2.190 +0.00 +0.00    +0.234 C  
DOCKED: ATOM     10  O4  UNL     1      14.717  -2.036  -2.552 +0.00 -0.00    -0.274 OA 
DOCKED: ATOM     11  H31 UNL     1      16.103   0.490  -1.230 +0.00 +0.00    +0.149 HD 
DOCKED: BRANCH   9  12
DOCKED: ATOM     12  C22 UNL     1      17.099  -1.547  -2.346 +0.00 +0.00    +0.167 C  
DOCKED: BRANCH  12  13
DOCKED: ATOM     13  N4  UNL     1      17.509  -1.021  -3.645 +0.00 -0.00    -0.270 N  
DOCKED: ATOM     14  C25 UNL     1      17.326   0.291  -3.969 +0.00 +0.00    +0.401 C  
DOCKED: ATOM     15  O5  UNL     1      16.687   1.076  -3.286 +0.00 -0.00    -0.226 OA 
DOCKED: ATOM     16  H36 UNL     1      18.268  -1.462  -4.155 +0.00 +0.00    +0.153 HD 
DOCKED: BRANCH  14  17
DOCKED: ATOM     17  O6  UNL     1      18.016   0.567  -5.094 +0.00 -0.00    -0.445 OA 
DOCKED: BRANCH  17  18
DOCKED: ATOM     18  C26 UNL     1      19.426   0.902  -5.037 +0.00 +0.00    +0.107 C  
DOCKED: ATOM     19  C27 UNL     1      20.290  -0.364  -5.100 +0.00 +0.00    +0.055 C  
DOCKED: ATOM     20  C28 UNL     1      19.810   1.913  -6.123 +0.00 +0.00    +0.055 C  
DOCKED: ATOM     21  C29 UNL     1      19.607   1.567  -3.661 +0.00 +0.00    +0.055 C  
DOCKED: ENDBRANCH  17  18
DOCKED: ENDBRANCH  14  17
DOCKED: ENDBRANCH  12  13
DOCKED: BRANCH  12  22
DOCKED: ATOM     22  C23 UNL     1      17.908  -0.915  -1.215 +0.00 +0.00    +0.103 C  
DOCKED: BRANCH  22  23
DOCKED: ATOM     23  C24 UNL     1      19.321  -1.451  -1.187 +0.00 +0.00    +0.343 C  
DOCKED: ATOM     24  F1  UNL     1      20.189  -0.430  -1.394 +0.00 -0.00    -0.209 F  
DOCKED: ATOM     25  F2  UNL     1      19.490  -2.320  -2.213 +0.00 -0.00    -0.209 F  
DOCKED: ENDBRANCH  22  23
DOCKED: ENDBRANCH  12  22
DOCKED: ENDBRANCH   9  12
DOCKED: ENDBRANCH   6   8
DOCKED: ENDBRANCH   3   6
DOCKED: ENDBRANCH   1   2
DOCKED: BRANCH   1  26
DOCKED: ATOM     26  C11 UNL     1      13.649   2.960  -5.227 +0.00 +0.00    +0.060 C  
DOCKED: BRANCH  26  27
DOCKED: ATOM     27  C12 UNL     1      15.044   3.492  -4.987 +0.00 -0.00    -0.046 A  
DOCKED: ATOM     28  C13 UNL     1      15.488   3.760  -3.684 +0.00 +0.00    +0.004 A  
DOCKED: ATOM     29  C14 UNL     1      16.788   4.215  -3.461 +0.00 +0.00    +0.000 A  
DOCKED: ATOM     30  C15 UNL     1      17.652   4.407  -4.538 +0.00 +0.00    +0.000 A  
DOCKED: ATOM     31  C16 UNL     1      17.216   4.156  -5.834 +0.00 +0.00    +0.000 A  
DOCKED: ATOM     32  C17 UNL     1      15.919   3.697  -6.061 +0.00 +0.00    +0.004 A  
DOCKED: ENDBRANCH  26  27
DOCKED: ENDBRANCH   1  26
DOCKED: BRANCH   1  33
DOCKED: ATOM     33  C9  UNL     1      14.195   0.691  -6.320 +0.00 +0.00    +0.136 C  
DOCKED: BRANCH  33  34
DOCKED: ATOM     34  O2  UNL     1      15.369  -0.022  -5.938 +0.00 -0.00    -0.390 OA 
DOCKED: ATOM     35  H17 UNL     1      15.876   0.552  -5.322 +0.00 +0.00    +0.210 HD 
DOCKED: ENDBRANCH  33  34
DOCKED: BRANCH  33  36
DOCKED: ATOM     36  C8  UNL     1      13.232  -0.251  -7.070 +0.00 +0.00    +0.045 C  
DOCKED: BRANCH  36  37
DOCKED: ATOM     37  C6  UNL     1      12.686  -1.430  -6.215 +0.00 +0.00    +0.074 C  
DOCKED: ATOM     38  C7  UNL     1      11.305  -1.905  -6.672 +0.00 +0.00    +0.017 C  
DOCKED: BRANCH  37  40
DOCKED: ATOM     39  N1  UNL     1      14.617  -2.476  -5.169 +0.00 -0.00    -0.304 N  
DOCKED: ATOM     40  C5  UNL     1      13.676  -2.593  -6.170 +0.00 +0.00    +0.217 C  
DOCKED: ATOM     41  O1  UNL     1      13.630  -3.531  -6.963 +0.00 -0.00    -0.276 OA 
DOCKED: ATOM     42  H9  UNL     1      14.581  -1.600  -4.672 +0.00 +0.00    +0.149 HD 
DOCKED: BRANCH  39  43
DOCKED: ATOM     43  C4  UNL     1      15.956  -3.090  -5.233 +0.00 +0.00    +0.161 C  
DOCKED: BRANCH  43  44
DOCKED: ATOM     44  C30 UNL     1      16.904  -2.615  -6.381 +0.00 +0.00    +0.234 C  
DOCKED: ATOM     45  O7  UNL     1      18.001  -2.086  -6.190 +0.00 -0.00    -0.274 OA 
DOCKED: ATOM     46  N5  UNL     1      16.361  -2.741  -7.637 +0.00 -0.00    -0.310 N  
DOCKED: ATOM     47  H46 UNL     1      15.560  -3.368  -7.736 +0.00 +0.00    +0.149 HD 
DOCKED: BRANCH  46  48
DOCKED: ATOM     48  C31 UNL     1      16.935  -2.174  -8.826 +0.00 +0.00    +0.139 C  
DOCKED: BRANCH  48  49
DOCKED: ATOM     49  C32 UNL     1      16.666  -0.692  -8.869 +0.00 -0.00    -0.027 A  
DOCKED: ATOM     50  C33 UNL     1      15.529  -0.189  -9.512 +0.00 +0.00    +0.025 A  
DOCKED: ATOM     51  C34 UNL     1      15.300   1.181  -9.477 +0.00 +0.00    +0.111 A  
DOCKED: ATOM     52  N6  UNL     1      16.113   2.069  -8.864 +0.00 -0.00    -0.263 NA 
DOCKED: ATOM     53  C35 UNL     1      17.198   1.558  -8.245 +0.00 +0.00    +0.111 A  
DOCKED: ATOM     54  C36 UNL     1      17.513   0.206  -8.218 +0.00 +0.00    +0.025 A  
DOCKED: ENDBRANCH  48  49
DOCKED: ENDBRANCH  46  48
DOCKED: ENDBRANCH  43  44
DOCKED: BRANCH  43  56
DOCKED: ATOM     55  C1  UNL     1      17.228  -5.308  -5.409 +0.00 +0.00    +0.009 C  
DOCKED: ATOM     56  C2  UNL     1      15.851  -4.647  -5.237 +0.00 +0.00    +0.012 C  
DOCKED: ATOM     57  C3  UNL     1      15.161  -5.212  -3.987 +0.00 +0.00    +0.009 C  
DOCKED: ENDBRANCH  43  56
DOCKED: ENDBRANCH  39  43
DOCKED: ENDBRANCH  37  40
DOCKED: ENDBRANCH  36  37
DOCKED: ENDBRANCH  33  36
DOCKED: ENDBRANCH   1  33
DOCKED: TORSDOF 21
DOCKED: TER
DOCKED: ENDMDL
________________________________________________________________________________


    FINAL DOCKED STATE:
    ________________________


Run:   8 / 20
Time taken for this run:   1.475s

DOCKED: MODEL        8
DOCKED: USER    Run = 8
DOCKED: USER
DOCKED: USER    Estimated Free Energy of Binding    =  +6.26 kcal/mol  [=(1)+(2)+(3)-(4)]
DOCKED: USER
DOCKED: USER    (1) Final Intermolecular Energy     =  +0.00 kcal/mol
DOCKED: USER        vdW + Hbond + desolv Energy     =  +0.00 kcal/mol
DOCKED: USER        Electrostatic Energy            =  +0.00 kcal/mol
DOCKED: USER        Moving Ligand-Fixed Receptor    =  +0.00 kcal/mol
DOCKED: USER        Moving Ligand-Moving Receptor   =  +0.00 kcal/mol
DOCKED: USER    (2) Final Total Internal Energy     = -14.01 kcal/mol
DOCKED: USER    (3) Torsional Free Energy           =  +6.26 kcal/mol
DOCKED: USER    (4) Unbound System's Energy         = -14.01 kcal/mol
DOCKED: USER
DOCKED: USER
DOCKED: REMARK  Name = ligands/ligand_13.pdb
DOCKED: REMARK  28 active torsions:
DOCKED: REMARK  status: ('A' for Active; 'I' for Inactive)
DOCKED: REMARK    1  A    between atoms: C1_1  and  C2_2
DOCKED: REMARK    2  A    between atoms: C2_2  and  C3_3
DOCKED: REMARK    3  A    between atoms: C2_2  and  C4_4
DOCKED: REMARK    4  A    between atoms: C4_4  and  N1_5
DOCKED: REMARK    5  A    between atoms: C4_4  and  C30_42
DOCKED: REMARK    6  A    between atoms: C5_6  and  C6_8
DOCKED: REMARK    7  A    between atoms: C6_8  and  C7_9
DOCKED: REMARK    8  A    between atoms: C6_8  and  C8_10
DOCKED: REMARK    9  A    between atoms: C8_10  and  C9_11
DOCKED: REMARK   10  A    between atoms: C9_11  and  O2_12
DOCKED: REMARK   11  A    between atoms: C9_11  and  C10_13
DOCKED: REMARK   12  A    between atoms: C10_13  and  C11_14
DOCKED: REMARK   13  A    between atoms: C10_13  and  N2_21
DOCKED: REMARK   14  A    between atoms: C11_14  and  C12_15
DOCKED: REMARK   15  A    between atoms: C18_22  and  C19_24
DOCKED: REMARK   16  A    between atoms: C19_24  and  C20_25
DOCKED: REMARK   17  A    between atoms: C19_24  and  N3_26
DOCKED: REMARK   18  A    between atoms: C21_27  and  C22_29
DOCKED: REMARK   19  A    between atoms: C22_29  and  C23_30
DOCKED: REMARK   20  A    between atoms: C22_29  and  N4_34
DOCKED: REMARK   21  A    between atoms: C23_30  and  C24_31
DOCKED: REMARK   22  A    between atoms: C25_35  and  O6_37
DOCKED: REMARK   23  A    between atoms: O6_37  and  C26_38
DOCKED: REMARK   24  A    between atoms: C26_38  and  C27_39
DOCKED: REMARK   25  A    between atoms: C26_38  and  C28_40
DOCKED: REMARK   26  A    between atoms: C26_38  and  C29_41
DOCKED: REMARK   27  A    between atoms: N5_44  and  C31_45
DOCKED: REMARK   28  A    between atoms: C31_45  and  C32_46
DOCKED: REMARK                            x       y       z     vdW  Elec       q    Type
DOCKED: REMARK                         _______ _______ _______ _____ _____    ______ ____
DOCKED: USER                              x       y       z     vdW  Elec       q    Type
DOCKED: USER                           _______ _______ _______ _____ _____    ______ ____
DOCKED: ROOT
DOCKED: ATOM      1  C10 UNL     1      12.787  -6.570  -0.613 +0.00 +0.00    +0.106 C  
DOCKED: ENDROOT
DOCKED: BRANCH   1   2
DOCKED: ATOM      2  N2  UNL     1      12.760  -7.644  -1.613 +0.00 -0.00    -0.308 N  
DOCKED: ATOM      3  C18 UNL     1      12.148  -7.595  -2.841 +0.00 +0.00    +0.233 C  
DOCKED: ATOM      4  O3  UNL     1      11.370  -6.694  -3.157 +0.00 -0.00    -0.274 OA 
DOCKED: ATOM      5  H26 UNL     1      13.398  -8.421  -1.471 +0.00 +0.00    +0.149 HD 
DOCKED: BRANCH   3   6
DOCKED: ATOM      6  C19 UNL     1      12.506  -8.741  -3.815 +0.00 +0.00    +0.156 C  
DOCKED: ATOM      7  C20 UNL     1      11.354  -9.008  -4.783 +0.00 +0.00    +0.038 C  
DOCKED: BRANCH   6   8
DOCKED: ATOM      8  N3  UNL     1      13.049  -9.966  -3.213 +0.00 -0.00    -0.303 N  
DOCKED: ATOM      9  C21 UNL     1      14.347 -10.124  -2.772 +0.00 +0.00    +0.234 C  
DOCKED: ATOM     10  O4  UNL     1      15.243  -9.340  -3.066 +0.00 -0.00    -0.274 OA 
DOCKED: ATOM     11  H31 UNL     1      12.370 -10.672  -2.924 +0.00 +0.00    +0.149 HD 
DOCKED: BRANCH   9  12
DOCKED: ATOM     12  C22 UNL     1      14.593 -11.436  -1.997 +0.00 +0.00    +0.167 C  
DOCKED: BRANCH  12  13
DOCKED: ATOM     13  N4  UNL     1      14.449 -11.131  -0.576 +0.00 -0.00    -0.270 N  
DOCKED: ATOM     14  C25 UNL     1      13.295 -10.603  -0.077 +0.00 +0.00    +0.401 C  
DOCKED: ATOM     15  O5  UNL     1      12.373 -10.208  -0.773 +0.00 -0.00    -0.226 OA 
DOCKED: ATOM     16  H36 UNL     1      14.988 -11.650   0.112 +0.00 +0.00    +0.153 HD 
DOCKED: BRANCH  14  17
DOCKED: ATOM     17  O6  UNL     1      13.328 -10.665   1.270 +0.00 -0.00    -0.445 OA 
DOCKED: BRANCH  17  18
DOCKED: ATOM     18  C26 UNL     1      12.910 -11.866   1.968 +0.00 +0.00    +0.107 C  
DOCKED: ATOM     19  C27 UNL     1      14.077 -12.851   2.104 +0.00 +0.00    +0.055 C  
DOCKED: ATOM     20  C28 UNL     1      12.276 -11.537   3.324 +0.00 +0.00    +0.055 C  
DOCKED: ATOM     21  C29 UNL     1      11.833 -12.482   1.059 +0.00 +0.00    +0.055 C  
DOCKED: ENDBRANCH  17  18
DOCKED: ENDBRANCH  14  17
DOCKED: ENDBRANCH  12  13
DOCKED: BRANCH  12  22
DOCKED: ATOM     22  C23 UNL     1      13.618 -12.529  -2.428 +0.00 +0.00    +0.103 C  
DOCKED: BRANCH  22  23
DOCKED: ATOM     23  C24 UNL     1      14.050 -13.882  -1.910 +0.00 +0.00    +0.343 C  
DOCKED: ATOM     24  F1  UNL     1      13.104 -14.357  -1.063 +0.00 -0.00    -0.209 F  
DOCKED: ATOM     25  F2  UNL     1      15.187 -13.743  -1.186 +0.00 -0.00    -0.209 F  
DOCKED: ENDBRANCH  22  23
DOCKED: ENDBRANCH  12  22
DOCKED: ENDBRANCH   9  12
DOCKED: ENDBRANCH   6   8
DOCKED: ENDBRANCH   3   6
DOCKED: ENDBRANCH   1   2
DOCKED: BRANCH   1  26
DOCKED: ATOM     26  C11 UNL     1      11.356  -6.303  -0.092 +0.00 +0.00    +0.060 C  
DOCKED: BRANCH  26  27
DOCKED: ATOM     27  C12 UNL     1      10.693  -7.531   0.490 +0.00 -0.00    -0.046 A  
DOCKED: ATOM     28  C13 UNL     1      10.012  -8.433  -0.340 +0.00 +0.00    +0.004 A  
DOCKED: ATOM     29  C14 UNL     1       9.434  -9.585   0.194 +0.00 +0.00    +0.000 A  
DOCKED: ATOM     30  C15 UNL     1       9.529  -9.842   1.560 +0.00 +0.00    +0.000 A  
DOCKED: ATOM     31  C16 UNL     1      10.190  -8.948   2.393 +0.00 +0.00    +0.000 A  
DOCKED: ATOM     32  C17 UNL     1      10.774  -7.797   1.863 +0.00 +0.00    +0.004 A  
DOCKED: ENDBRANCH  26  27
DOCKED: ENDBRANCH   1  26
DOCKED: BRANCH   1  33
DOCKED: ATOM     33  C9  UNL     1      13.813  -6.753   0.542 +0.00 +0.00    +0.136 C  
DOCKED: BRANCH  33  34
DOCKED: ATOM     34  O2  UNL     1      14.308  -8.089   0.593 +0.00 -0.00    -0.390 OA 
DOCKED: ATOM     35  H17 UNL     1      13.549  -8.692   0.432 +0.00 +0.00    +0.210 HD 
DOCKED: ENDBRANCH  33  34
DOCKED: BRANCH  33  36
DOCKED: ATOM     36  C8  UNL     1      14.992  -5.760   0.499 +0.00 +0.00    +0.045 C  
DOCKED: BRANCH  36  37
DOCKED: ATOM     37  C6  UNL     1      15.893  -5.883  -0.762 +0.00 +0.00    +0.074 C  
DOCKED: ATOM     38  C7  UNL     1      16.562  -4.560  -1.145 +0.00 +0.00    +0.017 C  
DOCKED: BRANCH  37  40
DOCKED: ATOM     39  N1  UNL     1      16.470  -8.236  -0.977 +0.00 -0.00    -0.304 N  
DOCKED: ATOM     40  C5  UNL     1      16.932  -6.993  -0.602 +0.00 +0.00    +0.217 C  
DOCKED: ATOM     41  O1  UNL     1      18.063  -6.781  -0.169 +0.00 -0.00    -0.276 OA 
DOCKED: ATOM     42  H9  UNL     1      15.491  -8.256  -1.211 +0.00 +0.00    +0.149 HD 
DOCKED: BRANCH  39  43
DOCKED: ATOM     43  C4  UNL     1      16.997  -9.500  -0.430 +0.00 +0.00    +0.161 C  
DOCKED: BRANCH  43  44
DOCKED: ATOM     44  C30 UNL     1      16.831  -9.736   1.106 +0.00 +0.00    +0.234 C  
DOCKED: ATOM     45  O7  UNL     1      16.215 -10.687   1.591 +0.00 -0.00    -0.274 OA 
DOCKED: ATOM     46  N5  UNL     1      17.346  -8.725   1.882 +0.00 -0.00    -0.310 N  
DOCKED: ATOM     47  H46 UNL     1      18.014  -8.093   1.436 +0.00 +0.00    +0.149 HD 
DOCKED: BRANCH  46  48
DOCKED: ATOM     48  C31 UNL     1      17.123  -8.599   3.295 +0.00 +0.00    +0.139 C  
DOCKED: BRANCH  48  49
DOCKED: ATOM     49  C32 UNL     1      15.740  -8.058   3.550 +0.00 -0.00    -0.027 A  
DOCKED: ATOM     50  C33 UNL     1      15.522  -6.682   3.688 +0.00 +0.00    +0.025 A  
DOCKED: ATOM     51  C34 UNL     1      14.220  -6.233   3.869 +0.00 +0.00    +0.111 A  
DOCKED: ATOM     52  N6  UNL     1      13.141  -7.043   3.928 +0.00 -0.00    -0.263 NA 
DOCKED: ATOM     53  C35 UNL     1      13.376  -8.364   3.784 +0.00 +0.00    +0.111 A  
DOCKED: ATOM     54  C36 UNL     1      14.637  -8.913   3.594 +0.00 +0.00    +0.025 A  
DOCKED: ENDBRANCH  48  49
DOCKED: ENDBRANCH  46  48
DOCKED: ENDBRANCH  43  44
DOCKED: BRANCH  43  56
DOCKED: ATOM     55  C1  UNL     1      19.090 -10.960  -0.195 +0.00 +0.00    +0.009 C  
DOCKED: ATOM     56  C2  UNL     1      18.488  -9.703  -0.843 +0.00 +0.00    +0.012 C  
DOCKED: ATOM     57  C3  UNL     1      18.694  -9.759  -2.364 +0.00 +0.00    +0.009 C  
DOCKED: ENDBRANCH  43  56
DOCKED: ENDBRANCH  39  43
DOCKED: ENDBRANCH  37  40
DOCKED: ENDBRANCH  36  37
DOCKED: ENDBRANCH  33  36
DOCKED: ENDBRANCH   1  33
DOCKED: TORSDOF 21
DOCKED: TER
DOCKED: ENDMDL
________________________________________________________________________________


    FINAL DOCKED STATE:
    ________________________


Run:   9 / 20
Time taken for this run:   1.475s

DOCKED: MODEL        9
DOCKED: USER    Run = 9
DOCKED: USER
DOCKED: USER    Estimated Free Energy of Binding    =  +6.26 kcal/mol  [=(1)+(2)+(3)-(4)]
DOCKED: USER
DOCKED: USER    (1) Final Intermolecular Energy     =  +0.00 kcal/mol
DOCKED: USER        vdW + Hbond + desolv Energy     =  +0.00 kcal/mol
DOCKED: USER        Electrostatic Energy            =  +0.00 kcal/mol
DOCKED: USER        Moving Ligand-Fixed Receptor    =  +0.00 kcal/mol
DOCKED: USER        Moving Ligand-Moving Receptor   =  +0.00 kcal/mol
DOCKED: USER    (2) Final Total Internal Energy     = -14.01 kcal/mol
DOCKED: USER    (3) Torsional Free Energy           =  +6.26 kcal/mol
DOCKED: USER    (4) Unbound System's Energy         = -14.01 kcal/mol
DOCKED: USER
DOCKED: USER
DOCKED: REMARK  Name = ligands/ligand_13.pdb
DOCKED: REMARK  28 active torsions:
DOCKED: REMARK  status: ('A' for Active; 'I' for Inactive)
DOCKED: REMARK    1  A    between atoms: C1_1  and  C2_2
DOCKED: REMARK    2  A    between atoms: C2_2  and  C3_3
DOCKED: REMARK    3  A    between atoms: C2_2  and  C4_4
DOCKED: REMARK    4  A    between atoms: C4_4  and  N1_5
DOCKED: REMARK    5  A    between atoms: C4_4  and  C30_42
DOCKED: REMARK    6  A    between atoms: C5_6  and  C6_8
DOCKED: REMARK    7  A    between atoms: C6_8  and  C7_9
DOCKED: REMARK    8  A    between atoms: C6_8  and  C8_10
DOCKED: REMARK    9  A    between atoms: C8_10  and  C9_11
DOCKED: REMARK   10  A    between atoms: C9_11  and  O2_12
DOCKED: REMARK   11  A    between atoms: C9_11  and  C10_13
DOCKED: REMARK   12  A    between atoms: C10_13  and  C11_14
DOCKED: REMARK   13  A    between atoms: C10_13  and  N2_21
DOCKED: REMARK   14  A    between atoms: C11_14  and  C12_15
DOCKED: REMARK   15  A    between atoms: C18_22  and  C19_24
DOCKED: REMARK   16  A    between atoms: C19_24  and  C20_25
DOCKED: REMARK   17  A    between atoms: C19_24  and  N3_26
DOCKED: REMARK   18  A    between atoms: C21_27  and  C22_29
DOCKED: REMARK   19  A    between atoms: C22_29  and  C23_30
DOCKED: REMARK   20  A    between atoms: C22_29  and  N4_34
DOCKED: REMARK   21  A    between atoms: C23_30  and  C24_31
DOCKED: REMARK   22  A    between atoms: C25_35  and  O6_37
DOCKED: REMARK   23  A    between atoms: O6_37  and  C26_38
DOCKED: REMARK   24  A    between atoms: C26_38  and  C27_39
DOCKED: REMARK   25  A    between atoms: C26_38  and  C28_40
DOCKED: REMARK   26  A    between atoms: C26_38  and  C29_41
DOCKED: REMARK   27  A    between atoms: N5_44  and  C31_45
DOCKED: REMARK   28  A    between atoms: C31_45  and  C32_46
DOCKED: REMARK                            x       y       z     vdW  Elec       q    Type
DOCKED: REMARK                         _______ _______ _______ _____ _____    ______ ____
DOCKED: USER                              x       y       z     vdW  Elec       q    Type
DOCKED: USER                           _______ _______ _______ _____ _____    ______ ____
DOCKED: ROOT
DOCKED: ATOM      1  C10 UNL     1       6.089  -0.181   0.972 +0.00 +0.00    +0.106 C  
DOCKED: ENDROOT
DOCKED: BRANCH   1   2
DOCKED: ATOM      2  N2  UNL     1       7.025   0.618   1.772 +0.00 -0.00    -0.308 N  
DOCKED: ATOM      3  C18 UNL     1       8.385   0.693   1.597 +0.00 +0.00    +0.233 C  
DOCKED: ATOM      4  O3  UNL     1       9.000  -0.077   0.858 +0.00 -0.00    -0.274 OA 
DOCKED: ATOM      5  H26 UNL     1       6.623   1.318   2.388 +0.00 +0.00    +0.149 HD 
DOCKED: BRANCH   3   6
DOCKED: ATOM      6  C19 UNL     1       9.101   1.817   2.379 +0.00 +0.00    +0.156 C  
DOCKED: ATOM      7  C20 UNL     1      10.548   1.428   2.683 +0.00 +0.00    +0.038 C  
DOCKED: BRANCH   6   8
DOCKED: ATOM      8  N3  UNL     1       8.392   2.355   3.548 +0.00 -0.00    -0.303 N  
DOCKED: ATOM      9  C21 UNL     1       7.341   3.248   3.496 +0.00 +0.00    +0.234 C  
DOCKED: ATOM     10  O4  UNL     1       7.057   3.871   2.478 +0.00 -0.00    -0.274 OA 
DOCKED: ATOM     11  H31 UNL     1       8.560   1.886   4.440 +0.00 +0.00    +0.149 HD 
DOCKED: BRANCH   9  12
DOCKED: ATOM     12  C22 UNL     1       6.649   3.488   4.855 +0.00 +0.00    +0.167 C  
DOCKED: BRANCH  12  13
DOCKED: ATOM     13  N4  UNL     1       5.505   2.584   4.922 +0.00 -0.00    -0.270 N  
DOCKED: ATOM     14  C25 UNL     1       5.658   1.234   4.799 +0.00 +0.00    +0.401 C  
DOCKED: ATOM     15  O5  UNL     1       6.705   0.696   4.478 +0.00 -0.00    -0.226 OA 
DOCKED: ATOM     16  H36 UNL     1       4.677   2.852   5.446 +0.00 +0.00    +0.153 HD 
DOCKED: BRANCH  14  17
DOCKED: ATOM     17  O6  UNL     1       4.508   0.627   5.156 +0.00 -0.00    -0.445 OA 
DOCKED: BRANCH  17  18
DOCKED: ATOM     18  C26 UNL     1       4.227   0.330   6.548 +0.00 +0.00    +0.107 C  
DOCKED: ATOM     19  C27 UNL     1       3.580   1.535   7.242 +0.00 +0.00    +0.055 C  
DOCKED: ATOM     20  C28 UNL     1       3.380  -0.939   6.694 +0.00 +0.00    +0.055 C  
DOCKED: ATOM     21  C29 UNL     1       5.609   0.071   7.172 +0.00 +0.00    +0.055 C  
DOCKED: ENDBRANCH  17  18
DOCKED: ENDBRANCH  14  17
DOCKED: ENDBRANCH  12  13
DOCKED: BRANCH  12  22
DOCKED: ATOM     22  C23 UNL     1       7.610   3.249   6.018 +0.00 +0.00    +0.103 C  
DOCKED: BRANCH  22  23
DOCKED: ATOM     23  C24 UNL     1       7.043   3.782   7.314 +0.00 +0.00    +0.343 C  
DOCKED: ATOM     24  F1  UNL     1       6.862   2.753   8.178 +0.00 -0.00    -0.209 F  
DOCKED: ATOM     25  F2  UNL     1       5.818   4.314   7.081 +0.00 -0.00    -0.209 F  
DOCKED: ENDBRANCH  22  23
DOCKED: ENDBRANCH  12  22
DOCKED: ENDBRANCH   9  12
DOCKED: ENDBRANCH   6   8
DOCKED: ENDBRANCH   3   6
DOCKED: ENDBRANCH   1   2
DOCKED: BRANCH   1  26
DOCKED: ATOM     26  C11 UNL     1       6.396  -1.685   1.154 +0.00 +0.00    +0.060 C  
DOCKED: BRANCH  26  27
DOCKED: ATOM     27  C12 UNL     1       6.353  -2.133   2.598 +0.00 -0.00    -0.046 A  
DOCKED: ATOM     28  C13 UNL     1       7.494  -2.037   3.407 +0.00 +0.00    +0.004 A  
DOCKED: ATOM     29  C14 UNL     1       7.443  -2.416   4.748 +0.00 +0.00    +0.000 A  
DOCKED: ATOM     30  C15 UNL     1       6.252  -2.895   5.290 +0.00 +0.00    +0.000 A  
DOCKED: ATOM     31  C16 UNL     1       5.118  -3.006   4.493 +0.00 +0.00    +0.000 A  
DOCKED: ATOM     32  C17 UNL     1       5.164  -2.625   3.152 +0.00 +0.00    +0.004 A  
DOCKED: ENDBRANCH  26  27
DOCKED: ENDBRANCH   1  26
DOCKED: BRANCH   1  33
DOCKED: ATOM     33  C9  UNL     1       4.582   0.146   1.177 +0.00 +0.00    +0.136 C  
DOCKED: BRANCH  33  34
DOCKED: ATOM     34  O2  UNL     1       4.372   0.925   2.352 +0.00 -0.00    -0.390 OA 
DOCKED: ATOM     35  H17 UNL     1       4.957   0.565   3.055 +0.00 +0.00    +0.210 HD 
DOCKED: ENDBRANCH  33  34
DOCKED: BRANCH  33  36
DOCKED: ATOM     36  C8  UNL     1       3.916   0.832  -0.033 +0.00 +0.00    +0.045 C  
DOCKED: BRANCH  36  37
DOCKED: ATOM     37  C6  UNL     1       4.523   2.216  -0.403 +0.00 +0.00    +0.074 C  
DOCKED: ATOM     38  C7  UNL     1       4.395   2.541  -1.893 +0.00 +0.00    +0.017 C  
DOCKED: BRANCH  37  40
DOCKED: ATOM     39  N1  UNL     1       4.576   3.511   1.656 +0.00 -0.00    -0.304 N  
DOCKED: ATOM     40  C5  UNL     1       3.927   3.334   0.452 +0.00 +0.00    +0.217 C  
DOCKED: ATOM     41  O1  UNL     1       2.957   3.996   0.091 +0.00 -0.00    -0.276 OA 
DOCKED: ATOM     42  H9  UNL     1       5.285   2.821   1.845 +0.00 +0.00    +0.149 HD 
DOCKED: BRANCH  39  43
DOCKED: ATOM     43  C4  UNL     1       3.927   4.070   2.856 +0.00 +0.00    +0.161 C  
DOCKED: BRANCH  43  44
DOCKED: ATOM     44  C30 UNL     1       2.725   3.270   3.455 +0.00 +0.00    +0.234 C  
DOCKED: ATOM     45  O7  UNL     1       2.695   2.838   4.609 +0.00 -0.00    -0.274 OA 
DOCKED: ATOM     46  N5  UNL     1       1.734   2.993   2.544 +0.00 -0.00    -0.310 N  
DOCKED: ATOM     47  H46 UNL     1       1.723   3.550   1.687 +0.00 +0.00    +0.149 HD 
DOCKED: BRANCH  46  48
DOCKED: ATOM     48  C31 UNL     1       0.644   2.090   2.787 +0.00 +0.00    +0.139 C  
DOCKED: BRANCH  48  49
DOCKED: ATOM     49  C32 UNL     1       1.118   0.665   2.653 +0.00 -0.00    -0.027 A  
DOCKED: ATOM     50  C33 UNL     1       1.016  -0.012   1.433 +0.00 +0.00    +0.025 A  
DOCKED: ATOM     51  C34 UNL     1       1.516  -1.306   1.351 +0.00 +0.00    +0.111 A  
DOCKED: ATOM     52  N6  UNL     1       2.094  -1.961   2.381 +0.00 -0.00    -0.263 NA 
DOCKED: ATOM     53  C35 UNL     1       2.187  -1.283   3.545 +0.00 +0.00    +0.111 A  
DOCKED: ATOM     54  C36 UNL     1       1.722   0.012   3.728 +0.00 +0.00    +0.025 A  
DOCKED: ENDBRANCH  48  49
DOCKED: ENDBRANCH  46  48
DOCKED: ENDBRANCH  43  44
DOCKED: BRANCH  43  56
DOCKED: ATOM     55  C1  UNL     1       2.789   6.143   3.843 +0.00 +0.00    +0.009 C  
DOCKED: ATOM     56  C2  UNL     1       3.515   5.556   2.623 +0.00 +0.00    +0.012 C  
DOCKED: ATOM     57  C3  UNL     1       4.697   6.460   2.242 +0.00 +0.00    +0.009 C  
DOCKED: ENDBRANCH  43  56
DOCKED: ENDBRANCH  39  43
DOCKED: ENDBRANCH  37  40
DOCKED: ENDBRANCH  36  37
DOCKED: ENDBRANCH  33  36
DOCKED: ENDBRANCH   1  33
DOCKED: TORSDOF 21
DOCKED: TER
DOCKED: ENDMDL
________________________________________________________________________________


    FINAL DOCKED STATE:
    ________________________


Run:   10 / 20
Time taken for this run:   1.475s

DOCKED: MODEL        10
DOCKED: USER    Run = 10
DOCKED: USER
DOCKED: USER    Estimated Free Energy of Binding    =  +6.26 kcal/mol  [=(1)+(2)+(3)-(4)]
DOCKED: USER
DOCKED: USER    (1) Final Intermolecular Energy     =  +0.00 kcal/mol
DOCKED: USER        vdW + Hbond + desolv Energy     =  +0.00 kcal/mol
DOCKED: USER        Electrostatic Energy            =  +0.00 kcal/mol
DOCKED: USER        Moving Ligand-Fixed Receptor    =  +0.00 kcal/mol
DOCKED: USER        Moving Ligand-Moving Receptor   =  +0.00 kcal/mol
DOCKED: USER    (2) Final Total Internal Energy     = -14.01 kcal/mol
DOCKED: USER    (3) Torsional Free Energy           =  +6.26 kcal/mol
DOCKED: USER    (4) Unbound System's Energy         = -14.01 kcal/mol
DOCKED: USER
DOCKED: USER
DOCKED: REMARK  Name = ligands/ligand_13.pdb
DOCKED: REMARK  28 active torsions:
DOCKED: REMARK  status: ('A' for Active; 'I' for Inactive)
DOCKED: REMARK    1  A    between atoms: C1_1  and  C2_2
DOCKED: REMARK    2  A    between atoms: C2_2  and  C3_3
DOCKED: REMARK    3  A    between atoms: C2_2  and  C4_4
DOCKED: REMARK    4  A    between atoms: C4_4  and  N1_5
DOCKED: REMARK    5  A    between atoms: C4_4  and  C30_42
DOCKED: REMARK    6  A    between atoms: C5_6  and  C6_8
DOCKED: REMARK    7  A    between atoms: C6_8  and  C7_9
DOCKED: REMARK    8  A    between atoms: C6_8  and  C8_10
DOCKED: REMARK    9  A    between atoms: C8_10  and  C9_11
DOCKED: REMARK   10  A    between atoms: C9_11  and  O2_12
DOCKED: REMARK   11  A    between atoms: C9_11  and  C10_13
DOCKED: REMARK   12  A    between atoms: C10_13  and  C11_14
DOCKED: REMARK   13  A    between atoms: C10_13  and  N2_21
DOCKED: REMARK   14  A    between atoms: C11_14  and  C12_15
DOCKED: REMARK   15  A    between atoms: C18_22  and  C19_24
DOCKED: REMARK   16  A    between atoms: C19_24  and  C20_25
DOCKED: REMARK   17  A    between atoms: C19_24  and  N3_26
DOCKED: REMARK   18  A    between atoms: C21_27  and  C22_29
DOCKED: REMARK   19  A    between atoms: C22_29  and  C23_30
DOCKED: REMARK   20  A    between atoms: C22_29  and  N4_34
DOCKED: REMARK   21  A    between atoms: C23_30  and  C24_31
DOCKED: REMARK   22  A    between atoms: C25_35  and  O6_37
DOCKED: REMARK   23  A    between atoms: O6_37  and  C26_38
DOCKED: REMARK   24  A    between atoms: C26_38  and  C27_39
DOCKED: REMARK   25  A    between atoms: C26_38  and  C28_40
DOCKED: REMARK   26  A    between atoms: C26_38  and  C29_41
DOCKED: REMARK   27  A    between atoms: N5_44  and  C31_45
DOCKED: REMARK   28  A    between atoms: C31_45  and  C32_46
DOCKED: REMARK                            x       y       z     vdW  Elec       q    Type
DOCKED: REMARK                         _______ _______ _______ _____ _____    ______ ____
DOCKED: USER                              x       y       z     vdW  Elec       q    Type
DOCKED: USER                           _______ _______ _______ _____ _____    ______ ____
DOCKED: ROOT
DOCKED: ATOM      1  C10 UNL     1      11.593  -1.802  -8.193 +0.00 +0.00    +0.106 C  
DOCKED: ENDROOT
DOCKED: BRANCH   1   2
DOCKED: ATOM      2  N2  UNL     1      12.027  -1.857  -6.792 +0.00 -0.00    -0.308 N  
DOCKED: ATOM      3  C18 UNL     1      12.991  -1.072  -6.208 +0.00 +0.00    +0.233 C  
DOCKED: ATOM      4  O3  UNL     1      13.750  -0.358  -6.866 +0.00 -0.00    -0.274 OA 
DOCKED: ATOM      5  H26 UNL     1      11.446  -2.387  -6.150 +0.00 +0.00    +0.149 HD 
DOCKED: BRANCH   3   6
DOCKED: ATOM      6  C19 UNL     1      13.059  -1.128  -4.665 +0.00 +0.00    +0.156 C  
DOCKED: ATOM      7  C20 UNL     1      14.484  -0.868  -4.177 +0.00 +0.00    +0.038 C  
DOCKED: BRANCH   6   8
DOCKED: ATOM      8  N3  UNL     1      12.435  -2.293  -4.025 +0.00 -0.00    -0.303 N  
DOCKED: ATOM      9  C21 UNL     1      11.075  -2.505  -3.919 +0.00 +0.00    +0.234 C  
DOCKED: ATOM     10  O4  UNL     1      10.253  -1.619  -4.128 +0.00 -0.00    -0.274 OA 
DOCKED: ATOM     11  H31 UNL     1      13.046  -3.087  -3.825 +0.00 +0.00    +0.149 HD 
DOCKED: BRANCH   9  12
DOCKED: ATOM     12  C22 UNL     1      10.694  -3.902  -3.386 +0.00 +0.00    +0.167 C  
DOCKED: BRANCH  12  13
DOCKED: ATOM     13  N4  UNL     1      10.445  -4.753  -4.545 +0.00 -0.00    -0.270 N  
DOCKED: ATOM     14  C25 UNL     1      11.382  -4.914  -5.523 +0.00 +0.00    +0.401 C  
DOCKED: ATOM     15  O5  UNL     1      12.412  -4.262  -5.589 +0.00 -0.00    -0.226 OA 
DOCKED: ATOM     16  H36 UNL     1       9.797  -5.532  -4.474 +0.00 +0.00    +0.153 HD 
DOCKED: BRANCH  14  17
DOCKED: ATOM     17  O6  UNL     1      11.013  -5.934  -6.324 +0.00 -0.00    -0.445 OA 
DOCKED: BRANCH  17  18
DOCKED: ATOM     18  C26 UNL     1      11.408  -7.297  -6.020 +0.00 +0.00    +0.107 C  
DOCKED: ATOM     19  C27 UNL     1      12.806  -7.331  -5.392 +0.00 +0.00    +0.055 C  
DOCKED: ATOM     20  C28 UNL     1      10.368  -8.002  -5.144 +0.00 +0.00    +0.055 C  
DOCKED: ATOM     21  C29 UNL     1      11.453  -7.997  -7.390 +0.00 +0.00    +0.055 C  
DOCKED: ENDBRANCH  17  18
DOCKED: ENDBRANCH  14  17
DOCKED: ENDBRANCH  12  13
DOCKED: BRANCH  12  22
DOCKED: ATOM     22  C23 UNL     1      11.798  -4.481  -2.503 +0.00 +0.00    +0.103 C  
DOCKED: BRANCH  22  23
DOCKED: ATOM     23  C24 UNL     1      11.368  -5.788  -1.876 +0.00 +0.00    +0.343 C  
DOCKED: ATOM     24  F1  UNL     1      11.954  -6.815  -2.540 +0.00 -0.00    -0.209 F  
DOCKED: ATOM     25  F2  UNL     1      10.030  -5.938  -2.028 +0.00 -0.00    -0.209 F  
DOCKED: ENDBRANCH  22  23
DOCKED: ENDBRANCH  12  22
DOCKED: ENDBRANCH   9  12
DOCKED: ENDBRANCH   6   8
DOCKED: ENDBRANCH   3   6
DOCKED: ENDBRANCH   1   2
DOCKED: BRANCH   1  26
DOCKED: ATOM     26  C11 UNL     1      12.779  -2.148  -9.123 +0.00 +0.00    +0.060 C  
DOCKED: BRANCH  26  27
DOCKED: ATOM     27  C12 UNL     1      13.373  -3.511  -8.851 +0.00 -0.00    -0.046 A  
DOCKED: ATOM     28  C13 UNL     1      14.325  -3.683  -7.835 +0.00 +0.00    +0.004 A  
DOCKED: ATOM     29  C14 UNL     1      14.845  -4.948  -7.561 +0.00 +0.00    +0.000 A  
DOCKED: ATOM     30  C15 UNL     1      14.420  -6.049  -8.301 +0.00 +0.00    +0.000 A  
DOCKED: ATOM     31  C16 UNL     1      13.487  -5.888  -9.319 +0.00 +0.00    +0.000 A  
DOCKED: ATOM     32  C17 UNL     1      12.961  -4.625  -9.593 +0.00 +0.00    +0.004 A  
DOCKED: ENDBRANCH  26  27
DOCKED: ENDBRANCH   1  26
DOCKED: BRANCH   1  33
DOCKED: ATOM     33  C9  UNL     1      10.315  -2.622  -8.532 +0.00 +0.00    +0.136 C  
DOCKED: BRANCH  33  34
DOCKED: ATOM     34  O2  UNL     1       9.975  -3.520  -7.479 +0.00 -0.00    -0.390 OA 
DOCKED: ATOM     35  H17 UNL     1      10.803  -3.968  -7.194 +0.00 +0.00    +0.210 HD 
DOCKED: ENDBRANCH  33  34
DOCKED: BRANCH  33  36
DOCKED: ATOM     36  C8  UNL     1       9.091  -1.757  -8.898 +0.00 +0.00    +0.045 C  
DOCKED: BRANCH  36  37
DOCKED: ATOM     37  C6  UNL     1       8.567  -0.860  -7.740 +0.00 +0.00    +0.074 C  
DOCKED: ATOM     38  C7  UNL     1       7.903   0.425  -8.240 +0.00 +0.00    +0.017 C  
DOCKED: BRANCH  37  40
DOCKED: ATOM     39  N1  UNL     1       8.286  -2.294  -5.795 +0.00 -0.00    -0.304 N  
DOCKED: ATOM     40  C5  UNL     1       7.630  -1.634  -6.813 +0.00 +0.00    +0.217 C  
DOCKED: ATOM     41  O1  UNL     1       6.413  -1.662  -6.979 +0.00 -0.00    -0.276 OA 
DOCKED: ATOM     42  H9  UNL     1       9.290  -2.254  -5.861 +0.00 +0.00    +0.149 HD 
DOCKED: BRANCH  39  43
DOCKED: ATOM     43  C4  UNL     1       7.760  -3.506  -5.140 +0.00 +0.00    +0.161 C  
DOCKED: BRANCH  43  44
DOCKED: ATOM     44  C30 UNL     1       7.566  -4.773  -6.034 +0.00 +0.00    +0.234 C  
DOCKED: ATOM     45  O7  UNL     1       8.176  -5.831  -5.866 +0.00 -0.00    -0.274 OA 
DOCKED: ATOM     46  N5  UNL     1       6.725  -4.574  -7.103 +0.00 -0.00    -0.310 N  
DOCKED: ATOM     47  H46 UNL     1       6.104  -3.764  -7.060 +0.00 +0.00    +0.149 HD 
DOCKED: BRANCH  46  48
DOCKED: ATOM     48  C31 UNL     1       6.562  -5.505  -8.185 +0.00 +0.00    +0.139 C  
DOCKED: BRANCH  48  49
DOCKED: ATOM     49  C32 UNL     1       7.740  -5.416  -9.121 +0.00 -0.00    -0.027 A  
DOCKED: ATOM     50  C33 UNL     1       7.710  -4.564 -10.231 +0.00 +0.00    +0.025 A  
DOCKED: ATOM     51  C34 UNL     1       8.842  -4.480 -11.031 +0.00 +0.00    +0.111 A  
DOCKED: ATOM     52  N6  UNL     1       9.978  -5.177 -10.812 +0.00 -0.00    -0.263 NA 
DOCKED: ATOM     53  C35 UNL     1       9.984  -5.986  -9.731 +0.00 +0.00    +0.111 A  
DOCKED: ATOM     54  C36 UNL     1       8.908  -6.136  -8.867 +0.00 +0.00    +0.025 A  
DOCKED: ENDBRANCH  48  49
DOCKED: ENDBRANCH  46  48
DOCKED: ENDBRANCH  43  44
DOCKED: BRANCH  43  56
DOCKED: ATOM     55  C1  UNL     1       5.800  -4.465  -3.797 +0.00 +0.00    +0.009 C  
DOCKED: ATOM     56  C2  UNL     1       6.442  -3.191  -4.367 +0.00 +0.00    +0.012 C  
DOCKED: ATOM     57  C3  UNL     1       6.629  -2.161  -3.244 +0.00 +0.00    +0.009 C  
DOCKED: ENDBRANCH  43  56
DOCKED: ENDBRANCH  39  43
DOCKED: ENDBRANCH  37  40
DOCKED: ENDBRANCH  36  37
DOCKED: ENDBRANCH  33  36
DOCKED: ENDBRANCH   1  33
DOCKED: TORSDOF 21
DOCKED: TER
DOCKED: ENDMDL
________________________________________________________________________________


    FINAL DOCKED STATE:
    ________________________


Run:   11 / 20
Time taken for this run:   1.475s

DOCKED: MODEL        11
DOCKED: USER    Run = 11
DOCKED: USER
DOCKED: USER    Estimated Free Energy of Binding    =  +6.26 kcal/mol  [=(1)+(2)+(3)-(4)]
DOCKED: USER
DOCKED: USER    (1) Final Intermolecular Energy     =  +0.00 kcal/mol
DOCKED: USER        vdW + Hbond + desolv Energy     =  +0.00 kcal/mol
DOCKED: USER        Electrostatic Energy            =  +0.00 kcal/mol
DOCKED: USER        Moving Ligand-Fixed Receptor    =  +0.00 kcal/mol
DOCKED: USER        Moving Ligand-Moving Receptor   =  +0.00 kcal/mol
DOCKED: USER    (2) Final Total Internal Energy     = -14.00 kcal/mol
DOCKED: USER    (3) Torsional Free Energy           =  +6.26 kcal/mol
DOCKED: USER    (4) Unbound System's Energy         = -14.00 kcal/mol
DOCKED: USER
DOCKED: USER
DOCKED: REMARK  Name = ligands/ligand_13.pdb
DOCKED: REMARK  28 active torsions:
DOCKED: REMARK  status: ('A' for Active; 'I' for Inactive)
DOCKED: REMARK    1  A    between atoms: C1_1  and  C2_2
DOCKED: REMARK    2  A    between atoms: C2_2  and  C3_3
DOCKED: REMARK    3  A    between atoms: C2_2  and  C4_4
DOCKED: REMARK    4  A    between atoms: C4_4  and  N1_5
DOCKED: REMARK    5  A    between atoms: C4_4  and  C30_42
DOCKED: REMARK    6  A    between atoms: C5_6  and  C6_8
DOCKED: REMARK    7  A    between atoms: C6_8  and  C7_9
DOCKED: REMARK    8  A    between atoms: C6_8  and  C8_10
DOCKED: REMARK    9  A    between atoms: C8_10  and  C9_11
DOCKED: REMARK   10  A    between atoms: C9_11  and  O2_12
DOCKED: REMARK   11  A    between atoms: C9_11  and  C10_13
DOCKED: REMARK   12  A    between atoms: C10_13  and  C11_14
DOCKED: REMARK   13  A    between atoms: C10_13  and  N2_21
DOCKED: REMARK   14  A    between atoms: C11_14  and  C12_15
DOCKED: REMARK   15  A    between atoms: C18_22  and  C19_24
DOCKED: REMARK   16  A    between atoms: C19_24  and  C20_25
DOCKED: REMARK   17  A    between atoms: C19_24  and  N3_26
DOCKED: REMARK   18  A    between atoms: C21_27  and  C22_29
DOCKED: REMARK   19  A    between atoms: C22_29  and  C23_30
DOCKED: REMARK   20  A    between atoms: C22_29  and  N4_34
DOCKED: REMARK   21  A    between atoms: C23_30  and  C24_31
DOCKED: REMARK   22  A    between atoms: C25_35  and  O6_37
DOCKED: REMARK   23  A    between atoms: O6_37  and  C26_38
DOCKED: REMARK   24  A    between atoms: C26_38  and  C27_39
DOCKED: REMARK   25  A    between atoms: C26_38  and  C28_40
DOCKED: REMARK   26  A    between atoms: C26_38  and  C29_41
DOCKED: REMARK   27  A    between atoms: N5_44  and  C31_45
DOCKED: REMARK   28  A    between atoms: C31_45  and  C32_46
DOCKED: REMARK                            x       y       z     vdW  Elec       q    Type
DOCKED: REMARK                         _______ _______ _______ _____ _____    ______ ____
DOCKED: USER                              x       y       z     vdW  Elec       q    Type
DOCKED: USER                           _______ _______ _______ _____ _____    ______ ____
DOCKED: ROOT
DOCKED: ATOM      1  C10 UNL     1      15.207   3.257  -4.622 +0.00 +0.00    +0.106 C  
DOCKED: ENDROOT
DOCKED: BRANCH   1   2
DOCKED: ATOM      2  N2  UNL     1      14.652   4.192  -3.637 +0.00 -0.00    -0.308 N  
DOCKED: ATOM      3  C18 UNL     1      15.173   5.415  -3.294 +0.00 +0.00    +0.233 C  
DOCKED: ATOM      4  O3  UNL     1      16.298   5.775  -3.643 +0.00 -0.00    -0.274 OA 
DOCKED: ATOM      5  H26 UNL     1      13.707   4.011  -3.312 +0.00 +0.00    +0.149 HD 
DOCKED: BRANCH   3   6
DOCKED: ATOM      6  C19 UNL     1      14.252   6.324  -2.449 +0.00 +0.00    +0.156 C  
DOCKED: ATOM      7  C20 UNL     1      15.078   7.259  -1.566 +0.00 +0.00    +0.038 C  
DOCKED: BRANCH   6   8
DOCKED: ATOM      8  N3  UNL     1      13.164   5.657  -1.721 +0.00 -0.00    -0.303 N  
DOCKED: ATOM      9  C21 UNL     1      11.975   5.239  -2.284 +0.00 +0.00    +0.234 C  
DOCKED: ATOM     10  O4  UNL     1      11.607   5.607  -3.395 +0.00 -0.00    -0.274 OA 
DOCKED: ATOM     11  H31 UNL     1      13.386   5.307  -0.788 +0.00 +0.00    +0.149 HD 
DOCKED: BRANCH   9  12
DOCKED: ATOM     12  C22 UNL     1      11.098   4.387  -1.342 +0.00 +0.00    +0.167 C  
DOCKED: BRANCH  12  13
DOCKED: ATOM     13  N4  UNL     1      11.394   2.986  -1.627 +0.00 -0.00    -0.270 N  
DOCKED: ATOM     14  C25 UNL     1      12.657   2.488  -1.504 +0.00 +0.00    +0.401 C  
DOCKED: ATOM     15  O5  UNL     1      13.643   3.179  -1.302 +0.00 -0.00    -0.226 OA 
DOCKED: ATOM     16  H36 UNL     1      10.669   2.282  -1.522 +0.00 +0.00    +0.153 HD 
DOCKED: BRANCH  14  17
DOCKED: ATOM     17  O6  UNL     1      12.608   1.142  -1.567 +0.00 -0.00    -0.445 OA 
DOCKED: BRANCH  17  18
DOCKED: ATOM     18  C26 UNL     1      12.333   0.352  -0.381 +0.00 +0.00    +0.107 C  
DOCKED: ATOM     19  C27 UNL     1      10.823   0.194  -0.169 +0.00 +0.00    +0.055 C  
DOCKED: ATOM     20  C28 UNL     1      13.051  -1.001  -0.426 +0.00 +0.00    +0.055 C  
DOCKED: ATOM     21  C29 UNL     1      12.920   1.181   0.775 +0.00 +0.00    +0.055 C  
DOCKED: ENDBRANCH  17  18
DOCKED: ENDBRANCH  14  17
DOCKED: ENDBRANCH  12  13
DOCKED: BRANCH  12  22
DOCKED: ATOM     22  C23 UNL     1      11.368   4.720   0.124 +0.00 +0.00    +0.103 C  
DOCKED: BRANCH  22  23
DOCKED: ATOM     23  C24 UNL     1      10.321   4.108   1.026 +0.00 +0.00    +0.343 C  
DOCKED: ATOM     24  F1  UNL     1      10.914   3.212   1.853 +0.00 -0.00    -0.209 F  
DOCKED: ATOM     25  F2  UNL     1       9.432   3.414   0.273 +0.00 -0.00    -0.209 F  
DOCKED: ENDBRANCH  22  23
DOCKED: ENDBRANCH  12  22
DOCKED: ENDBRANCH   9  12
DOCKED: ENDBRANCH   6   8
DOCKED: ENDBRANCH   3   6
DOCKED: ENDBRANCH   1   2
DOCKED: BRANCH   1  26
DOCKED: ATOM     26  C11 UNL     1      16.563   2.710  -4.120 +0.00 +0.00    +0.060 C  
DOCKED: BRANCH  26  27
DOCKED: ATOM     27  C12 UNL     1      16.478   2.063  -2.756 +0.00 -0.00    -0.046 A  
DOCKED: ATOM     28  C13 UNL     1      16.600   2.837  -1.593 +0.00 +0.00    +0.004 A  
DOCKED: ATOM     29  C14 UNL     1      16.484   2.244  -0.335 +0.00 +0.00    +0.000 A  
DOCKED: ATOM     30  C15 UNL     1      16.249   0.875  -0.231 +0.00 +0.00    +0.000 A  
DOCKED: ATOM     31  C16 UNL     1      16.140   0.097  -1.378 +0.00 +0.00    +0.000 A  
DOCKED: ATOM     32  C17 UNL     1      16.251   0.686  -2.638 +0.00 +0.00    +0.004 A  
DOCKED: ENDBRANCH  26  27
DOCKED: ENDBRANCH   1  26
DOCKED: BRANCH   1  33
DOCKED: ATOM     33  C9  UNL     1      14.247   2.124  -5.088 +0.00 +0.00    +0.136 C  
DOCKED: BRANCH  33  34
DOCKED: ATOM     34  O2  UNL     1      13.136   1.986  -4.206 +0.00 -0.00    -0.390 OA 
DOCKED: ATOM     35  H17 UNL     1      13.471   2.096  -3.288 +0.00 +0.00    +0.210 HD 
DOCKED: ENDBRANCH  33  34
DOCKED: BRANCH  33  36
DOCKED: ATOM     36  C8  UNL     1      13.747   2.280  -6.539 +0.00 +0.00    +0.045 C  
DOCKED: BRANCH  36  37
DOCKED: ATOM     37  C6  UNL     1      12.917   3.569  -6.800 +0.00 +0.00    +0.074 C  
DOCKED: ATOM     38  C7  UNL     1      13.049   4.078  -8.237 +0.00 +0.00    +0.017 C  
DOCKED: BRANCH  37  40
DOCKED: ATOM     39  N1  UNL     1      11.186   3.627  -5.093 +0.00 -0.00    -0.304 N  
DOCKED: ATOM     40  C5  UNL     1      11.449   3.374  -6.422 +0.00 +0.00    +0.217 C  
DOCKED: ATOM     41  O1  UNL     1      10.600   3.019  -7.236 +0.00 -0.00    -0.276 OA 
DOCKED: ATOM     42  H9  UNL     1      12.007   3.808  -4.539 +0.00 +0.00    +0.149 HD 
DOCKED: BRANCH  39  43
DOCKED: ATOM     43  C4  UNL     1      10.070   3.009  -4.352 +0.00 +0.00    +0.161 C  
DOCKED: BRANCH  43  44
DOCKED: ATOM     44  C30 UNL     1      10.104   1.457  -4.174 +0.00 +0.00    +0.234 C  
DOCKED: ATOM     45  O7  UNL     1      10.137   0.893  -3.079 +0.00 -0.00    -0.274 OA 
DOCKED: ATOM     46  N5  UNL     1      10.203   0.765  -5.358 +0.00 -0.00    -0.310 N  
DOCKED: ATOM     47  H46 UNL     1       9.961   1.270  -6.212 +0.00 +0.00    +0.149 HD 
DOCKED: BRANCH  46  48
DOCKED: ATOM     48  C31 UNL     1      10.475  -0.643  -5.449 +0.00 +0.00    +0.139 C  
DOCKED: BRANCH  48  49
DOCKED: ATOM     49  C32 UNL     1      11.940  -0.900  -5.206 +0.00 -0.00    -0.027 A  
DOCKED: ATOM     50  C33 UNL     1      12.846  -0.942  -6.272 +0.00 +0.00    +0.025 A  
DOCKED: ATOM     51  C34 UNL     1      14.193  -1.130  -5.988 +0.00 +0.00    +0.111 A  
DOCKED: ATOM     52  N6  UNL     1      14.691  -1.281  -4.741 +0.00 -0.00    -0.263 NA 
DOCKED: ATOM     53  C35 UNL     1      13.798  -1.228  -3.730 +0.00 +0.00    +0.111 A  
DOCKED: ATOM     54  C36 UNL     1      12.433  -1.041  -3.908 +0.00 +0.00    +0.025 A  
DOCKED: ENDBRANCH  48  49
DOCKED: ENDBRANCH  46  48
DOCKED: ENDBRANCH  43  44
DOCKED: BRANCH  43  56
DOCKED: ATOM     55  C1  UNL     1       7.531   2.659  -4.336 +0.00 +0.00    +0.009 C  
DOCKED: ATOM     56  C2  UNL     1       8.698   3.447  -4.952 +0.00 +0.00    +0.012 C  
DOCKED: ATOM     57  C3  UNL     1       8.429   4.953  -4.817 +0.00 +0.00    +0.009 C  
DOCKED: ENDBRANCH  43  56
DOCKED: ENDBRANCH  39  43
DOCKED: ENDBRANCH  37  40
DOCKED: ENDBRANCH  36  37
DOCKED: ENDBRANCH  33  36
DOCKED: ENDBRANCH   1  33
DOCKED: TORSDOF 21
DOCKED: TER
DOCKED: ENDMDL
________________________________________________________________________________


    FINAL DOCKED STATE:
    ________________________


Run:   12 / 20
Time taken for this run:   1.475s

DOCKED: MODEL        12
DOCKED: USER    Run = 12
DOCKED: USER
DOCKED: USER    Estimated Free Energy of Binding    =  +6.26 kcal/mol  [=(1)+(2)+(3)-(4)]
DOCKED: USER
DOCKED: USER    (1) Final Intermolecular Energy     =  +0.00 kcal/mol
DOCKED: USER        vdW + Hbond + desolv Energy     =  +0.00 kcal/mol
DOCKED: USER        Electrostatic Energy            =  +0.00 kcal/mol
DOCKED: USER        Moving Ligand-Fixed Receptor    =  +0.00 kcal/mol
DOCKED: USER        Moving Ligand-Moving Receptor   =  +0.00 kcal/mol
DOCKED: USER    (2) Final Total Internal Energy     = -14.00 kcal/mol
DOCKED: USER    (3) Torsional Free Energy           =  +6.26 kcal/mol
DOCKED: USER    (4) Unbound System's Energy         = -14.00 kcal/mol
DOCKED: USER
DOCKED: USER
DOCKED: REMARK  Name = ligands/ligand_13.pdb
DOCKED: REMARK  28 active torsions:
DOCKED: REMARK  status: ('A' for Active; 'I' for Inactive)
DOCKED: REMARK    1  A    between atoms: C1_1  and  C2_2
DOCKED: REMARK    2  A    between atoms: C2_2  and  C3_3
DOCKED: REMARK    3  A    between atoms: C2_2  and  C4_4
DOCKED: REMARK    4  A    between atoms: C4_4  and  N1_5
DOCKED: REMARK    5  A    between atoms: C4_4  and  C30_42
DOCKED: REMARK    6  A    between atoms: C5_6  and  C6_8
DOCKED: REMARK    7  A    between atoms: C6_8  and  C7_9
DOCKED: REMARK    8  A    between atoms: C6_8  and  C8_10
DOCKED: REMARK    9  A    between atoms: C8_10  and  C9_11
DOCKED: REMARK   10  A    between atoms: C9_11  and  O2_12
DOCKED: REMARK   11  A    between atoms: C9_11  and  C10_13
DOCKED: REMARK   12  A    between atoms: C10_13  and  C11_14
DOCKED: REMARK   13  A    between atoms: C10_13  and  N2_21
DOCKED: REMARK   14  A    between atoms: C11_14  and  C12_15
DOCKED: REMARK   15  A    between atoms: C18_22  and  C19_24
DOCKED: REMARK   16  A    between atoms: C19_24  and  C20_25
DOCKED: REMARK   17  A    between atoms: C19_24  and  N3_26
DOCKED: REMARK   18  A    between atoms: C21_27  and  C22_29
DOCKED: REMARK   19  A    between atoms: C22_29  and  C23_30
DOCKED: REMARK   20  A    between atoms: C22_29  and  N4_34
DOCKED: REMARK   21  A    between atoms: C23_30  and  C24_31
DOCKED: REMARK   22  A    between atoms: C25_35  and  O6_37
DOCKED: REMARK   23  A    between atoms: O6_37  and  C26_38
DOCKED: REMARK   24  A    between atoms: C26_38  and  C27_39
DOCKED: REMARK   25  A    between atoms: C26_38  and  C28_40
DOCKED: REMARK   26  A    between atoms: C26_38  and  C29_41
DOCKED: REMARK   27  A    between atoms: N5_44  and  C31_45
DOCKED: REMARK   28  A    between atoms: C31_45  and  C32_46
DOCKED: REMARK                            x       y       z     vdW  Elec       q    Type
DOCKED: REMARK                         _______ _______ _______ _____ _____    ______ ____
DOCKED: USER                              x       y       z     vdW  Elec       q    Type
DOCKED: USER                           _______ _______ _______ _____ _____    ______ ____
DOCKED: ROOT
DOCKED: ATOM      1  C10 UNL     1      10.992  -9.834  -5.664 +0.00 +0.00    +0.106 C  
DOCKED: ENDROOT
DOCKED: BRANCH   1   2
DOCKED: ATOM      2  N2  UNL     1      11.933  -9.188  -4.740 +0.00 -0.00    -0.308 N  
DOCKED: ATOM      3  C18 UNL     1      13.165  -9.669  -4.368 +0.00 +0.00    +0.233 C  
DOCKED: ATOM      4  O3  UNL     1      13.531 -10.817  -4.623 +0.00 -0.00    -0.274 OA 
DOCKED: ATOM      5  H26 UNL     1      11.747  -8.221  -4.496 +0.00 +0.00    +0.149 HD 
DOCKED: BRANCH   3   6
DOCKED: ATOM      6  C19 UNL     1      14.074  -8.671  -3.615 +0.00 +0.00    +0.156 C  
DOCKED: ATOM      7  C20 UNL     1      15.007  -9.409  -2.655 +0.00 +0.00    +0.038 C  
DOCKED: BRANCH   6   8
DOCKED: ATOM      8  N3  UNL     1      13.409  -7.516  -2.999 +0.00 -0.00    -0.303 N  
DOCKED: ATOM      9  C21 UNL     1      12.968  -6.399  -3.680 +0.00 +0.00    +0.234 C  
DOCKED: ATOM     10  O4  UNL     1      13.311  -6.152  -4.831 +0.00 -0.00    -0.274 OA 
DOCKED: ATOM     11  H31 UNL     1      13.077  -7.637  -2.040 +0.00 +0.00    +0.149 HD 
DOCKED: BRANCH   9  12
DOCKED: ATOM     12  C22 UNL     1      12.123  -5.432  -2.824 +0.00 +0.00    +0.167 C  
DOCKED: BRANCH  12  13
DOCKED: ATOM     13  N4  UNL     1      10.720  -5.773  -3.044 +0.00 -0.00    -0.270 N  
DOCKED: ATOM     14  C25 UNL     1      10.243  -7.022  -2.776 +0.00 +0.00    +0.401 C  
DOCKED: ATOM     15  O5  UNL     1      10.953  -7.972  -2.487 +0.00 -0.00    -0.226 OA 
DOCKED: ATOM     16  H36 UNL     1      10.009  -5.050  -3.000 +0.00 +0.00    +0.153 HD 
DOCKED: BRANCH  14  17
DOCKED: ATOM     17  O6  UNL     1       8.895  -6.996  -2.813 +0.00 -0.00    -0.445 OA 
DOCKED: BRANCH  17  18
DOCKED: ATOM     18  C26 UNL     1       8.127  -6.625  -1.639 +0.00 +0.00    +0.107 C  
DOCKED: ATOM     19  C27 UNL     1       7.969  -5.102  -1.552 +0.00 +0.00    +0.055 C  
DOCKED: ATOM     20  C28 UNL     1       6.776  -7.346  -1.599 +0.00 +0.00    +0.055 C  
DOCKED: ATOM     21  C29 UNL     1       8.979  -7.112  -0.454 +0.00 +0.00    +0.055 C  
DOCKED: ENDBRANCH  17  18
DOCKED: ENDBRANCH  14  17
DOCKED: ENDBRANCH  12  13
DOCKED: BRANCH  12  22
DOCKED: ATOM     22  C23 UNL     1      12.489  -5.533  -1.345 +0.00 +0.00    +0.103 C  
DOCKED: BRANCH  22  23
DOCKED: ATOM     23  C24 UNL     1      11.886  -4.395  -0.553 +0.00 +0.00    +0.343 C  
DOCKED: ATOM     24  F1  UNL     1      10.953  -4.889   0.298 +0.00 -0.00    -0.209 F  
DOCKED: ATOM     25  F2  UNL     1      11.239  -3.556  -1.398 +0.00 -0.00    -0.209 F  
DOCKED: ENDBRANCH  22  23
DOCKED: ENDBRANCH  12  22
DOCKED: ENDBRANCH   9  12
DOCKED: ENDBRANCH   6   8
DOCKED: ENDBRANCH   3   6
DOCKED: ENDBRANCH   1   2
DOCKED: BRANCH   1  26
DOCKED: ATOM     26  C11 UNL     1      10.468 -11.149  -5.043 +0.00 +0.00    +0.060 C  
DOCKED: BRANCH  26  27
DOCKED: ATOM     27  C12 UNL     1       9.832 -10.957  -3.685 +0.00 -0.00    -0.046 A  
DOCKED: ATOM     28  C13 UNL     1      10.618 -10.959  -2.524 +0.00 +0.00    +0.004 A  
DOCKED: ATOM     29  C14 UNL     1      10.034 -10.745  -1.275 +0.00 +0.00    +0.000 A  
DOCKED: ATOM     30  C15 UNL     1       8.661 -10.529  -1.178 +0.00 +0.00    +0.000 A  
DOCKED: ATOM     31  C16 UNL     1       7.871 -10.539  -2.321 +0.00 +0.00    +0.000 A  
DOCKED: ATOM     32  C17 UNL     1       8.451 -10.749  -3.573 +0.00 +0.00    +0.004 A  
DOCKED: ENDBRANCH  26  27
DOCKED: ENDBRANCH   1  26
DOCKED: BRANCH   1  33
DOCKED: ATOM     33  C9  UNL     1       9.842  -8.928  -6.192 +0.00 +0.00    +0.136 C  
DOCKED: BRANCH  33  34
DOCKED: ATOM     34  O2  UNL     1       9.731  -7.728  -5.431 +0.00 -0.00    -0.390 OA 
DOCKED: ATOM     35  H17 UNL     1       9.849  -7.967  -4.484 +0.00 +0.00    +0.210 HD 
DOCKED: ENDBRANCH  33  34
DOCKED: BRANCH  33  36
DOCKED: ATOM     36  C8  UNL     1       9.949  -8.588  -7.693 +0.00 +0.00    +0.045 C  
DOCKED: BRANCH  36  37
DOCKED: ATOM     37  C6  UNL     1      11.200  -7.747  -8.076 +0.00 +0.00    +0.074 C  
DOCKED: ATOM     38  C7  UNL     1      11.666  -7.997  -9.512 +0.00 +0.00    +0.017 C  
DOCKED: BRANCH  37  40
DOCKED: ATOM     39  N1  UNL     1      11.277  -5.858  -6.545 +0.00 -0.00    -0.304 N  
DOCKED: ATOM     40  C5  UNL     1      10.969  -6.256  -7.829 +0.00 +0.00    +0.217 C  
DOCKED: ATOM     41  O1  UNL     1      10.541  -5.501  -8.698 +0.00 -0.00    -0.276 OA 
DOCKED: ATOM     42  H9  UNL     1      11.517  -6.616  -5.927 +0.00 +0.00    +0.149 HD 
DOCKED: BRANCH  39  43
DOCKED: ATOM     43  C4  UNL     1      10.656  -4.697  -5.882 +0.00 +0.00    +0.161 C  
DOCKED: BRANCH  43  44
DOCKED: ATOM     44  C30 UNL     1       9.109  -4.744  -5.663 +0.00 +0.00    +0.234 C  
DOCKED: ATOM     45  O7  UNL     1       8.571  -4.702  -4.555 +0.00 -0.00    -0.274 OA 
DOCKED: ATOM     46  N5  UNL     1       8.392  -4.946  -6.818 +0.00 -0.00    -0.310 N  
DOCKED: ATOM     47  H46 UNL     1       8.872  -4.762  -7.701 +0.00 +0.00    +0.149 HD 
DOCKED: BRANCH  46  48
DOCKED: ATOM     48  C31 UNL     1       6.988  -5.248  -6.854 +0.00 +0.00    +0.139 C  
DOCKED: BRANCH  48  49
DOCKED: ATOM     49  C32 UNL     1       6.762  -6.689  -6.475 +0.00 -0.00    -0.027 A  
DOCKED: ATOM     50  C33 UNL     1       6.705  -7.687  -7.454 +0.00 +0.00    +0.025 A  
DOCKED: ATOM     51  C34 UNL     1       6.548  -9.006  -7.047 +0.00 +0.00    +0.111 A  
DOCKED: ATOM     52  N6  UNL     1       6.441  -9.393  -5.757 +0.00 -0.00    -0.263 NA 
DOCKED: ATOM     53  C35 UNL     1       6.507  -8.412  -4.831 +0.00 +0.00    +0.111 A  
DOCKED: ATOM     54  C36 UNL     1       6.666  -7.067  -5.135 +0.00 +0.00    +0.025 A  
DOCKED: ENDBRANCH  48  49
DOCKED: ENDBRANCH  46  48
DOCKED: ENDBRANCH  43  44
DOCKED: BRANCH  43  56
DOCKED: ATOM     55  C1  UNL     1      10.280  -2.167  -6.038 +0.00 +0.00    +0.009 C  
DOCKED: ATOM     56  C2  UNL     1      11.053  -3.370  -6.599 +0.00 +0.00    +0.012 C  
DOCKED: ATOM     57  C3  UNL     1      12.561  -3.082  -6.550 +0.00 +0.00    +0.009 C  
DOCKED: ENDBRANCH  43  56
DOCKED: ENDBRANCH  39  43
DOCKED: ENDBRANCH  37  40
DOCKED: ENDBRANCH  36  37
DOCKED: ENDBRANCH  33  36
DOCKED: ENDBRANCH   1  33
DOCKED: TORSDOF 21
DOCKED: TER
DOCKED: ENDMDL
________________________________________________________________________________


    FINAL DOCKED STATE:
    ________________________


Run:   13 / 20
Time taken for this run:   1.475s

DOCKED: MODEL        13
DOCKED: USER    Run = 13
DOCKED: USER
DOCKED: USER    Estimated Free Energy of Binding    =  +6.26 kcal/mol  [=(1)+(2)+(3)-(4)]
DOCKED: USER
DOCKED: USER    (1) Final Intermolecular Energy     =  +0.00 kcal/mol
DOCKED: USER        vdW + Hbond + desolv Energy     =  +0.00 kcal/mol
DOCKED: USER        Electrostatic Energy            =  +0.00 kcal/mol
DOCKED: USER        Moving Ligand-Fixed Receptor    =  +0.00 kcal/mol
DOCKED: USER        Moving Ligand-Moving Receptor   =  +0.00 kcal/mol
DOCKED: USER    (2) Final Total Internal Energy     = -14.00 kcal/mol
DOCKED: USER    (3) Torsional Free Energy           =  +6.26 kcal/mol
DOCKED: USER    (4) Unbound System's Energy         = -14.00 kcal/mol
DOCKED: USER
DOCKED: USER
DOCKED: REMARK  Name = ligands/ligand_13.pdb
DOCKED: REMARK  28 active torsions:
DOCKED: REMARK  status: ('A' for Active; 'I' for Inactive)
DOCKED: REMARK    1  A    between atoms: C1_1  and  C2_2
DOCKED: REMARK    2  A    between atoms: C2_2  and  C3_3
DOCKED: REMARK    3  A    between atoms: C2_2  and  C4_4
DOCKED: REMARK    4  A    between atoms: C4_4  and  N1_5
DOCKED: REMARK    5  A    between atoms: C4_4  and  C30_42
DOCKED: REMARK    6  A    between atoms: C5_6  and  C6_8
DOCKED: REMARK    7  A    between atoms: C6_8  and  C7_9
DOCKED: REMARK    8  A    between atoms: C6_8  and  C8_10
DOCKED: REMARK    9  A    between atoms: C8_10  and  C9_11
DOCKED: REMARK   10  A    between atoms: C9_11  and  O2_12
DOCKED: REMARK   11  A    between atoms: C9_11  and  C10_13
DOCKED: REMARK   12  A    between atoms: C10_13  and  C11_14
DOCKED: REMARK   13  A    between atoms: C10_13  and  N2_21
DOCKED: REMARK   14  A    between atoms: C11_14  and  C12_15
DOCKED: REMARK   15  A    between atoms: C18_22  and  C19_24
DOCKED: REMARK   16  A    between atoms: C19_24  and  C20_25
DOCKED: REMARK   17  A    between atoms: C19_24  and  N3_26
DOCKED: REMARK   18  A    between atoms: C21_27  and  C22_29
DOCKED: REMARK   19  A    between atoms: C22_29  and  C23_30
DOCKED: REMARK   20  A    between atoms: C22_29  and  N4_34
DOCKED: REMARK   21  A    between atoms: C23_30  and  C24_31
DOCKED: REMARK   22  A    between atoms: C25_35  and  O6_37
DOCKED: REMARK   23  A    between atoms: O6_37  and  C26_38
DOCKED: REMARK   24  A    between atoms: C26_38  and  C27_39
DOCKED: REMARK   25  A    between atoms: C26_38  and  C28_40
DOCKED: REMARK   26  A    between atoms: C26_38  and  C29_41
DOCKED: REMARK   27  A    between atoms: N5_44  and  C31_45
DOCKED: REMARK   28  A    between atoms: C31_45  and  C32_46
DOCKED: REMARK                            x       y       z     vdW  Elec       q    Type
DOCKED: REMARK                         _______ _______ _______ _____ _____    ______ ____
DOCKED: USER                              x       y       z     vdW  Elec       q    Type
DOCKED: USER                           _______ _______ _______ _____ _____    ______ ____
DOCKED: ROOT
DOCKED: ATOM      1  C10 UNL     1      14.331  -7.434  -1.924 +0.00 +0.00    +0.106 C  
DOCKED: ENDROOT
DOCKED: BRANCH   1   2
DOCKED: ATOM      2  N2  UNL     1      14.569  -6.021  -2.241 +0.00 -0.00    -0.308 N  
DOCKED: ATOM      3  C18 UNL     1      15.764  -5.466  -2.629 +0.00 +0.00    +0.233 C  
DOCKED: ATOM      4  O3  UNL     1      16.832  -6.077  -2.555 +0.00 -0.00    -0.274 OA 
DOCKED: ATOM      5  H26 UNL     1      13.752  -5.433  -2.367 +0.00 +0.00    +0.149 HD 
DOCKED: BRANCH   3   6
DOCKED: ATOM      6  C19 UNL     1      15.687  -4.023  -3.178 +0.00 +0.00    +0.156 C  
DOCKED: ATOM      7  C20 UNL     1      16.980  -3.263  -2.883 +0.00 +0.00    +0.038 C  
DOCKED: BRANCH   6   8
DOCKED: ATOM      8  N3  UNL     1      14.480  -3.259  -2.840 +0.00 -0.00    -0.303 N  
DOCKED: ATOM      9  C21 UNL     1      13.218  -3.508  -3.342 +0.00 +0.00    +0.234 C  
DOCKED: ATOM     10  O4  UNL     1      13.027  -4.236  -4.310 +0.00 -0.00    -0.274 OA 
DOCKED: ATOM     11  H31 UNL     1      14.545  -2.633  -2.035 +0.00 +0.00    +0.149 HD 
DOCKED: BRANCH   9  12
DOCKED: ATOM     12  C22 UNL     1      12.098  -2.688  -2.666 +0.00 +0.00    +0.167 C  
DOCKED: BRANCH  12  13
DOCKED: ATOM     13  N4  UNL     1      11.518  -3.528  -1.623 +0.00 -0.00    -0.270 N  
DOCKED: ATOM     14  C25 UNL     1      12.294  -4.098  -0.657 +0.00 +0.00    +0.401 C  
DOCKED: ATOM     15  O5  UNL     1      13.514  -4.084  -0.670 +0.00 -0.00    -0.226 OA 
DOCKED: ATOM     16  H36 UNL     1      10.553  -3.390  -1.338 +0.00 +0.00    +0.153 HD 
DOCKED: BRANCH  14  17
DOCKED: ATOM     17  O6  UNL     1      11.498  -4.593   0.313 +0.00 -0.00    -0.445 OA 
DOCKED: BRANCH  17  18
DOCKED: ATOM     18  C26 UNL     1      11.196  -3.811   1.497 +0.00 +0.00    +0.107 C  
DOCKED: ATOM     19  C27 UNL     1      10.937  -4.723   2.701 +0.00 +0.00    +0.055 C  
DOCKED: ATOM     20  C28 UNL     1      12.291  -2.778   1.784 +0.00 +0.00    +0.055 C  
DOCKED: ATOM     21  C29 UNL     1       9.898  -3.064   1.142 +0.00 +0.00    +0.055 C  
DOCKED: ENDBRANCH  17  18
DOCKED: ENDBRANCH  14  17
DOCKED: ENDBRANCH  12  13
DOCKED: BRANCH  12  22
DOCKED: ATOM     22  C23 UNL     1      12.636  -1.382  -2.086 +0.00 +0.00    +0.103 C  
DOCKED: BRANCH  22  23
DOCKED: ATOM     23  C24 UNL     1      11.516  -0.513  -1.562 +0.00 +0.00    +0.343 C  
DOCKED: ATOM     24  F1  UNL     1      11.534  -0.533  -0.206 +0.00 -0.00    -0.209 F  
DOCKED: ATOM     25  F2  UNL     1      10.327  -1.038  -1.944 +0.00 -0.00    -0.209 F  
DOCKED: ENDBRANCH  22  23
DOCKED: ENDBRANCH  12  22
DOCKED: ENDBRANCH   9  12
DOCKED: ENDBRANCH   6   8
DOCKED: ENDBRANCH   3   6
DOCKED: ENDBRANCH   1   2
DOCKED: BRANCH   1  26
DOCKED: ATOM     26  C11 UNL     1      15.216  -7.860  -0.730 +0.00 +0.00    +0.060 C  
DOCKED: BRANCH  26  27
DOCKED: ATOM     27  C12 UNL     1      14.996  -7.019   0.507 +0.00 -0.00    -0.046 A  
DOCKED: ATOM     28  C13 UNL     1      15.671  -5.800   0.669 +0.00 +0.00    +0.004 A  
DOCKED: ATOM     29  C14 UNL     1      15.438  -5.008   1.793 +0.00 +0.00    +0.000 A  
DOCKED: ATOM     30  C15 UNL     1      14.532  -5.429   2.765 +0.00 +0.00    +0.000 A  
DOCKED: ATOM     31  C16 UNL     1      13.869  -6.642   2.620 +0.00 +0.00    +0.000 A  
DOCKED: ATOM     32  C17 UNL     1      14.095  -7.435   1.495 +0.00 +0.00    +0.004 A  
DOCKED: ENDBRANCH  26  27
DOCKED: ENDBRANCH   1  26
DOCKED: BRANCH   1  33
DOCKED: ATOM     33  C9  UNL     1      12.840  -7.836  -1.729 +0.00 +0.00    +0.136 C  
DOCKED: BRANCH  33  34
DOCKED: ATOM     34  O2  UNL     1      12.000  -6.689  -1.626 +0.00 -0.00    -0.390 OA 
DOCKED: ATOM     35  H17 UNL     1      12.418  -6.072  -0.984 +0.00 +0.00    +0.210 HD 
DOCKED: ENDBRANCH  33  34
DOCKED: BRANCH  33  36
DOCKED: ATOM     36  C8  UNL     1      12.297  -8.786  -2.815 +0.00 +0.00    +0.045 C  
DOCKED: BRANCH  36  37
DOCKED: ATOM     37  C6  UNL     1      12.239  -8.169  -4.241 +0.00 +0.00    +0.074 C  
DOCKED: ATOM     38  C7  UNL     1      12.395  -9.215  -5.348 +0.00 +0.00    +0.017 C  
DOCKED: BRANCH  37  40
DOCKED: ATOM     39  N1  UNL     1      11.096  -6.030  -4.055 +0.00 -0.00    -0.304 N  
DOCKED: ATOM     40  C5  UNL     1      10.966  -7.347  -4.443 +0.00 +0.00    +0.217 C  
DOCKED: ATOM     41  O1  UNL     1       9.933  -7.830  -4.901 +0.00 -0.00    -0.276 OA 
DOCKED: ATOM     42  H9  UNL     1      11.972  -5.819  -3.606 +0.00 +0.00    +0.149 HD 
DOCKED: BRANCH  39  43
DOCKED: ATOM     43  C4  UNL     1       9.962  -5.197  -3.612 +0.00 +0.00    +0.161 C  
DOCKED: BRANCH  43  44
DOCKED: ATOM     44  C30 UNL     1       9.194  -5.659  -2.332 +0.00 +0.00    +0.234 C  
DOCKED: ATOM     45  O7  UNL     1       9.132  -5.000  -1.293 +0.00 -0.00    -0.274 OA 
DOCKED: ATOM     46  N5  UNL     1       8.673  -6.928  -2.427 +0.00 -0.00    -0.310 N  
DOCKED: ATOM     47  H46 UNL     1       8.577  -7.322  -3.364 +0.00 +0.00    +0.149 HD 
DOCKED: BRANCH  46  48
DOCKED: ATOM     48  C31 UNL     1       8.124  -7.659  -1.319 +0.00 +0.00    +0.139 C  
DOCKED: BRANCH  48  49
DOCKED: ATOM     49  C32 UNL     1       9.236  -8.172  -0.440 +0.00 -0.00    -0.027 A  
DOCKED: ATOM     50  C33 UNL     1       9.770  -9.451  -0.634 +0.00 +0.00    +0.025 A  
DOCKED: ATOM     51  C34 UNL     1      10.830  -9.855   0.168 +0.00 +0.00    +0.111 A  
DOCKED: ATOM     52  N6  UNL     1      11.380  -9.090   1.136 +0.00 -0.00    -0.263 NA 
DOCKED: ATOM     53  C35 UNL     1      10.853  -7.859   1.298 +0.00 +0.00    +0.111 A  
DOCKED: ATOM     54  C36 UNL     1       9.798  -7.360   0.546 +0.00 +0.00    +0.025 A  
DOCKED: ENDBRANCH  48  49
DOCKED: ENDBRANCH  46  48
DOCKED: ENDBRANCH  43  44
DOCKED: BRANCH  43  56
DOCKED: ATOM     55  C1  UNL     1       7.686  -4.243  -4.304 +0.00 +0.00    +0.009 C  
DOCKED: ATOM     56  C2  UNL     1       8.958  -4.962  -4.782 +0.00 +0.00    +0.012 C  
DOCKED: ATOM     57  C3  UNL     1       9.570  -4.193  -5.963 +0.00 +0.00    +0.009 C  
DOCKED: ENDBRANCH  43  56
DOCKED: ENDBRANCH  39  43
DOCKED: ENDBRANCH  37  40
DOCKED: ENDBRANCH  36  37
DOCKED: ENDBRANCH  33  36
DOCKED: ENDBRANCH   1  33
DOCKED: TORSDOF 21
DOCKED: TER
DOCKED: ENDMDL
________________________________________________________________________________


    FINAL DOCKED STATE:
    ________________________


Run:   14 / 20
Time taken for this run:   1.475s

DOCKED: MODEL        14
DOCKED: USER    Run = 14
DOCKED: USER
DOCKED: USER    Estimated Free Energy of Binding    =  +6.26 kcal/mol  [=(1)+(2)+(3)-(4)]
DOCKED: USER
DOCKED: USER    (1) Final Intermolecular Energy     =  +0.00 kcal/mol
DOCKED: USER        vdW + Hbond + desolv Energy     =  +0.00 kcal/mol
DOCKED: USER        Electrostatic Energy            =  +0.00 kcal/mol
DOCKED: USER        Moving Ligand-Fixed Receptor    =  +0.00 kcal/mol
DOCKED: USER        Moving Ligand-Moving Receptor   =  +0.00 kcal/mol
DOCKED: USER    (2) Final Total Internal Energy     = -13.98 kcal/mol
DOCKED: USER    (3) Torsional Free Energy           =  +6.26 kcal/mol
DOCKED: USER    (4) Unbound System's Energy         = -13.98 kcal/mol
DOCKED: USER
DOCKED: USER
DOCKED: REMARK  Name = ligands/ligand_13.pdb
DOCKED: REMARK  28 active torsions:
DOCKED: REMARK  status: ('A' for Active; 'I' for Inactive)
DOCKED: REMARK    1  A    between atoms: C1_1  and  C2_2
DOCKED: REMARK    2  A    between atoms: C2_2  and  C3_3
DOCKED: REMARK    3  A    between atoms: C2_2  and  C4_4
DOCKED: REMARK    4  A    between atoms: C4_4  and  N1_5
DOCKED: REMARK    5  A    between atoms: C4_4  and  C30_42
DOCKED: REMARK    6  A    between atoms: C5_6  and  C6_8
DOCKED: REMARK    7  A    between atoms: C6_8  and  C7_9
DOCKED: REMARK    8  A    between atoms: C6_8  and  C8_10
DOCKED: REMARK    9  A    between atoms: C8_10  and  C9_11
DOCKED: REMARK   10  A    between atoms: C9_11  and  O2_12
DOCKED: REMARK   11  A    between atoms: C9_11  and  C10_13
DOCKED: REMARK   12  A    between atoms: C10_13  and  C11_14
DOCKED: REMARK   13  A    between atoms: C10_13  and  N2_21
DOCKED: REMARK   14  A    between atoms: C11_14  and  C12_15
DOCKED: REMARK   15  A    between atoms: C18_22  and  C19_24
DOCKED: REMARK   16  A    between atoms: C19_24  and  C20_25
DOCKED: REMARK   17  A    between atoms: C19_24  and  N3_26
DOCKED: REMARK   18  A    between atoms: C21_27  and  C22_29
DOCKED: REMARK   19  A    between atoms: C22_29  and  C23_30
DOCKED: REMARK   20  A    between atoms: C22_29  and  N4_34
DOCKED: REMARK   21  A    between atoms: C23_30  and  C24_31
DOCKED: REMARK   22  A    between atoms: C25_35  and  O6_37
DOCKED: REMARK   23  A    between atoms: O6_37  and  C26_38
DOCKED: REMARK   24  A    between atoms: C26_38  and  C27_39
DOCKED: REMARK   25  A    between atoms: C26_38  and  C28_40
DOCKED: REMARK   26  A    between atoms: C26_38  and  C29_41
DOCKED: REMARK   27  A    between atoms: N5_44  and  C31_45
DOCKED: REMARK   28  A    between atoms: C31_45  and  C32_46
DOCKED: REMARK                            x       y       z     vdW  Elec       q    Type
DOCKED: REMARK                         _______ _______ _______ _____ _____    ______ ____
DOCKED: USER                              x       y       z     vdW  Elec       q    Type
DOCKED: USER                           _______ _______ _______ _____ _____    ______ ____
DOCKED: ROOT
DOCKED: ATOM      1  C10 UNL     1       8.521  -5.564  -4.889 +0.00 +0.00    +0.106 C  
DOCKED: ENDROOT
DOCKED: BRANCH   1   2
DOCKED: ATOM      2  N2  UNL     1       7.056  -5.475  -4.861 +0.00 -0.00    -0.308 N  
DOCKED: ATOM      3  C18 UNL     1       6.220  -5.518  -5.949 +0.00 +0.00    +0.233 C  
DOCKED: ATOM      4  O3  UNL     1       6.635  -5.433  -7.106 +0.00 -0.00    -0.274 OA 
DOCKED: ATOM      5  H26 UNL     1       6.606  -5.576  -3.957 +0.00 +0.00    +0.149 HD 
DOCKED: BRANCH   3   6
DOCKED: ATOM      6  C19 UNL     1       4.717  -5.693  -5.634 +0.00 +0.00    +0.156 C  
DOCKED: ATOM      7  C20 UNL     1       3.857  -5.013  -6.700 +0.00 +0.00    +0.038 C  
DOCKED: BRANCH   6   8
DOCKED: ATOM      8  N3  UNL     1       4.295  -5.374  -4.264 +0.00 -0.00    -0.303 N  
DOCKED: ATOM      9  C21 UNL     1       4.578  -6.137  -3.149 +0.00 +0.00    +0.234 C  
DOCKED: ATOM     10  O4  UNL     1       4.998  -7.287  -3.228 +0.00 -0.00    -0.274 OA 
DOCKED: ATOM     11  H31 UNL     1       3.942  -4.429  -4.103 +0.00 +0.00    +0.149 HD 
DOCKED: BRANCH   9  12
DOCKED: ATOM     12  C22 UNL     1       4.193  -5.468  -1.812 +0.00 +0.00    +0.167 C  
DOCKED: BRANCH  12  13
DOCKED: ATOM     13  N4  UNL     1       5.389  -4.803  -1.303 +0.00 -0.00    -0.270 N  
DOCKED: ATOM     14  C25 UNL     1       6.068  -3.889  -2.054 +0.00 +0.00    +0.401 C  
DOCKED: ATOM     15  O5  UNL     1       5.834  -3.670  -3.232 +0.00 -0.00    -0.226 OA 
DOCKED: ATOM     16  H36 UNL     1       5.513  -4.677  -0.302 +0.00 +0.00    +0.153 HD 
DOCKED: BRANCH  14  17
DOCKED: ATOM     17  O6  UNL     1       6.956  -3.246  -1.269 +0.00 -0.00    -0.445 OA 
DOCKED: BRANCH  17  18
DOCKED: ATOM     18  C26 UNL     1       6.577  -2.042  -0.553 +0.00 +0.00    +0.107 C  
DOCKED: ATOM     19  C27 UNL     1       5.583  -1.210  -1.372 +0.00 +0.00    +0.055 C  
DOCKED: ATOM     20  C28 UNL     1       6.040  -2.363   0.846 +0.00 +0.00    +0.055 C  
DOCKED: ATOM     21  C29 UNL     1       7.891  -1.255  -0.405 +0.00 +0.00    +0.055 C  
DOCKED: ENDBRANCH  17  18
DOCKED: ENDBRANCH  14  17
DOCKED: ENDBRANCH  12  13
DOCKED: BRANCH  12  22
DOCKED: ATOM     22  C23 UNL     1       3.047  -4.476  -1.996 +0.00 +0.00    +0.103 C  
DOCKED: BRANCH  22  23
DOCKED: ATOM     23  C24 UNL     1       2.581  -3.926  -0.667 +0.00 +0.00    +0.343 C  
DOCKED: ATOM     24  F1  UNL     1       3.075  -2.674  -0.505 +0.00 -0.00    -0.209 F  
DOCKED: ATOM     25  F2  UNL     1       3.095  -4.681   0.334 +0.00 -0.00    -0.209 F  
DOCKED: ENDBRANCH  22  23
DOCKED: ENDBRANCH  12  22
DOCKED: ENDBRANCH   9  12
DOCKED: ENDBRANCH   6   8
DOCKED: ENDBRANCH   3   6
DOCKED: ENDBRANCH   1   2
DOCKED: BRANCH   1  26
DOCKED: ATOM     26  C11 UNL     1       9.104  -4.366  -5.674 +0.00 +0.00    +0.060 C  
DOCKED: BRANCH  26  27
DOCKED: ATOM     27  C12 UNL     1       8.693  -3.025  -5.111 +0.00 -0.00    -0.046 A  
DOCKED: ATOM     28  C13 UNL     1       7.466  -2.448  -5.469 +0.00 +0.00    +0.004 A  
DOCKED: ATOM     29  C14 UNL     1       7.072  -1.228  -4.919 +0.00 +0.00    +0.000 A  
DOCKED: ATOM     30  C15 UNL     1       7.902  -0.574  -4.010 +0.00 +0.00    +0.000 A  
DOCKED: ATOM     31  C16 UNL     1       9.127  -1.131  -3.660 +0.00 +0.00    +0.000 A  
DOCKED: ATOM     32  C17 UNL     1       9.523  -2.353  -4.204 +0.00 +0.00    +0.004 A  
DOCKED: ENDBRANCH  26  27
DOCKED: ENDBRANCH   1  26
DOCKED: BRANCH   1  33
DOCKED: ATOM     33  C9  UNL     1       9.208  -5.755  -3.505 +0.00 +0.00    +0.136 C  
DOCKED: BRANCH  33  34
DOCKED: ATOM     34  O2  UNL     1       8.297  -5.523  -2.434 +0.00 -0.00    -0.390 OA 
DOCKED: ATOM     35  H17 UNL     1       7.831  -4.678  -2.619 +0.00 +0.00    +0.210 HD 
DOCKED: ENDBRANCH  33  34
DOCKED: BRANCH  33  36
DOCKED: ATOM     36  C8  UNL     1       9.890  -7.127  -3.326 +0.00 +0.00    +0.045 C  
DOCKED: BRANCH  36  37
DOCKED: ATOM     37  C6  UNL     1       8.912  -8.336  -3.319 +0.00 +0.00    +0.074 C  
DOCKED: ATOM     38  C7  UNL     1       9.561  -9.627  -3.825 +0.00 +0.00    +0.017 C  
DOCKED: BRANCH  37  40
DOCKED: ATOM     39  N1  UNL     1       7.133  -7.819  -1.743 +0.00 -0.00    -0.304 N  
DOCKED: ATOM     40  C5  UNL     1       8.289  -8.544  -1.939 +0.00 +0.00    +0.217 C  
DOCKED: ATOM     41  O1  UNL     1       8.789  -9.282  -1.093 +0.00 -0.00    -0.276 OA 
DOCKED: ATOM     42  H9  UNL     1       6.914  -7.185  -2.495 +0.00 +0.00    +0.149 HD 
DOCKED: BRANCH  39  43
DOCKED: ATOM     43  C4  UNL     1       6.658  -7.386  -0.416 +0.00 +0.00    +0.161 C  
DOCKED: BRANCH  43  44
DOCKED: ATOM     44  C30 UNL     1       7.595  -6.442   0.404 +0.00 +0.00    +0.234 C  
DOCKED: ATOM     45  O7  UNL     1       7.282  -5.305   0.760 +0.00 -0.00    -0.274 OA 
DOCKED: ATOM     46  N5  UNL     1       8.855  -6.953   0.608 +0.00 -0.00    -0.310 N  
DOCKED: ATOM     47  H46 UNL     1       8.974  -7.959   0.478 +0.00 +0.00    +0.149 HD 
DOCKED: BRANCH  46  48
DOCKED: ATOM     48  C31 UNL     1       9.957  -6.196   1.132 +0.00 +0.00    +0.139 C  
DOCKED: BRANCH  48  49
DOCKED: ATOM     49  C32 UNL     1      10.528  -5.308   0.056 +0.00 -0.00    -0.027 A  
DOCKED: ATOM     50  C33 UNL     1      11.586  -5.747  -0.749 +0.00 +0.00    +0.025 A  
DOCKED: ATOM     51  C34 UNL     1      12.039  -4.910  -1.760 +0.00 +0.00    +0.111 A  
DOCKED: ATOM     52  N6  UNL     1      11.527  -3.687  -2.018 +0.00 -0.00    -0.263 NA 
DOCKED: ATOM     53  C35 UNL     1      10.503  -3.291  -1.234 +0.00 +0.00    +0.111 A  
DOCKED: ATOM     54  C36 UNL     1       9.974  -4.053  -0.201 +0.00 +0.00    +0.025 A  
DOCKED: ENDBRANCH  48  49
DOCKED: ENDBRANCH  46  48
DOCKED: ENDBRANCH  43  44
DOCKED: BRANCH  43  56
DOCKED: ATOM     55  C1  UNL     1       5.754  -8.187   1.844 +0.00 +0.00    +0.009 C  
DOCKED: ATOM     56  C2  UNL     1       6.245  -8.615   0.452 +0.00 +0.00    +0.012 C  
DOCKED: ATOM     57  C3  UNL     1       5.185  -9.502  -0.217 +0.00 +0.00    +0.009 C  
DOCKED: ENDBRANCH  43  56
DOCKED: ENDBRANCH  39  43
DOCKED: ENDBRANCH  37  40
DOCKED: ENDBRANCH  36  37
DOCKED: ENDBRANCH  33  36
DOCKED: ENDBRANCH   1  33
DOCKED: TORSDOF 21
DOCKED: TER
DOCKED: ENDMDL
________________________________________________________________________________


    FINAL DOCKED STATE:
    ________________________


Run:   15 / 20
Time taken for this run:   1.475s

DOCKED: MODEL        15
DOCKED: USER    Run = 15
DOCKED: USER
DOCKED: USER    Estimated Free Energy of Binding    =  +6.26 kcal/mol  [=(1)+(2)+(3)-(4)]
DOCKED: USER
DOCKED: USER    (1) Final Intermolecular Energy     =  +0.00 kcal/mol
DOCKED: USER        vdW + Hbond + desolv Energy     =  +0.00 kcal/mol
DOCKED: USER        Electrostatic Energy            =  +0.00 kcal/mol
DOCKED: USER        Moving Ligand-Fixed Receptor    =  +0.00 kcal/mol
DOCKED: USER        Moving Ligand-Moving Receptor   =  +0.00 kcal/mol
DOCKED: USER    (2) Final Total Internal Energy     = -13.98 kcal/mol
DOCKED: USER    (3) Torsional Free Energy           =  +6.26 kcal/mol
DOCKED: USER    (4) Unbound System's Energy         = -13.98 kcal/mol
DOCKED: USER
DOCKED: USER
DOCKED: REMARK  Name = ligands/ligand_13.pdb
DOCKED: REMARK  28 active torsions:
DOCKED: REMARK  status: ('A' for Active; 'I' for Inactive)
DOCKED: REMARK    1  A    between atoms: C1_1  and  C2_2
DOCKED: REMARK    2  A    between atoms: C2_2  and  C3_3
DOCKED: REMARK    3  A    between atoms: C2_2  and  C4_4
DOCKED: REMARK    4  A    between atoms: C4_4  and  N1_5
DOCKED: REMARK    5  A    between atoms: C4_4  and  C30_42
DOCKED: REMARK    6  A    between atoms: C5_6  and  C6_8
DOCKED: REMARK    7  A    between atoms: C6_8  and  C7_9
DOCKED: REMARK    8  A    between atoms: C6_8  and  C8_10
DOCKED: REMARK    9  A    between atoms: C8_10  and  C9_11
DOCKED: REMARK   10  A    between atoms: C9_11  and  O2_12
DOCKED: REMARK   11  A    between atoms: C9_11  and  C10_13
DOCKED: REMARK   12  A    between atoms: C10_13  and  C11_14
DOCKED: REMARK   13  A    between atoms: C10_13  and  N2_21
DOCKED: REMARK   14  A    between atoms: C11_14  and  C12_15
DOCKED: REMARK   15  A    between atoms: C18_22  and  C19_24
DOCKED: REMARK   16  A    between atoms: C19_24  and  C20_25
DOCKED: REMARK   17  A    between atoms: C19_24  and  N3_26
DOCKED: REMARK   18  A    between atoms: C21_27  and  C22_29
DOCKED: REMARK   19  A    between atoms: C22_29  and  C23_30
DOCKED: REMARK   20  A    between atoms: C22_29  and  N4_34
DOCKED: REMARK   21  A    between atoms: C23_30  and  C24_31
DOCKED: REMARK   22  A    between atoms: C25_35  and  O6_37
DOCKED: REMARK   23  A    between atoms: O6_37  and  C26_38
DOCKED: REMARK   24  A    between atoms: C26_38  and  C27_39
DOCKED: REMARK   25  A    between atoms: C26_38  and  C28_40
DOCKED: REMARK   26  A    between atoms: C26_38  and  C29_41
DOCKED: REMARK   27  A    between atoms: N5_44  and  C31_45
DOCKED: REMARK   28  A    between atoms: C31_45  and  C32_46
DOCKED: REMARK                            x       y       z     vdW  Elec       q    Type
DOCKED: REMARK                         _______ _______ _______ _____ _____    ______ ____
DOCKED: USER                              x       y       z     vdW  Elec       q    Type
DOCKED: USER                           _______ _______ _______ _____ _____    ______ ____
DOCKED: ROOT
DOCKED: ATOM      1  C10 UNL     1      13.562  -3.183   0.500 +0.00 +0.00    +0.106 C  
DOCKED: ENDROOT
DOCKED: BRANCH   1   2
DOCKED: ATOM      2  N2  UNL     1      14.260  -1.962   0.080 +0.00 -0.00    -0.308 N  
DOCKED: ATOM      3  C18 UNL     1      14.422  -0.821   0.827 +0.00 +0.00    +0.233 C  
DOCKED: ATOM      4  O3  UNL     1      13.811  -0.628   1.880 +0.00 -0.00    -0.274 OA 
DOCKED: ATOM      5  H26 UNL     1      14.830  -2.022  -0.757 +0.00 +0.00    +0.149 HD 
DOCKED: BRANCH   3   6
DOCKED: ATOM      6  C19 UNL     1      15.433   0.207   0.271 +0.00 +0.00    +0.156 C  
DOCKED: ATOM      7  C20 UNL     1      15.028   1.629   0.660 +0.00 +0.00    +0.038 C  
DOCKED: BRANCH   6   8
DOCKED: ATOM      8  N3  UNL     1      15.785   0.076  -1.149 +0.00 -0.00    -0.303 N  
DOCKED: ATOM      9  C21 UNL     1      16.572  -0.924  -1.681 +0.00 +0.00    +0.234 C  
DOCKED: ATOM     10  O4  UNL     1      17.260  -1.662  -0.984 +0.00 -0.00    -0.274 OA 
DOCKED: ATOM     11  H31 UNL     1      15.251   0.648  -1.806 +0.00 +0.00    +0.149 HD 
DOCKED: BRANCH   9  12
DOCKED: ATOM     12  C22 UNL     1      16.613  -0.941  -3.224 +0.00 +0.00    +0.167 C  
DOCKED: BRANCH  12  13
DOCKED: ATOM     13  N4  UNL     1      15.604  -1.896  -3.672 +0.00 -0.00    -0.270 N  
DOCKED: ATOM     14  C25 UNL     1      14.300  -1.785  -3.288 +0.00 +0.00    +0.401 C  
DOCKED: ATOM     15  O5  UNL     1      13.906  -0.997  -2.444 +0.00 -0.00    -0.226 OA 
DOCKED: ATOM     16  H36 UNL     1      15.726  -2.389  -4.552 +0.00 +0.00    +0.153 HD 
DOCKED: BRANCH  14  17
DOCKED: ATOM     17  O6  UNL     1      13.548  -2.617  -4.037 +0.00 -0.00    -0.445 OA 
DOCKED: BRANCH  17  18
DOCKED: ATOM     18  C26 UNL     1      12.894  -2.143  -5.243 +0.00 +0.00    +0.107 C  
DOCKED: ATOM     19  C27 UNL     1      11.624  -2.954  -5.528 +0.00 +0.00    +0.055 C  
DOCKED: ATOM     20  C28 UNL     1      12.610  -0.639  -5.176 +0.00 +0.00    +0.055 C  
DOCKED: ATOM     21  C29 UNL     1      13.918  -2.401  -6.361 +0.00 +0.00    +0.055 C  
DOCKED: ENDBRANCH  17  18
DOCKED: ENDBRANCH  14  17
DOCKED: ENDBRANCH  12  13
DOCKED: BRANCH  12  22
DOCKED: ATOM     22  C23 UNL     1      16.352   0.448  -3.803 +0.00 +0.00    +0.103 C  
DOCKED: BRANCH  22  23
DOCKED: ATOM     23  C24 UNL     1      16.555   0.464  -5.301 +0.00 +0.00    +0.343 C  
DOCKED: ATOM     24  F1  UNL     1      15.346   0.493  -5.914 +0.00 -0.00    -0.209 F  
DOCKED: ATOM     25  F2  UNL     1      17.158  -0.688  -5.683 +0.00 -0.00    -0.209 F  
DOCKED: ENDBRANCH  22  23
DOCKED: ENDBRANCH  12  22
DOCKED: ENDBRANCH   9  12
DOCKED: ENDBRANCH   6   8
DOCKED: ENDBRANCH   3   6
DOCKED: ENDBRANCH   1   2
DOCKED: BRANCH   1  26
DOCKED: ATOM     26  C11 UNL     1      12.072  -2.869   0.770 +0.00 +0.00    +0.060 C  
DOCKED: BRANCH  26  27
DOCKED: ATOM     27  C12 UNL     1      11.354  -2.298  -0.432 +0.00 -0.00    -0.046 A  
DOCKED: ATOM     28  C13 UNL     1      11.415  -0.925  -0.711 +0.00 +0.00    +0.004 A  
DOCKED: ATOM     29  C14 UNL     1      10.782  -0.406  -1.841 +0.00 +0.00    +0.000 A  
DOCKED: ATOM     30  C15 UNL     1      10.084  -1.254  -2.698 +0.00 +0.00    +0.000 A  
DOCKED: ATOM     31  C16 UNL     1      10.007  -2.614  -2.423 +0.00 +0.00    +0.000 A  
DOCKED: ATOM     32  C17 UNL     1      10.641  -3.139  -1.296 +0.00 +0.00    +0.004 A  
DOCKED: ENDBRANCH  26  27
DOCKED: ENDBRANCH   1  26
DOCKED: BRANCH   1  33
DOCKED: ATOM     33  C9  UNL     1      13.748  -4.416  -0.431 +0.00 +0.00    +0.136 C  
DOCKED: BRANCH  33  34
DOCKED: ATOM     34  O2  UNL     1      14.338  -4.047  -1.675 +0.00 -0.00    -0.390 OA 
DOCKED: ATOM     35  H17 UNL     1      13.878  -3.238  -1.992 +0.00 +0.00    +0.210 HD 
DOCKED: ENDBRANCH  33  34
DOCKED: BRANCH  33  36
DOCKED: ATOM     36  C8  UNL     1      14.549  -5.570   0.206 +0.00 +0.00    +0.045 C  
DOCKED: BRANCH  36  37
DOCKED: ATOM     37  C6  UNL     1      16.027  -5.221   0.542 +0.00 +0.00    +0.074 C  
DOCKED: ATOM     38  C7  UNL     1      16.569  -6.018   1.730 +0.00 +0.00    +0.017 C  
DOCKED: BRANCH  37  40
DOCKED: ATOM     39  N1  UNL     1      17.000  -4.248  -1.465 +0.00 -0.00    -0.304 N  
DOCKED: ATOM     40  C5  UNL     1      16.930  -5.381  -0.681 +0.00 +0.00    +0.217 C  
DOCKED: ATOM     41  O1  UNL     1      17.523  -6.427  -0.931 +0.00 -0.00    -0.276 OA 
DOCKED: ATOM     42  H9  UNL     1      16.375  -3.512  -1.178 +0.00 +0.00    +0.149 HD 
DOCKED: BRANCH  39  43
DOCKED: ATOM     43  C4  UNL     1      17.296  -4.275  -2.909 +0.00 +0.00    +0.161 C  
DOCKED: BRANCH  43  44
DOCKED: ATOM     44  C30 UNL     1      16.298  -5.050  -3.828 +0.00 +0.00    +0.234 C  
DOCKED: ATOM     45  O7  UNL     1      15.659  -4.526  -4.742 +0.00 -0.00    -0.274 OA 
DOCKED: ATOM     46  N5  UNL     1      16.111  -6.361  -3.460 +0.00 -0.00    -0.310 N  
DOCKED: ATOM     47  H46 UNL     1      16.813  -6.776  -2.846 +0.00 +0.00    +0.149 HD 
DOCKED: BRANCH  46  48
DOCKED: ATOM     48  C31 UNL     1      15.087  -7.212  -4.001 +0.00 +0.00    +0.139 C  
DOCKED: BRANCH  48  49
DOCKED: ATOM     49  C32 UNL     1      13.754  -6.862  -3.392 +0.00 -0.00    -0.027 A  
DOCKED: ATOM     50  C33 UNL     1      13.286  -7.533  -2.257 +0.00 +0.00    +0.025 A  
DOCKED: ATOM     51  C34 UNL     1      12.075  -7.135  -1.704 +0.00 +0.00    +0.111 A  
DOCKED: ATOM     52  N6  UNL     1      11.309  -6.139  -2.198 +0.00 -0.00    -0.263 NA 
DOCKED: ATOM     53  C35 UNL     1      11.785  -5.502  -3.288 +0.00 +0.00    +0.111 A  
DOCKED: ATOM     54  C36 UNL     1      12.984  -5.820  -3.912 +0.00 +0.00    +0.025 A  
DOCKED: ENDBRANCH  48  49
DOCKED: ENDBRANCH  46  48
DOCKED: ENDBRANCH  43  44
DOCKED: BRANCH  43  56
DOCKED: ATOM     55  C1  UNL     1      19.017  -5.007  -4.661 +0.00 +0.00    +0.009 C  
DOCKED: ATOM     56  C2  UNL     1      18.754  -4.769  -3.166 +0.00 +0.00    +0.012 C  
DOCKED: ATOM     57  C3  UNL     1      19.824  -3.825  -2.598 +0.00 +0.00    +0.009 C  
DOCKED: ENDBRANCH  43  56
DOCKED: ENDBRANCH  39  43
DOCKED: ENDBRANCH  37  40
DOCKED: ENDBRANCH  36  37
DOCKED: ENDBRANCH  33  36
DOCKED: ENDBRANCH   1  33
DOCKED: TORSDOF 21
DOCKED: TER
DOCKED: ENDMDL
________________________________________________________________________________


    FINAL DOCKED STATE:
    ________________________


Run:   16 / 20
Time taken for this run:   1.475s

DOCKED: MODEL        16
DOCKED: USER    Run = 16
DOCKED: USER
DOCKED: USER    Estimated Free Energy of Binding    =  +6.26 kcal/mol  [=(1)+(2)+(3)-(4)]
DOCKED: USER
DOCKED: USER    (1) Final Intermolecular Energy     =  +0.00 kcal/mol
DOCKED: USER        vdW + Hbond + desolv Energy     =  +0.00 kcal/mol
DOCKED: USER        Electrostatic Energy            =  +0.00 kcal/mol
DOCKED: USER        Moving Ligand-Fixed Receptor    =  +0.00 kcal/mol
DOCKED: USER        Moving Ligand-Moving Receptor   =  +0.00 kcal/mol
DOCKED: USER    (2) Final Total Internal Energy     = -14.00 kcal/mol
DOCKED: USER    (3) Torsional Free Energy           =  +6.26 kcal/mol
DOCKED: USER    (4) Unbound System's Energy         = -14.00 kcal/mol
DOCKED: USER
DOCKED: USER
DOCKED: REMARK  Name = ligands/ligand_13.pdb
DOCKED: REMARK  28 active torsions:
DOCKED: REMARK  status: ('A' for Active; 'I' for Inactive)
DOCKED: REMARK    1  A    between atoms: C1_1  and  C2_2
DOCKED: REMARK    2  A    between atoms: C2_2  and  C3_3
DOCKED: REMARK    3  A    between atoms: C2_2  and  C4_4
DOCKED: REMARK    4  A    between atoms: C4_4  and  N1_5
DOCKED: REMARK    5  A    between atoms: C4_4  and  C30_42
DOCKED: REMARK    6  A    between atoms: C5_6  and  C6_8
DOCKED: REMARK    7  A    between atoms: C6_8  and  C7_9
DOCKED: REMARK    8  A    between atoms: C6_8  and  C8_10
DOCKED: REMARK    9  A    between atoms: C8_10  and  C9_11
DOCKED: REMARK   10  A    between atoms: C9_11  and  O2_12
DOCKED: REMARK   11  A    between atoms: C9_11  and  C10_13
DOCKED: REMARK   12  A    between atoms: C10_13  and  C11_14
DOCKED: REMARK   13  A    between atoms: C10_13  and  N2_21
DOCKED: REMARK   14  A    between atoms: C11_14  and  C12_15
DOCKED: REMARK   15  A    between atoms: C18_22  and  C19_24
DOCKED: REMARK   16  A    between atoms: C19_24  and  C20_25
DOCKED: REMARK   17  A    between atoms: C19_24  and  N3_26
DOCKED: REMARK   18  A    between atoms: C21_27  and  C22_29
DOCKED: REMARK   19  A    between atoms: C22_29  and  C23_30
DOCKED: REMARK   20  A    between atoms: C22_29  and  N4_34
DOCKED: REMARK   21  A    between atoms: C23_30  and  C24_31
DOCKED: REMARK   22  A    between atoms: C25_35  and  O6_37
DOCKED: REMARK   23  A    between atoms: O6_37  and  C26_38
DOCKED: REMARK   24  A    between atoms: C26_38  and  C27_39
DOCKED: REMARK   25  A    between atoms: C26_38  and  C28_40
DOCKED: REMARK   26  A    between atoms: C26_38  and  C29_41
DOCKED: REMARK   27  A    between atoms: N5_44  and  C31_45
DOCKED: REMARK   28  A    between atoms: C31_45  and  C32_46
DOCKED: REMARK                            x       y       z     vdW  Elec       q    Type
DOCKED: REMARK                         _______ _______ _______ _____ _____    ______ ____
DOCKED: USER                              x       y       z     vdW  Elec       q    Type
DOCKED: USER                           _______ _______ _______ _____ _____    ______ ____
DOCKED: ROOT
DOCKED: ATOM      1  C10 UNL     1      15.347  -6.208   3.780 +0.00 +0.00    +0.106 C  
DOCKED: ENDROOT
DOCKED: BRANCH   1   2
DOCKED: ATOM      2  N2  UNL     1      14.954  -5.100   4.659 +0.00 -0.00    -0.308 N  
DOCKED: ATOM      3  C18 UNL     1      15.766  -4.083   5.096 +0.00 +0.00    +0.233 C  
DOCKED: ATOM      4  O3  UNL     1      16.989  -4.106   4.954 +0.00 -0.00    -0.274 OA 
DOCKED: ATOM      5  H26 UNL     1      13.959  -4.964   4.810 +0.00 +0.00    +0.149 HD 
DOCKED: BRANCH   3   6
DOCKED: ATOM      6  C19 UNL     1      15.046  -2.893   5.771 +0.00 +0.00    +0.156 C  
DOCKED: ATOM      7  C20 UNL     1      15.960  -2.219   6.795 +0.00 +0.00    +0.038 C  
DOCKED: BRANCH   6   8
DOCKED: ATOM      8  N3  UNL     1      13.696  -3.153   6.288 +0.00 -0.00    -0.303 N  
DOCKED: ATOM      9  C21 UNL     1      12.559  -3.262   5.514 +0.00 +0.00    +0.234 C  
DOCKED: ATOM     10  O4  UNL     1      12.524  -2.905   4.341 +0.00 -0.00    -0.274 OA 
DOCKED: ATOM     11  H31 UNL     1      13.631  -3.469   7.257 +0.00 +0.00    +0.149 HD 
DOCKED: BRANCH   9  12
DOCKED: ATOM     12  C22 UNL     1      11.312  -3.740   6.288 +0.00 +0.00    +0.167 C  
DOCKED: BRANCH  12  13
DOCKED: ATOM     13  N4  UNL     1      11.225  -5.187   6.114 +0.00 -0.00    -0.270 N  
DOCKED: ATOM     14  C25 UNL     1      12.254  -6.008   6.470 +0.00 +0.00    +0.401 C  
DOCKED: ATOM     15  O5  UNL     1      13.356  -5.608   6.807 +0.00 -0.00    -0.226 OA 
DOCKED: ATOM     16  H36 UNL     1      10.319  -5.646   6.123 +0.00 +0.00    +0.153 HD 
DOCKED: BRANCH  14  17
DOCKED: ATOM     17  O6  UNL     1      11.824  -7.286   6.453 +0.00 -0.00    -0.445 OA 
DOCKED: BRANCH  17  18
DOCKED: ATOM     18  C26 UNL     1      11.278  -7.901   7.649 +0.00 +0.00    +0.107 C  
DOCKED: ATOM     19  C27 UNL     1      11.542  -9.411   7.654 +0.00 +0.00    +0.055 C  
DOCKED: ATOM     20  C28 UNL     1      11.801  -7.223   8.920 +0.00 +0.00    +0.055 C  
DOCKED: ATOM     21  C29 UNL     1       9.763  -7.655   7.550 +0.00 +0.00    +0.055 C  
DOCKED: ENDBRANCH  17  18
DOCKED: ENDBRANCH  14  17
DOCKED: ENDBRANCH  12  13
DOCKED: BRANCH  12  22
DOCKED: ATOM     22  C23 UNL     1      11.398  -3.367   7.766 +0.00 +0.00    +0.103 C  
DOCKED: BRANCH  22  23
DOCKED: ATOM     23  C24 UNL     1      10.090  -3.636   8.475 +0.00 +0.00    +0.343 C  
DOCKED: ATOM     24  F1  UNL     1      10.280  -4.601   9.408 +0.00 -0.00    -0.209 F  
DOCKED: ATOM     25  F2  UNL     1       9.192  -4.124   7.586 +0.00 -0.00    -0.209 F  
DOCKED: ENDBRANCH  22  23
DOCKED: ENDBRANCH  12  22
DOCKED: ENDBRANCH   9  12
DOCKED: ENDBRANCH   6   8
DOCKED: ENDBRANCH   3   6
DOCKED: ENDBRANCH   1   2
DOCKED: BRANCH   1  26
DOCKED: ATOM     26  C11 UNL     1      16.418  -7.077   4.480 +0.00 +0.00    +0.060 C  
DOCKED: BRANCH  26  27
DOCKED: ATOM     27  C12 UNL     1      15.959  -7.637   5.807 +0.00 -0.00    -0.046 A  
DOCKED: ATOM     28  C13 UNL     1      16.081  -6.879   6.980 +0.00 +0.00    +0.004 A  
DOCKED: ATOM     29  C14 UNL     1      15.623  -7.383   8.198 +0.00 +0.00    +0.000 A  
DOCKED: ATOM     30  C15 UNL     1      15.043  -8.649   8.252 +0.00 +0.00    +0.000 A  
DOCKED: ATOM     31  C16 UNL     1      14.930  -9.414   7.097 +0.00 +0.00    +0.000 A  
DOCKED: ATOM     32  C17 UNL     1      15.383  -8.912   5.877 +0.00 +0.00    +0.004 A  
DOCKED: ENDBRANCH  26  27
DOCKED: ENDBRANCH   1  26
DOCKED: BRANCH   1  33
DOCKED: ATOM     33  C9  UNL     1      14.177  -7.059   3.207 +0.00 +0.00    +0.136 C  
DOCKED: BRANCH  33  34
DOCKED: ATOM     34  O2  UNL     1      12.954  -6.790   3.889 +0.00 -0.00    -0.390 OA 
DOCKED: ATOM     35  H17 UNL     1      13.156  -6.734   4.849 +0.00 +0.00    +0.210 HD 
DOCKED: ENDBRANCH  33  34
DOCKED: BRANCH  33  36
DOCKED: ATOM     36  C8  UNL     1      13.973  -6.906   1.686 +0.00 +0.00    +0.045 C  
DOCKED: BRANCH  36  37
DOCKED: ATOM     37  C6  UNL     1      13.604  -5.466   1.227 +0.00 +0.00    +0.074 C  
DOCKED: ATOM     38  C7  UNL     1      14.092  -5.152  -0.189 +0.00 +0.00    +0.017 C  
DOCKED: BRANCH  37  40
DOCKED: ATOM     39  N1  UNL     1      11.730  -4.768   2.611 +0.00 -0.00    -0.304 N  
DOCKED: ATOM     40  C5  UNL     1      12.104  -5.205   1.358 +0.00 +0.00    +0.217 C  
DOCKED: ATOM     41  O1  UNL     1      11.320  -5.380   0.429 +0.00 -0.00    -0.276 OA 
DOCKED: ATOM     42  H9  UNL     1      12.476  -4.775   3.288 +0.00 +0.00    +0.149 HD 
DOCKED: BRANCH  39  43
DOCKED: ATOM     43  C4  UNL     1      10.385  -4.977   3.178 +0.00 +0.00    +0.161 C  
DOCKED: BRANCH  43  44
DOCKED: ATOM     44  C30 UNL     1       9.934  -6.453   3.421 +0.00 +0.00    +0.234 C  
DOCKED: ATOM     45  O7  UNL     1       9.645  -6.909   4.529 +0.00 -0.00    -0.274 OA 
DOCKED: ATOM     46  N5  UNL     1       9.989  -7.242   2.296 +0.00 -0.00    -0.310 N  
DOCKED: ATOM     47  H46 UNL     1      10.028  -6.762   1.395 +0.00 +0.00    +0.149 HD 
DOCKED: BRANCH  46  48
DOCKED: ATOM     48  C31 UNL     1       9.843  -8.671   2.305 +0.00 +0.00    +0.139 C  
DOCKED: BRANCH  48  49
DOCKED: ATOM     49  C32 UNL     1      11.124  -9.315   2.769 +0.00 -0.00    -0.027 A  
DOCKED: ATOM     50  C33 UNL     1      12.099  -9.716   1.849 +0.00 +0.00    +0.025 A  
DOCKED: ATOM     51  C34 UNL     1      13.283 -10.256   2.333 +0.00 +0.00    +0.111 A  
DOCKED: ATOM     52  N6  UNL     1      13.557 -10.428   3.644 +0.00 -0.00    -0.263 NA 
DOCKED: ATOM     53  C35 UNL     1      12.605 -10.026   4.512 +0.00 +0.00    +0.111 A  
DOCKED: ATOM     54  C36 UNL     1      11.391  -9.471   4.130 +0.00 +0.00    +0.025 A  
DOCKED: ENDBRANCH  48  49
DOCKED: ENDBRANCH  46  48
DOCKED: ENDBRANCH  43  44
DOCKED: BRANCH  43  56
DOCKED: ATOM     55  C1  UNL     1       7.883  -4.605   2.769 +0.00 +0.00    +0.009 C  
DOCKED: ATOM     56  C2  UNL     1       9.308  -4.220   2.341 +0.00 +0.00    +0.012 C  
DOCKED: ATOM     57  C3  UNL     1       9.465  -2.693   2.386 +0.00 +0.00    +0.009 C  
DOCKED: ENDBRANCH  43  56
DOCKED: ENDBRANCH  39  43
DOCKED: ENDBRANCH  37  40
DOCKED: ENDBRANCH  36  37
DOCKED: ENDBRANCH  33  36
DOCKED: ENDBRANCH   1  33
DOCKED: TORSDOF 21
DOCKED: TER
DOCKED: ENDMDL
________________________________________________________________________________


    FINAL DOCKED STATE:
    ________________________


Run:   17 / 20
Time taken for this run:   1.475s

DOCKED: MODEL        17
DOCKED: USER    Run = 17
DOCKED: USER
DOCKED: USER    Estimated Free Energy of Binding    =  +6.26 kcal/mol  [=(1)+(2)+(3)-(4)]
DOCKED: USER
DOCKED: USER    (1) Final Intermolecular Energy     =  +0.00 kcal/mol
DOCKED: USER        vdW + Hbond + desolv Energy     =  +0.00 kcal/mol
DOCKED: USER        Electrostatic Energy            =  +0.00 kcal/mol
DOCKED: USER        Moving Ligand-Fixed Receptor    =  +0.00 kcal/mol
DOCKED: USER        Moving Ligand-Moving Receptor   =  +0.00 kcal/mol
DOCKED: USER    (2) Final Total Internal Energy     = -14.01 kcal/mol
DOCKED: USER    (3) Torsional Free Energy           =  +6.26 kcal/mol
DOCKED: USER    (4) Unbound System's Energy         = -14.01 kcal/mol
DOCKED: USER
DOCKED: USER
DOCKED: REMARK  Name = ligands/ligand_13.pdb
DOCKED: REMARK  28 active torsions:
DOCKED: REMARK  status: ('A' for Active; 'I' for Inactive)
DOCKED: REMARK    1  A    between atoms: C1_1  and  C2_2
DOCKED: REMARK    2  A    between atoms: C2_2  and  C3_3
DOCKED: REMARK    3  A    between atoms: C2_2  and  C4_4
DOCKED: REMARK    4  A    between atoms: C4_4  and  N1_5
DOCKED: REMARK    5  A    between atoms: C4_4  and  C30_42
DOCKED: REMARK    6  A    between atoms: C5_6  and  C6_8
DOCKED: REMARK    7  A    between atoms: C6_8  and  C7_9
DOCKED: REMARK    8  A    between atoms: C6_8  and  C8_10
DOCKED: REMARK    9  A    between atoms: C8_10  and  C9_11
DOCKED: REMARK   10  A    between atoms: C9_11  and  O2_12
DOCKED: REMARK   11  A    between atoms: C9_11  and  C10_13
DOCKED: REMARK   12  A    between atoms: C10_13  and  C11_14
DOCKED: REMARK   13  A    between atoms: C10_13  and  N2_21
DOCKED: REMARK   14  A    between atoms: C11_14  and  C12_15
DOCKED: REMARK   15  A    between atoms: C18_22  and  C19_24
DOCKED: REMARK   16  A    between atoms: C19_24  and  C20_25
DOCKED: REMARK   17  A    between atoms: C19_24  and  N3_26
DOCKED: REMARK   18  A    between atoms: C21_27  and  C22_29
DOCKED: REMARK   19  A    between atoms: C22_29  and  C23_30
DOCKED: REMARK   20  A    between atoms: C22_29  and  N4_34
DOCKED: REMARK   21  A    between atoms: C23_30  and  C24_31
DOCKED: REMARK   22  A    between atoms: C25_35  and  O6_37
DOCKED: REMARK   23  A    between atoms: O6_37  and  C26_38
DOCKED: REMARK   24  A    between atoms: C26_38  and  C27_39
DOCKED: REMARK   25  A    between atoms: C26_38  and  C28_40
DOCKED: REMARK   26  A    between atoms: C26_38  and  C29_41
DOCKED: REMARK   27  A    between atoms: N5_44  and  C31_45
DOCKED: REMARK   28  A    between atoms: C31_45  and  C32_46
DOCKED: REMARK                            x       y       z     vdW  Elec       q    Type
DOCKED: REMARK                         _______ _______ _______ _____ _____    ______ ____
DOCKED: USER                              x       y       z     vdW  Elec       q    Type
DOCKED: USER                           _______ _______ _______ _____ _____    ______ ____
DOCKED: ROOT
DOCKED: ATOM      1  C10 UNL     1       8.973  -2.183  -2.481 +0.00 +0.00    +0.106 C  
DOCKED: ENDROOT
DOCKED: BRANCH   1   2
DOCKED: ATOM      2  N2  UNL     1       7.837  -2.678  -3.266 +0.00 -0.00    -0.308 N  
DOCKED: ATOM      3  C18 UNL     1       6.672  -3.206  -2.766 +0.00 +0.00    +0.233 C  
DOCKED: ATOM      4  O3  UNL     1       6.540  -3.509  -1.579 +0.00 -0.00    -0.274 OA 
DOCKED: ATOM      5  H26 UNL     1       7.824  -2.446  -4.254 +0.00 +0.00    +0.149 HD 
DOCKED: BRANCH   3   6
DOCKED: ATOM      6  C19 UNL     1       5.524  -3.385  -3.786 +0.00 +0.00    +0.156 C  
DOCKED: ATOM      7  C20 UNL     1       4.644  -4.575  -3.404 +0.00 +0.00    +0.038 C  
DOCKED: BRANCH   6   8
DOCKED: ATOM      8  N3  UNL     1       5.904  -3.381  -5.205 +0.00 -0.00    -0.303 N  
DOCKED: ATOM      9  C21 UNL     1       6.356  -2.278  -5.900 +0.00 +0.00    +0.234 C  
DOCKED: ATOM     10  O4  UNL     1       6.250  -1.136  -5.465 +0.00 -0.00    -0.274 OA 
DOCKED: ATOM     11  H31 UNL     1       6.027  -4.293  -5.648 +0.00 +0.00    +0.149 HD 
DOCKED: BRANCH   9  12
DOCKED: ATOM     12  C22 UNL     1       6.878  -2.597  -7.318 +0.00 +0.00    +0.167 C  
DOCKED: BRANCH  12  13
DOCKED: ATOM     13  N4  UNL     1       8.326  -2.754  -7.219 +0.00 -0.00    -0.270 N  
DOCKED: ATOM     14  C25 UNL     1       8.887  -3.621  -6.328 +0.00 +0.00    +0.401 C  
DOCKED: ATOM     15  O5  UNL     1       8.258  -4.204  -5.461 +0.00 -0.00    -0.226 OA 
DOCKED: ATOM     16  H36 UNL     1       8.913  -2.567  -8.027 +0.00 +0.00    +0.153 HD 
DOCKED: BRANCH  14  17
DOCKED: ATOM     17  O6  UNL     1      10.196  -3.766  -6.620 +0.00 -0.00    -0.445 OA 
DOCKED: BRANCH  17  18
DOCKED: ATOM     18  C26 UNL     1      10.642  -4.797  -7.538 +0.00 +0.00    +0.107 C  
DOCKED: ATOM     19  C27 UNL     1       9.755  -6.043  -7.430 +0.00 +0.00    +0.055 C  
DOCKED: ATOM     20  C28 UNL     1      10.724  -4.275  -8.976 +0.00 +0.00    +0.055 C  
DOCKED: ATOM     21  C29 UNL     1      12.062  -5.147  -7.061 +0.00 +0.00    +0.055 C  
DOCKED: ENDBRANCH  17  18
DOCKED: ENDBRANCH  14  17
DOCKED: ENDBRANCH  12  13
DOCKED: BRANCH  12  22
DOCKED: ATOM     22  C23 UNL     1       6.223  -3.857  -7.881 +0.00 +0.00    +0.103 C  
DOCKED: BRANCH  22  23
DOCKED: ATOM     23  C24 UNL     1       6.644  -4.098  -9.313 +0.00 +0.00    +0.343 C  
DOCKED: ATOM     24  F1  UNL     1       7.570  -5.089  -9.344 +0.00 -0.00    -0.209 F  
DOCKED: ATOM     25  F2  UNL     1       7.248  -2.985  -9.795 +0.00 -0.00    -0.209 F  
DOCKED: ENDBRANCH  22  23
DOCKED: ENDBRANCH  12  22
DOCKED: ENDBRANCH   9  12
DOCKED: ENDBRANCH   6   8
DOCKED: ENDBRANCH   3   6
DOCKED: ENDBRANCH   1   2
DOCKED: BRANCH   1  26
DOCKED: ATOM     26  C11 UNL     1       9.544  -3.325  -1.608 +0.00 +0.00    +0.060 C  
DOCKED: BRANCH  26  27
DOCKED: ATOM     27  C12 UNL     1       9.977  -4.531  -2.411 +0.00 -0.00    -0.046 A  
DOCKED: ATOM     28  C13 UNL     1       9.046  -5.515  -2.773 +0.00 +0.00    +0.004 A  
DOCKED: ATOM     29  C14 UNL     1       9.440  -6.609  -3.545 +0.00 +0.00    +0.000 A  
DOCKED: ATOM     30  C15 UNL     1      10.765  -6.727  -3.959 +0.00 +0.00    +0.000 A  
DOCKED: ATOM     31  C16 UNL     1      11.698  -5.764  -3.593 +0.00 +0.00    +0.000 A  
DOCKED: ATOM     32  C17 UNL     1      11.308  -4.666  -2.825 +0.00 +0.00    +0.004 A  
DOCKED: ENDBRANCH  26  27
DOCKED: ENDBRANCH   1  26
DOCKED: BRANCH   1  33
DOCKED: ATOM     33  C9  UNL     1      10.080  -1.447  -3.290 +0.00 +0.00    +0.136 C  
DOCKED: BRANCH  33  34
DOCKED: ATOM     34  O2  UNL     1       9.913  -1.637  -4.694 +0.00 -0.00    -0.390 OA 
DOCKED: ATOM     35  H17 UNL     1       9.751  -2.595  -4.845 +0.00 +0.00    +0.210 HD 
DOCKED: ENDBRANCH  33  34
DOCKED: BRANCH  33  36
DOCKED: ATOM     36  C8  UNL     1      10.193   0.059  -2.976 +0.00 +0.00    +0.045 C  
DOCKED: BRANCH  36  37
DOCKED: ATOM     37  C6  UNL     1       8.937   0.893  -3.358 +0.00 +0.00    +0.074 C  
DOCKED: ATOM     38  C7  UNL     1       8.738   2.113  -2.455 +0.00 +0.00    +0.017 C  
DOCKED: BRANCH  37  40
DOCKED: ATOM     39  N1  UNL     1       8.408   0.363  -5.672 +0.00 -0.00    -0.304 N  
DOCKED: ATOM     40  C5  UNL     1       8.964   1.303  -4.830 +0.00 +0.00    +0.217 C  
DOCKED: ATOM     41  O1  UNL     1       9.446   2.367  -5.211 +0.00 -0.00    -0.276 OA 
DOCKED: ATOM     42  H9  UNL     1       8.152  -0.497  -5.215 +0.00 +0.00    +0.149 HD 
DOCKED: BRANCH  39  43
DOCKED: ATOM     43  C4  UNL     1       8.785   0.216  -7.090 +0.00 +0.00    +0.161 C  
DOCKED: BRANCH  43  44
DOCKED: ATOM     44  C30 UNL     1      10.264  -0.187  -7.397 +0.00 +0.00    +0.234 C  
DOCKED: ATOM     45  O7  UNL     1      10.586  -1.230  -7.969 +0.00 -0.00    -0.274 OA 
DOCKED: ATOM     46  N5  UNL     1      11.194   0.681  -6.876 +0.00 -0.00    -0.310 N  
DOCKED: ATOM     47  H46 UNL     1      10.864   1.610  -6.609 +0.00 +0.00    +0.149 HD 
DOCKED: BRANCH  46  48
DOCKED: ATOM     48  C31 UNL     1      12.605   0.417  -6.829 +0.00 +0.00    +0.139 C  
DOCKED: BRANCH  48  49
DOCKED: ATOM     49  C32 UNL     1      12.910  -0.547  -5.710 +0.00 -0.00    -0.027 A  
DOCKED: ATOM     50  C33 UNL     1      13.244  -0.081  -4.434 +0.00 +0.00    +0.025 A  
DOCKED: ATOM     51  C34 UNL     1      13.463  -1.012  -3.426 +0.00 +0.00    +0.111 A  
DOCKED: ATOM     52  N6  UNL     1      13.380  -2.349  -3.599 +0.00 -0.00    -0.263 NA 
DOCKED: ATOM     53  C35 UNL     1      13.049  -2.773  -4.837 +0.00 +0.00    +0.111 A  
DOCKED: ATOM     54  C36 UNL     1      12.806  -1.925  -5.909 +0.00 +0.00    +0.025 A  
DOCKED: ENDBRANCH  48  49
DOCKED: ENDBRANCH  46  48
DOCKED: ENDBRANCH  43  44
DOCKED: BRANCH  43  56
DOCKED: ATOM     55  C1  UNL     1       8.998   1.469  -9.316 +0.00 +0.00    +0.009 C  
DOCKED: ATOM     56  C2  UNL     1       8.400   1.493  -7.900 +0.00 +0.00    +0.012 C  
DOCKED: ATOM     57  C3  UNL     1       6.884   1.723  -7.986 +0.00 +0.00    +0.009 C  
DOCKED: ENDBRANCH  43  56
DOCKED: ENDBRANCH  39  43
DOCKED: ENDBRANCH  37  40
DOCKED: ENDBRANCH  36  37
DOCKED: ENDBRANCH  33  36
DOCKED: ENDBRANCH   1  33
DOCKED: TORSDOF 21
DOCKED: TER
DOCKED: ENDMDL
________________________________________________________________________________


    FINAL DOCKED STATE:
    ________________________


Run:   18 / 20
Time taken for this run:   1.475s

DOCKED: MODEL        18
DOCKED: USER    Run = 18
DOCKED: USER
DOCKED: USER    Estimated Free Energy of Binding    =  +6.26 kcal/mol  [=(1)+(2)+(3)-(4)]
DOCKED: USER
DOCKED: USER    (1) Final Intermolecular Energy     =  +0.00 kcal/mol
DOCKED: USER        vdW + Hbond + desolv Energy     =  +0.00 kcal/mol
DOCKED: USER        Electrostatic Energy            =  +0.00 kcal/mol
DOCKED: USER        Moving Ligand-Fixed Receptor    =  +0.00 kcal/mol
DOCKED: USER        Moving Ligand-Moving Receptor   =  +0.00 kcal/mol
DOCKED: USER    (2) Final Total Internal Energy     = -14.01 kcal/mol
DOCKED: USER    (3) Torsional Free Energy           =  +6.26 kcal/mol
DOCKED: USER    (4) Unbound System's Energy         = -14.01 kcal/mol
DOCKED: USER
DOCKED: USER
DOCKED: REMARK  Name = ligands/ligand_13.pdb
DOCKED: REMARK  28 active torsions:
DOCKED: REMARK  status: ('A' for Active; 'I' for Inactive)
DOCKED: REMARK    1  A    between atoms: C1_1  and  C2_2
DOCKED: REMARK    2  A    between atoms: C2_2  and  C3_3
DOCKED: REMARK    3  A    between atoms: C2_2  and  C4_4
DOCKED: REMARK    4  A    between atoms: C4_4  and  N1_5
DOCKED: REMARK    5  A    between atoms: C4_4  and  C30_42
DOCKED: REMARK    6  A    between atoms: C5_6  and  C6_8
DOCKED: REMARK    7  A    between atoms: C6_8  and  C7_9
DOCKED: REMARK    8  A    between atoms: C6_8  and  C8_10
DOCKED: REMARK    9  A    between atoms: C8_10  and  C9_11
DOCKED: REMARK   10  A    between atoms: C9_11  and  O2_12
DOCKED: REMARK   11  A    between atoms: C9_11  and  C10_13
DOCKED: REMARK   12  A    between atoms: C10_13  and  C11_14
DOCKED: REMARK   13  A    between atoms: C10_13  and  N2_21
DOCKED: REMARK   14  A    between atoms: C11_14  and  C12_15
DOCKED: REMARK   15  A    between atoms: C18_22  and  C19_24
DOCKED: REMARK   16  A    between atoms: C19_24  and  C20_25
DOCKED: REMARK   17  A    between atoms: C19_24  and  N3_26
DOCKED: REMARK   18  A    between atoms: C21_27  and  C22_29
DOCKED: REMARK   19  A    between atoms: C22_29  and  C23_30
DOCKED: REMARK   20  A    between atoms: C22_29  and  N4_34
DOCKED: REMARK   21  A    between atoms: C23_30  and  C24_31
DOCKED: REMARK   22  A    between atoms: C25_35  and  O6_37
DOCKED: REMARK   23  A    between atoms: O6_37  and  C26_38
DOCKED: REMARK   24  A    between atoms: C26_38  and  C27_39
DOCKED: REMARK   25  A    between atoms: C26_38  and  C28_40
DOCKED: REMARK   26  A    between atoms: C26_38  and  C29_41
DOCKED: REMARK   27  A    between atoms: N5_44  and  C31_45
DOCKED: REMARK   28  A    between atoms: C31_45  and  C32_46
DOCKED: REMARK                            x       y       z     vdW  Elec       q    Type
DOCKED: REMARK                         _______ _______ _______ _____ _____    ______ ____
DOCKED: USER                              x       y       z     vdW  Elec       q    Type
DOCKED: USER                           _______ _______ _______ _____ _____    ______ ____
DOCKED: ROOT
DOCKED: ATOM      1  C10 UNL     1       9.417  -3.510  -0.036 +0.00 +0.00    +0.106 C  
DOCKED: ENDROOT
DOCKED: BRANCH   1   2
DOCKED: ATOM      2  N2  UNL     1       9.781  -2.316   0.736 +0.00 -0.00    -0.308 N  
DOCKED: ATOM      3  C18 UNL     1       8.910  -1.430   1.320 +0.00 +0.00    +0.233 C  
DOCKED: ATOM      4  O3  UNL     1       7.701  -1.437   1.082 +0.00 -0.00    -0.274 OA 
DOCKED: ATOM      5  H26 UNL     1      10.751  -2.231   1.023 +0.00 +0.00    +0.149 HD 
DOCKED: BRANCH   3   6
DOCKED: ATOM      6  C19 UNL     1       9.539  -0.424   2.311 +0.00 +0.00    +0.156 C  
DOCKED: ATOM      7  C20 UNL     1       8.728   0.871   2.355 +0.00 +0.00    +0.038 C  
DOCKED: BRANCH   6   8
DOCKED: ATOM      8  N3  UNL     1      10.984  -0.195   2.180 +0.00 -0.00    -0.303 N  
DOCKED: ATOM      9  C21 UNL     1      11.967  -1.042   2.650 +0.00 +0.00    +0.234 C  
DOCKED: ATOM     10  O4  UNL     1      11.731  -1.949   3.442 +0.00 -0.00    -0.274 OA 
DOCKED: ATOM     11  H31 UNL     1      11.274   0.537   1.529 +0.00 +0.00    +0.149 HD 
DOCKED: BRANCH   9  12
DOCKED: ATOM     12  C22 UNL     1      13.394  -0.665   2.199 +0.00 +0.00    +0.167 C  
DOCKED: BRANCH  12  13
DOCKED: ATOM     13  N4  UNL     1      13.689  -1.447   1.002 +0.00 -0.00    -0.270 N  
DOCKED: ATOM     14  C25 UNL     1      12.909  -1.361  -0.113 +0.00 +0.00    +0.401 C  
DOCKED: ATOM     15  O5  UNL     1      11.846  -0.763  -0.153 +0.00 -0.00    -0.226 OA 
DOCKED: ATOM     16  H36 UNL     1      14.644  -1.736   0.807 +0.00 +0.00    +0.153 HD 
DOCKED: BRANCH  14  17
DOCKED: ATOM     17  O6  UNL     1      13.539  -1.968  -1.139 +0.00 -0.00    -0.445 OA 
DOCKED: BRANCH  17  18
DOCKED: ATOM     18  C26 UNL     1      14.527  -1.256  -1.929 +0.00 +0.00    +0.107 C  
DOCKED: ATOM     19  C27 UNL     1      15.920  -1.383  -1.301 +0.00 +0.00    +0.055 C  
DOCKED: ATOM     20  C28 UNL     1      14.513  -1.712  -3.392 +0.00 +0.00    +0.055 C  
DOCKED: ATOM     21  C29 UNL     1      14.079   0.215  -1.869 +0.00 +0.00    +0.055 C  
DOCKED: ENDBRANCH  17  18
DOCKED: ENDBRANCH  14  17
DOCKED: ENDBRANCH  12  13
DOCKED: BRANCH  12  22
DOCKED: ATOM     22  C23 UNL     1      13.512   0.833   1.923 +0.00 +0.00    +0.103 C  
DOCKED: BRANCH  22  23
DOCKED: ATOM     23  C24 UNL     1      14.959   1.255   1.809 +0.00 +0.00    +0.343 C  
DOCKED: ATOM     24  F1  UNL     1      15.181   1.758   0.569 +0.00 -0.00    -0.209 F  
DOCKED: ATOM     25  F2  UNL     1      15.755   0.166   1.936 +0.00 -0.00    -0.209 F  
DOCKED: ENDBRANCH  22  23
DOCKED: ENDBRANCH  12  22
DOCKED: ENDBRANCH   9  12
DOCKED: ENDBRANCH   6   8
DOCKED: ENDBRANCH   3   6
DOCKED: ENDBRANCH   1   2
DOCKED: BRANCH   1  26
DOCKED: ATOM     26  C11 UNL     1       8.709  -3.092  -1.345 +0.00 +0.00    +0.060 C  
DOCKED: BRANCH  26  27
DOCKED: ATOM     27  C12 UNL     1       9.522  -2.134  -2.185 +0.00 -0.00    -0.046 A  
DOCKED: ATOM     28  C13 UNL     1       9.443  -0.751  -1.966 +0.00 +0.00    +0.004 A  
DOCKED: ATOM     29  C14 UNL     1      10.222   0.129  -2.717 +0.00 +0.00    +0.000 A  
DOCKED: ATOM     30  C15 UNL     1      11.084  -0.366  -3.694 +0.00 +0.00    +0.000 A  
DOCKED: ATOM     31  C16 UNL     1      11.160  -1.734  -3.929 +0.00 +0.00    +0.000 A  
DOCKED: ATOM     32  C17 UNL     1      10.386  -2.618  -3.177 +0.00 +0.00    +0.004 A  
DOCKED: ENDBRANCH  26  27
DOCKED: ENDBRANCH   1  26
DOCKED: BRANCH   1  33
DOCKED: ATOM     33  C9  UNL     1      10.570  -4.526  -0.284 +0.00 +0.00    +0.136 C  
DOCKED: BRANCH  33  34
DOCKED: ATOM     34  O2  UNL     1      11.844  -3.946  -0.014 +0.00 -0.00    -0.390 OA 
DOCKED: ATOM     35  H17 UNL     1      11.831  -3.027  -0.364 +0.00 +0.00    +0.210 HD 
DOCKED: ENDBRANCH  33  34
DOCKED: BRANCH  33  36
DOCKED: ATOM     36  C8  UNL     1      10.421  -5.848   0.494 +0.00 +0.00    +0.045 C  
DOCKED: BRANCH  36  37
DOCKED: ATOM     37  C6  UNL     1      10.430  -5.690   2.042 +0.00 +0.00    +0.074 C  
DOCKED: ATOM     38  C7  UNL     1       9.617  -6.774   2.753 +0.00 +0.00    +0.017 C  
DOCKED: BRANCH  37  40
DOCKED: ATOM     39  N1  UNL     1      12.393  -4.360   2.584 +0.00 -0.00    -0.304 N  
DOCKED: ATOM     40  C5  UNL     1      11.856  -5.630   2.589 +0.00 +0.00    +0.217 C  
DOCKED: ATOM     41  O1  UNL     1      12.454  -6.628   2.984 +0.00 -0.00    -0.276 OA 
DOCKED: ATOM     42  H9  UNL     1      11.813  -3.671   2.134 +0.00 +0.00    +0.149 HD 
DOCKED: BRANCH  39  43
DOCKED: ATOM     43  C4  UNL     1      13.841  -4.089   2.507 +0.00 +0.00    +0.161 C  
DOCKED: BRANCH  43  44
DOCKED: ATOM     44  C30 UNL     1      14.586  -4.551   1.214 +0.00 +0.00    +0.234 C  
DOCKED: ATOM     45  O7  UNL     1      15.185  -3.786   0.456 +0.00 -0.00    -0.274 OA 
DOCKED: ATOM     46  N5  UNL     1      14.426  -5.887   0.929 +0.00 -0.00    -0.310 N  
DOCKED: ATOM     47  H46 UNL     1      14.107  -6.488   1.691 +0.00 +0.00    +0.149 HD 
DOCKED: BRANCH  46  48
DOCKED: ATOM     48  C31 UNL     1      14.819  -6.501  -0.308 +0.00 +0.00    +0.139 C  
DOCKED: BRANCH  48  49
DOCKED: ATOM     49  C32 UNL     1      13.820  -6.168  -1.387 +0.00 -0.00    -0.027 A  
DOCKED: ATOM     50  C33 UNL     1      12.735  -7.014  -1.643 +0.00 +0.00    +0.025 A  
DOCKED: ATOM     51  C34 UNL     1      11.814  -6.634  -2.611 +0.00 +0.00    +0.111 A  
DOCKED: ATOM     52  N6  UNL     1      11.900  -5.496  -3.333 +0.00 -0.00    -0.263 NA 
DOCKED: ATOM     53  C35 UNL     1      12.951  -4.693  -3.062 +0.00 +0.00    +0.111 A  
DOCKED: ATOM     54  C36 UNL     1      13.922  -4.980  -2.111 +0.00 +0.00    +0.025 A  
DOCKED: ENDBRANCH  48  49
DOCKED: ENDBRANCH  46  48
DOCKED: ENDBRANCH  43  44
DOCKED: BRANCH  43  56
DOCKED: ATOM     55  C1  UNL     1      16.101  -4.566   3.615 +0.00 +0.00    +0.009 C  
DOCKED: ATOM     56  C2  UNL     1      14.574  -4.637   3.771 +0.00 +0.00    +0.012 C  
DOCKED: ATOM     57  C3  UNL     1      14.155  -3.932   5.069 +0.00 +0.00    +0.009 C  
DOCKED: ENDBRANCH  43  56
DOCKED: ENDBRANCH  39  43
DOCKED: ENDBRANCH  37  40
DOCKED: ENDBRANCH  36  37
DOCKED: ENDBRANCH  33  36
DOCKED: ENDBRANCH   1  33
DOCKED: TORSDOF 21
DOCKED: TER
DOCKED: ENDMDL
________________________________________________________________________________


    FINAL DOCKED STATE:
    ________________________


Run:   19 / 20
Time taken for this run:   1.475s

DOCKED: MODEL        19
DOCKED: USER    Run = 19
DOCKED: USER
DOCKED: USER    Estimated Free Energy of Binding    =  +6.26 kcal/mol  [=(1)+(2)+(3)-(4)]
DOCKED: USER
DOCKED: USER    (1) Final Intermolecular Energy     =  +0.00 kcal/mol
DOCKED: USER        vdW + Hbond + desolv Energy     =  +0.00 kcal/mol
DOCKED: USER        Electrostatic Energy            =  +0.00 kcal/mol
DOCKED: USER        Moving Ligand-Fixed Receptor    =  +0.00 kcal/mol
DOCKED: USER        Moving Ligand-Moving Receptor   =  +0.00 kcal/mol
DOCKED: USER    (2) Final Total Internal Energy     = -14.00 kcal/mol
DOCKED: USER    (3) Torsional Free Energy           =  +6.26 kcal/mol
DOCKED: USER    (4) Unbound System's Energy         = -14.00 kcal/mol
DOCKED: USER
DOCKED: USER
DOCKED: REMARK  Name = ligands/ligand_13.pdb
DOCKED: REMARK  28 active torsions:
DOCKED: REMARK  status: ('A' for Active; 'I' for Inactive)
DOCKED: REMARK    1  A    between atoms: C1_1  and  C2_2
DOCKED: REMARK    2  A    between atoms: C2_2  and  C3_3
DOCKED: REMARK    3  A    between atoms: C2_2  and  C4_4
DOCKED: REMARK    4  A    between atoms: C4_4  and  N1_5
DOCKED: REMARK    5  A    between atoms: C4_4  and  C30_42
DOCKED: REMARK    6  A    between atoms: C5_6  and  C6_8
DOCKED: REMARK    7  A    between atoms: C6_8  and  C7_9
DOCKED: REMARK    8  A    between atoms: C6_8  and  C8_10
DOCKED: REMARK    9  A    between atoms: C8_10  and  C9_11
DOCKED: REMARK   10  A    between atoms: C9_11  and  O2_12
DOCKED: REMARK   11  A    between atoms: C9_11  and  C10_13
DOCKED: REMARK   12  A    between atoms: C10_13  and  C11_14
DOCKED: REMARK   13  A    between atoms: C10_13  and  N2_21
DOCKED: REMARK   14  A    between atoms: C11_14  and  C12_15
DOCKED: REMARK   15  A    between atoms: C18_22  and  C19_24
DOCKED: REMARK   16  A    between atoms: C19_24  and  C20_25
DOCKED: REMARK   17  A    between atoms: C19_24  and  N3_26
DOCKED: REMARK   18  A    between atoms: C21_27  and  C22_29
DOCKED: REMARK   19  A    between atoms: C22_29  and  C23_30
DOCKED: REMARK   20  A    between atoms: C22_29  and  N4_34
DOCKED: REMARK   21  A    between atoms: C23_30  and  C24_31
DOCKED: REMARK   22  A    between atoms: C25_35  and  O6_37
DOCKED: REMARK   23  A    between atoms: O6_37  and  C26_38
DOCKED: REMARK   24  A    between atoms: C26_38  and  C27_39
DOCKED: REMARK   25  A    between atoms: C26_38  and  C28_40
DOCKED: REMARK   26  A    between atoms: C26_38  and  C29_41
DOCKED: REMARK   27  A    between atoms: N5_44  and  C31_45
DOCKED: REMARK   28  A    between atoms: C31_45  and  C32_46
DOCKED: REMARK                            x       y       z     vdW  Elec       q    Type
DOCKED: REMARK                         _______ _______ _______ _____ _____    ______ ____
DOCKED: USER                              x       y       z     vdW  Elec       q    Type
DOCKED: USER                           _______ _______ _______ _____ _____    ______ ____
DOCKED: ROOT
DOCKED: ATOM      1  C10 UNL     1      14.793  -4.865   1.540 +0.00 +0.00    +0.106 C  
DOCKED: ENDROOT
DOCKED: BRANCH   1   2
DOCKED: ATOM      2  N2  UNL     1      13.604  -5.718   1.426 +0.00 -0.00    -0.308 N  
DOCKED: ATOM      3  C18 UNL     1      12.390  -5.353   0.897 +0.00 +0.00    +0.233 C  
DOCKED: ATOM      4  O3  UNL     1      12.107  -4.182   0.638 +0.00 -0.00    -0.274 OA 
DOCKED: ATOM      5  H26 UNL     1      13.734  -6.713   1.578 +0.00 +0.00    +0.149 HD 
DOCKED: BRANCH   3   6
DOCKED: ATOM      6  C19 UNL     1      11.399  -6.509   0.631 +0.00 +0.00    +0.156 C  
DOCKED: ATOM      7  C20 UNL     1       9.955  -6.016   0.728 +0.00 +0.00    +0.038 C  
DOCKED: BRANCH   6   8
DOCKED: ATOM      8  N3  UNL     1      11.633  -7.754   1.373 +0.00 -0.00    -0.303 N  
DOCKED: ATOM      9  C21 UNL     1      12.610  -8.683   1.074 +0.00 +0.00    +0.234 C  
DOCKED: ATOM     10  O4  UNL     1      13.218  -8.679   0.008 +0.00 -0.00    -0.274 OA 
DOCKED: ATOM     11  H31 UNL     1      11.174  -7.839   2.281 +0.00 +0.00    +0.149 HD 
DOCKED: BRANCH   9  12
DOCKED: ATOM     12  C22 UNL     1      12.769  -9.794   2.133 +0.00 +0.00    +0.167 C  
DOCKED: BRANCH  12  13
DOCKED: ATOM     13  N4  UNL     1      13.841  -9.382   3.034 +0.00 -0.00    -0.270 N  
DOCKED: ATOM     14  C25 UNL     1      13.785  -8.198   3.710 +0.00 +0.00    +0.401 C  
DOCKED: ATOM     15  O5  UNL     1      12.939  -7.342   3.510 +0.00 -0.00    -0.226 OA 
DOCKED: ATOM     16  H36 UNL     1      14.419 -10.082   3.490 +0.00 +0.00    +0.153 HD 
DOCKED: BRANCH  14  17
DOCKED: ATOM     17  O6  UNL     1      14.750  -8.184   4.652 +0.00 -0.00    -0.445 OA 
DOCKED: BRANCH  17  18
DOCKED: ATOM     18  C26 UNL     1      14.514  -8.754   5.965 +0.00 +0.00    +0.107 C  
DOCKED: ATOM     19  C27 UNL     1      14.855 -10.248   5.980 +0.00 +0.00    +0.055 C  
DOCKED: ATOM     20  C28 UNL     1      15.264  -7.984   7.057 +0.00 +0.00    +0.055 C  
DOCKED: ATOM     21  C29 UNL     1      13.002  -8.579   6.192 +0.00 +0.00    +0.055 C  
DOCKED: ENDBRANCH  17  18
DOCKED: ENDBRANCH  14  17
DOCKED: ENDBRANCH  12  13
DOCKED: BRANCH  12  22
DOCKED: ATOM     22  C23 UNL     1      11.466 -10.026   2.897 +0.00 +0.00    +0.103 C  
DOCKED: BRANCH  22  23
DOCKED: ATOM     23  C24 UNL     1      11.534 -11.289   3.724 +0.00 +0.00    +0.343 C  
DOCKED: ATOM     24  F1  UNL     1      11.454 -10.966   5.039 +0.00 -0.00    -0.209 F  
DOCKED: ATOM     25  F2  UNL     1      12.740 -11.879   3.541 +0.00 -0.00    -0.209 F  
DOCKED: ENDBRANCH  22  23
DOCKED: ENDBRANCH  12  22
DOCKED: ENDBRANCH   9  12
DOCKED: ENDBRANCH   6   8
DOCKED: ENDBRANCH   3   6
DOCKED: ENDBRANCH   1   2
DOCKED: BRANCH   1  26
DOCKED: ATOM     26  C11 UNL     1      14.498  -3.679   2.487 +0.00 +0.00    +0.060 C  
DOCKED: BRANCH  26  27
DOCKED: ATOM     27  C12 UNL     1      14.064  -4.110   3.869 +0.00 -0.00    -0.046 A  
DOCKED: ATOM     28  C13 UNL     1      12.716  -4.387   4.138 +0.00 +0.00    +0.004 A  
DOCKED: ATOM     29  C14 UNL     1      12.323  -4.820   5.404 +0.00 +0.00    +0.000 A  
DOCKED: ATOM     30  C15 UNL     1      13.273  -4.978   6.411 +0.00 +0.00    +0.000 A  
DOCKED: ATOM     31  C16 UNL     1      14.610  -4.693   6.158 +0.00 +0.00    +0.000 A  
DOCKED: ATOM     32  C17 UNL     1      15.008  -4.263   4.892 +0.00 +0.00    +0.004 A  
DOCKED: ENDBRANCH  26  27
DOCKED: ENDBRANCH   1  26
DOCKED: BRANCH   1  33
DOCKED: ATOM     33  C9  UNL     1      16.114  -5.602   1.908 +0.00 +0.00    +0.136 C  
DOCKED: BRANCH  33  34
DOCKED: ATOM     34  O2  UNL     1      15.862  -6.928   2.365 +0.00 -0.00    -0.390 OA 
DOCKED: ATOM     35  H17 UNL     1      15.087  -6.891   2.968 +0.00 +0.00    +0.210 HD 
DOCKED: ENDBRANCH  33  34
DOCKED: BRANCH  33  36
DOCKED: ATOM     36  C8  UNL     1      17.156  -5.629   0.771 +0.00 +0.00    +0.045 C  
DOCKED: BRANCH  36  37
DOCKED: ATOM     37  C6  UNL     1      16.689  -6.370  -0.514 +0.00 +0.00    +0.074 C  
DOCKED: ATOM     38  C7  UNL     1      17.342  -5.822  -1.785 +0.00 +0.00    +0.017 C  
DOCKED: BRANCH  37  40
DOCKED: ATOM     39  N1  UNL     1      15.857  -8.536   0.216 +0.00 -0.00    -0.304 N  
DOCKED: ATOM     40  C5  UNL     1      16.902  -7.879  -0.398 +0.00 +0.00    +0.217 C  
DOCKED: ATOM     41  O1  UNL     1      17.918  -8.436  -0.808 +0.00 -0.00    -0.276 OA 
DOCKED: ATOM     42  H9  UNL     1      15.148  -7.924   0.586 +0.00 +0.00    +0.149 HD 
DOCKED: BRANCH  39  43
DOCKED: ATOM     43  C4  UNL     1      16.011  -9.809   0.945 +0.00 +0.00    +0.161 C  
DOCKED: BRANCH  43  44
DOCKED: ATOM     44  C30 UNL     1      16.939  -9.803   2.203 +0.00 +0.00    +0.234 C  
DOCKED: ATOM     45  O7  UNL     1      16.561 -10.106   3.335 +0.00 -0.00    -0.274 OA 
DOCKED: ATOM     46  N5  UNL     1      18.203  -9.323   1.956 +0.00 -0.00    -0.310 N  
DOCKED: ATOM     47  H46 UNL     1      18.506  -9.294   0.981 +0.00 +0.00    +0.149 HD 
DOCKED: BRANCH  46  48
DOCKED: ATOM     48  C31 UNL     1      19.161  -9.010   2.980 +0.00 +0.00    +0.139 C  
DOCKED: BRANCH  48  49
DOCKED: ATOM     49  C32 UNL     1      18.815  -7.690   3.620 +0.00 -0.00    -0.027 A  
DOCKED: ATOM     50  C33 UNL     1      19.393  -6.500   3.165 +0.00 +0.00    +0.025 A  
DOCKED: ATOM     51  C34 UNL     1      19.000  -5.305   3.755 +0.00 +0.00    +0.111 A  
DOCKED: ATOM     52  N6  UNL     1      18.093  -5.215   4.752 +0.00 -0.00    -0.263 NA 
DOCKED: ATOM     53  C35 UNL     1      17.544  -6.377   5.168 +0.00 +0.00    +0.111 A  
DOCKED: ATOM     54  C36 UNL     1      17.866  -7.620   4.641 +0.00 +0.00    +0.025 A  
DOCKED: ENDBRANCH  48  49
DOCKED: ENDBRANCH  46  48
DOCKED: ENDBRANCH  43  44
DOCKED: BRANCH  43  56
DOCKED: ATOM     55  C1  UNL     1      16.778 -12.244   0.736 +0.00 +0.00    +0.009 C  
DOCKED: ATOM     56  C2  UNL     1      16.433 -10.955  -0.025 +0.00 +0.00    +0.012 C  
DOCKED: ATOM     57  C3  UNL     1      15.380 -11.259  -1.101 +0.00 +0.00    +0.009 C  
DOCKED: ENDBRANCH  43  56
DOCKED: ENDBRANCH  39  43
DOCKED: ENDBRANCH  37  40
DOCKED: ENDBRANCH  36  37
DOCKED: ENDBRANCH  33  36
DOCKED: ENDBRANCH   1  33
DOCKED: TORSDOF 21
DOCKED: TER
DOCKED: ENDMDL
________________________________________________________________________________


    FINAL DOCKED STATE:
    ________________________


Run:   20 / 20
Time taken for this run:   1.475s

DOCKED: MODEL        20
DOCKED: USER    Run = 20
DOCKED: USER
DOCKED: USER    Estimated Free Energy of Binding    =  +6.26 kcal/mol  [=(1)+(2)+(3)-(4)]
DOCKED: USER
DOCKED: USER    (1) Final Intermolecular Energy     =  +0.00 kcal/mol
DOCKED: USER        vdW + Hbond + desolv Energy     =  +0.00 kcal/mol
DOCKED: USER        Electrostatic Energy            =  +0.00 kcal/mol
DOCKED: USER        Moving Ligand-Fixed Receptor    =  +0.00 kcal/mol
DOCKED: USER        Moving Ligand-Moving Receptor   =  +0.00 kcal/mol
DOCKED: USER    (2) Final Total Internal Energy     = -13.99 kcal/mol
DOCKED: USER    (3) Torsional Free Energy           =  +6.26 kcal/mol
DOCKED: USER    (4) Unbound System's Energy         = -13.99 kcal/mol
DOCKED: USER
DOCKED: USER
DOCKED: REMARK  Name = ligands/ligand_13.pdb
DOCKED: REMARK  28 active torsions:
DOCKED: REMARK  status: ('A' for Active; 'I' for Inactive)
DOCKED: REMARK    1  A    between atoms: C1_1  and  C2_2
DOCKED: REMARK    2  A    between atoms: C2_2  and  C3_3
DOCKED: REMARK    3  A    between atoms: C2_2  and  C4_4
DOCKED: REMARK    4  A    between atoms: C4_4  and  N1_5
DOCKED: REMARK    5  A    between atoms: C4_4  and  C30_42
DOCKED: REMARK    6  A    between atoms: C5_6  and  C6_8
DOCKED: REMARK    7  A    between atoms: C6_8  and  C7_9
DOCKED: REMARK    8  A    between atoms: C6_8  and  C8_10
DOCKED: REMARK    9  A    between atoms: C8_10  and  C9_11
DOCKED: REMARK   10  A    between atoms: C9_11  and  O2_12
DOCKED: REMARK   11  A    between atoms: C9_11  and  C10_13
DOCKED: REMARK   12  A    between atoms: C10_13  and  C11_14
DOCKED: REMARK   13  A    between atoms: C10_13  and  N2_21
DOCKED: REMARK   14  A    between atoms: C11_14  and  C12_15
DOCKED: REMARK   15  A    between atoms: C18_22  and  C19_24
DOCKED: REMARK   16  A    between atoms: C19_24  and  C20_25
DOCKED: REMARK   17  A    between atoms: C19_24  and  N3_26
DOCKED: REMARK   18  A    between atoms: C21_27  and  C22_29
DOCKED: REMARK   19  A    between atoms: C22_29  and  C23_30
DOCKED: REMARK   20  A    between atoms: C22_29  and  N4_34
DOCKED: REMARK   21  A    between atoms: C23_30  and  C24_31
DOCKED: REMARK   22  A    between atoms: C25_35  and  O6_37
DOCKED: REMARK   23  A    between atoms: O6_37  and  C26_38
DOCKED: REMARK   24  A    between atoms: C26_38  and  C27_39
DOCKED: REMARK   25  A    between atoms: C26_38  and  C28_40
DOCKED: REMARK   26  A    between atoms: C26_38  and  C29_41
DOCKED: REMARK   27  A    between atoms: N5_44  and  C31_45
DOCKED: REMARK   28  A    between atoms: C31_45  and  C32_46
DOCKED: REMARK                            x       y       z     vdW  Elec       q    Type
DOCKED: REMARK                         _______ _______ _______ _____ _____    ______ ____
DOCKED: USER                              x       y       z     vdW  Elec       q    Type
DOCKED: USER                           _______ _______ _______ _____ _____    ______ ____
DOCKED: ROOT
DOCKED: ATOM      1  C10 UNL     1       9.014  -3.290  -5.740 +0.00 +0.00    +0.106 C  
DOCKED: ENDROOT
DOCKED: BRANCH   1   2
DOCKED: ATOM      2  N2  UNL     1       8.088  -3.264  -6.878 +0.00 -0.00    -0.308 N  
DOCKED: ATOM      3  C18 UNL     1       7.701  -2.152  -7.585 +0.00 +0.00    +0.233 C  
DOCKED: ATOM      4  O3  UNL     1       7.943  -1.007  -7.201 +0.00 -0.00    -0.274 OA 
DOCKED: ATOM      5  H26 UNL     1       7.853  -4.157  -7.301 +0.00 +0.00    +0.149 HD 
DOCKED: BRANCH   3   6
DOCKED: ATOM      6  C19 UNL     1       6.949  -2.426  -8.908 +0.00 +0.00    +0.156 C  
DOCKED: ATOM      7  C20 UNL     1       5.976  -1.290  -9.222 +0.00 +0.00    +0.038 C  
DOCKED: BRANCH   6   8
DOCKED: ATOM      8  N3  UNL     1       6.345  -3.758  -9.053 +0.00 -0.00    -0.303 N  
DOCKED: ATOM      9  C21 UNL     1       7.045  -4.923  -9.293 +0.00 +0.00    +0.234 C  
DOCKED: ATOM     10  O4  UNL     1       8.217  -4.924  -9.655 +0.00 -0.00    -0.274 OA 
DOCKED: ATOM     11  H31 UNL     1       5.371  -3.852  -8.762 +0.00 +0.00    +0.149 HD 
DOCKED: BRANCH   9  12
DOCKED: ATOM     12  C22 UNL     1       6.189  -6.203  -9.196 +0.00 +0.00    +0.167 C  
DOCKED: BRANCH  12  13
DOCKED: ATOM     13  N4  UNL     1       6.351  -6.730  -7.844 +0.00 -0.00    -0.270 N  
DOCKED: ATOM     14  C25 UNL     1       6.076  -5.968  -6.748 +0.00 +0.00    +0.401 C  
DOCKED: ATOM     15  O5  UNL     1       5.829  -4.774  -6.796 +0.00 -0.00    -0.226 OA 
DOCKED: ATOM     16  H36 UNL     1       6.268  -7.728  -7.675 +0.00 +0.00    +0.153 HD 
DOCKED: BRANCH  14  17
DOCKED: ATOM     17  O6  UNL     1       6.054  -6.759  -5.656 +0.00 -0.00    -0.445 OA 
DOCKED: BRANCH  17  18
DOCKED: ATOM     18  C26 UNL     1       4.811  -7.343  -5.188 +0.00 +0.00    +0.107 C  
DOCKED: ATOM     19  C27 UNL     1       4.841  -7.542  -3.668 +0.00 +0.00    +0.055 C  
DOCKED: ATOM     20  C28 UNL     1       3.598  -6.520  -5.635 +0.00 +0.00    +0.055 C  
DOCKED: ATOM     21  C29 UNL     1       4.752  -8.719  -5.875 +0.00 +0.00    +0.055 C  
DOCKED: ENDBRANCH  17  18
DOCKED: ENDBRANCH  14  17
DOCKED: ENDBRANCH  12  13
DOCKED: BRANCH  12  22
DOCKED: ATOM     22  C23 UNL     1       4.721  -5.916  -9.504 +0.00 +0.00    +0.103 C  
DOCKED: BRANCH  22  23
DOCKED: ATOM     23  C24 UNL     1       3.929  -7.197  -9.635 +0.00 +0.00    +0.343 C  
DOCKED: ATOM     24  F1  UNL     1       3.091  -7.313  -8.575 +0.00 -0.00    -0.209 F  
DOCKED: ATOM     25  F2  UNL     1       4.775  -8.254  -9.580 +0.00 -0.00    -0.209 F  
DOCKED: ENDBRANCH  22  23
DOCKED: ENDBRANCH  12  22
DOCKED: ENDBRANCH   9  12
DOCKED: ENDBRANCH   6   8
DOCKED: ENDBRANCH   3   6
DOCKED: ENDBRANCH   1   2
DOCKED: BRANCH   1  26
DOCKED: ATOM     26  C11 UNL     1       8.425  -2.473  -4.567 +0.00 +0.00    +0.060 C  
DOCKED: BRANCH  26  27
DOCKED: ATOM     27  C12 UNL     1       7.058  -2.949  -4.134 +0.00 -0.00    -0.046 A  
DOCKED: ATOM     28  C13 UNL     1       5.906  -2.503  -4.798 +0.00 +0.00    +0.004 A  
DOCKED: ATOM     29  C14 UNL     1       4.647  -2.972  -4.421 +0.00 +0.00    +0.000 A  
DOCKED: ATOM     30  C15 UNL     1       4.530  -3.888  -3.377 +0.00 +0.00    +0.000 A  
DOCKED: ATOM     31  C16 UNL     1       5.665  -4.326  -2.704 +0.00 +0.00    +0.000 A  
DOCKED: ATOM     32  C17 UNL     1       6.926  -3.863  -3.080 +0.00 +0.00    +0.004 A  
DOCKED: ENDBRANCH  26  27
DOCKED: ENDBRANCH   1  26
DOCKED: BRANCH   1  33
DOCKED: ATOM     33  C9  UNL     1       9.493  -4.702  -5.296 +0.00 +0.00    +0.136 C  
DOCKED: BRANCH  33  34
DOCKED: ATOM     34  O2  UNL     1       8.716  -5.732  -5.903 +0.00 -0.00    -0.390 OA 
DOCKED: ATOM     35  H17 UNL     1       7.771  -5.471  -5.829 +0.00 +0.00    +0.210 HD 
DOCKED: ENDBRANCH  33  34
DOCKED: BRANCH  33  36
DOCKED: ATOM     36  C8  UNL     1      10.993  -4.964  -5.544 +0.00 +0.00    +0.045 C  
DOCKED: BRANCH  36  37
DOCKED: ATOM     37  C6  UNL     1      11.405  -4.982  -7.043 +0.00 +0.00    +0.074 C  
DOCKED: ATOM     38  C7  UNL     1      12.861  -4.562  -7.263 +0.00 +0.00    +0.017 C  
DOCKED: BRANCH  37  40
DOCKED: ATOM     39  N1  UNL     1       9.852  -6.456  -8.197 +0.00 -0.00    -0.304 N  
DOCKED: ATOM     40  C5  UNL     1      11.127  -6.341  -7.685 +0.00 +0.00    +0.217 C  
DOCKED: ATOM     41  O1  UNL     1      11.967  -7.237  -7.723 +0.00 -0.00    -0.276 OA 
DOCKED: ATOM     42  H9  UNL     1       9.256  -5.670  -7.993 +0.00 +0.00    +0.149 HD 
DOCKED: BRANCH  39  43
DOCKED: ATOM     43  C4  UNL     1       9.146  -7.742  -8.342 +0.00 +0.00    +0.161 C  
DOCKED: BRANCH  43  44
DOCKED: ATOM     44  C30 UNL     1       8.879  -8.560  -7.037 +0.00 +0.00    +0.234 C  
DOCKED: ATOM     45  O7  UNL     1       7.754  -8.861  -6.634 +0.00 -0.00    -0.274 OA 
DOCKED: ATOM     46  N5  UNL     1      10.014  -8.830  -6.310 +0.00 -0.00    -0.310 N  
DOCKED: ATOM     47  H46 UNL     1      10.908  -8.742  -6.796 +0.00 +0.00    +0.149 HD 
DOCKED: BRANCH  46  48
DOCKED: ATOM     48  C31 UNL     1      10.010  -9.365  -4.977 +0.00 +0.00    +0.139 C  
DOCKED: BRANCH  48  49
DOCKED: ATOM     49  C32 UNL     1       9.661  -8.282  -3.990 +0.00 -0.00    -0.027 A  
DOCKED: ATOM     50  C33 UNL     1      10.663  -7.535  -3.360 +0.00 +0.00    +0.025 A  
DOCKED: ATOM     51  C34 UNL     1      10.285  -6.513  -2.499 +0.00 +0.00    +0.111 A  
DOCKED: ATOM     52  N6  UNL     1       9.003  -6.192  -2.221 +0.00 -0.00    -0.263 NA 
DOCKED: ATOM     53  C35 UNL     1       8.055  -6.921  -2.846 +0.00 +0.00    +0.111 A  
DOCKED: ATOM     54  C36 UNL     1       8.328  -7.959  -3.727 +0.00 +0.00    +0.025 A  
DOCKED: ENDBRANCH  48  49
DOCKED: ENDBRANCH  46  48
DOCKED: ENDBRANCH  43  44
DOCKED: BRANCH  43  56
DOCKED: ATOM     55  C1  UNL     1       9.184 -10.026  -9.504 +0.00 +0.00    +0.009 C  
DOCKED: ATOM     56  C2  UNL     1       9.849  -8.644  -9.403 +0.00 +0.00    +0.012 C  
DOCKED: ATOM     57  C3  UNL     1       9.916  -8.002 -10.797 +0.00 +0.00    +0.009 C  
DOCKED: ENDBRANCH  43  56
DOCKED: ENDBRANCH  39  43
DOCKED: ENDBRANCH  37  40
DOCKED: ENDBRANCH  36  37
DOCKED: ENDBRANCH  33  36
DOCKED: ENDBRANCH   1  33
DOCKED: TORSDOF 21
DOCKED: TER
DOCKED: ENDMDL
________________________________________________________________________________


    CLUSTERING HISTOGRAM
    ____________________


________________________________________________________________________________
     |           |     |           |     |
Clus | Lowest    | Run | Mean      | Num | Histogram
-ter | Binding   |     | Binding   | in  |
Rank | Energy    |     | Energy    | Clus|    5    10   15   20   25   30   35
_____|___________|_____|___________|_____|____:____|____:____|____:____|____:___
   1 |     +6.26 |   1 |     +6.26 |   1 |#
   2 |     +6.26 |   2 |     +6.26 |   1 |#
   3 |     +6.26 |   3 |     +6.26 |   1 |#
   4 |     +6.26 |   4 |     +6.26 |   1 |#
   5 |     +6.26 |   5 |     +6.26 |   1 |#
   6 |     +6.26 |   6 |     +6.26 |   1 |#
   7 |     +6.26 |   7 |     +6.26 |   1 |#
   8 |     +6.26 |   8 |     +6.26 |   1 |#
   9 |     +6.26 |   9 |     +6.26 |   1 |#
  10 |     +6.26 |  10 |     +6.26 |   1 |#
  11 |     +6.26 |  11 |     +6.26 |   1 |#
  12 |     +6.26 |  12 |     +6.26 |   1 |#
  13 |     +6.26 |  13 |     +6.26 |   1 |#
  14 |     +6.26 |  14 |     +6.26 |   1 |#
  15 |     +6.26 |  15 |     +6.26 |   1 |#
  16 |     +6.26 |  16 |     +6.26 |   1 |#
  17 |     +6.26 |  17 |     +6.26 |   1 |#
  18 |     +6.26 |  18 |     +6.26 |   1 |#
  19 |     +6.26 |  19 |     +6.26 |   1 |#
  20 |     +6.26 |  20 |     +6.26 |   1 |#
_____|___________|_____|___________|_____|______________________________________


    RMSD TABLE
    __________


_______________________________________________________________________
     |      |      |           |         |                 |
Rank | Sub- | Run  | Binding   | Cluster | Reference       | Grep
     | Rank |      | Energy    | RMSD    | RMSD            | Pattern
_____|______|______|___________|_________|_________________|___________
   1      1      1       +6.26      0.00     13.48           RANKING
   2      1      2       +6.26      0.00     11.76           RANKING
   3      1      3       +6.26      0.00     12.60           RANKING
   4      1      4       +6.26      0.00      8.95           RANKING
   5      1      5       +6.26      0.00     13.19           RANKING
   6      1      6       +6.26      0.00     11.48           RANKING
   7      1      7       +6.26      0.00     14.97           RANKING
   8      1      8       +6.26      0.00     13.31           RANKING
   9      1      9       +6.26      0.00      6.65           RANKING
  10      1     10       +6.26      0.00     10.51           RANKING
  11      1     11       +6.26      0.00     13.01           RANKING
  12      1     12       +6.26      0.00      9.73           RANKING
  13      1     13       +6.26      0.00     11.05           RANKING
  14      1     14       +6.26      0.00      7.50           RANKING
  15      1     15       +6.26      0.00     12.68           RANKING
  16      1     16       +6.26      0.00     13.30           RANKING
  17      1     17       +6.26      0.00      9.65           RANKING
  18      1     18       +6.26      0.00     11.10           RANKING
  19      1     19       +6.26      0.00     14.41           RANKING
  20      1     20       +6.26      0.00      8.62           RANKING

Run time 29.754 sec
Idle time 0.440 sec
