AutoDock-GPU version: v1.6

**********************************************************
**    AutoDock-GPU AUTODOCKTOOLS-COMPATIBLE DLG FILE    **
**********************************************************


    DOCKING PARAMETERS
    ________________________


Ligand file:                               ligands/ligand_27.pdbqt
Grid fld file:                             protein.maps.fld

Random seed:                               1770972952, 29280
Number of runs:                            20
Number of energy evaluations:              11793080
Number of generations:                     42000
Size of population:                        150
Rate of crossover:                         80.000000%
Tournament selection probability limit:    60.000000%
Rate of mutation:                          2.000000%
Maximal allowed delta movement:            +/- 6.000000A
Maximal allowed delta angle:               +/- 90.000000

Rate of local search:                      100.000000%
Maximal number of local search iterations: 300
Rho lower bound:                           0.010000
Spread of local search delta movement:     2.000000A
Spread of local search delta angle:        74.999999
Limit of consecutive successes/failures:   4

Handle symmetry during clustering:         YES
RMSD tolerance:                            2.000000A

Program call in command line was:          ./autodock-gpu --ffile protein.maps.fld --lfile ligands/ligand_27.pdbqt --nrun 20 


    GRID PARAMETERS
    ________________________


Receptor name:                             #MACROMOLECULE
Number of grid points (x, y, z):           61, 61, 61
Grid center (x, y, z):                     10.261000, -3.492000, -0.127000A
Grid size (x, y, z):                       22.500000, 22.500000, 22.500000A
Grid spacing:                              0.375000A


    LIGAND PARAMETERS
    ________________________


Ligand name:                               ligands/ligand_27
Number of atoms:                           73
Number of rotatable bonds:                 32
Number of atom types:                      6


    DUMMY DATA (only for ADT-compatibility)
    ________________________


DPF> outlev 1
DPF> ga_run 20
DPF> fld protein.maps.fld
DPF> move ligands/ligand_27.pdbqt


    COUNTER STATES
    ________________________


Number of energy evaluations performed:    11745178
Number of generations used:                500


    INPUT LIGAND PDBQT FILE:
    ________________________


INPUT-LIGAND-PDBQT: REMARK  Name = ligands/ligand_27.pdb
INPUT-LIGAND-PDBQT: REMARK  40 active torsions:
INPUT-LIGAND-PDBQT: REMARK  status: ('A' for Active; 'I' for Inactive)
INPUT-LIGAND-PDBQT: REMARK    1  A    between atoms: C1_1  and  S1_2
INPUT-LIGAND-PDBQT: REMARK    2  A    between atoms: S1_2  and  C2_3
INPUT-LIGAND-PDBQT: REMARK    3  A    between atoms: C2_3  and  C3_4
INPUT-LIGAND-PDBQT: REMARK    4  A    between atoms: C3_4  and  C4_5
INPUT-LIGAND-PDBQT: REMARK    5  A    between atoms: C4_5  and  N1_6
INPUT-LIGAND-PDBQT: REMARK    6  A    between atoms: C4_5  and  C12_17
INPUT-LIGAND-PDBQT: REMARK    7  A    between atoms: C5_7  and  C6_9
INPUT-LIGAND-PDBQT: REMARK    8  A    between atoms: C6_9  and  N2_10
INPUT-LIGAND-PDBQT: REMARK    9  A    between atoms: C6_9  and  C9_14
INPUT-LIGAND-PDBQT: REMARK   10  A    between atoms: C7_11  and  C8_12
INPUT-LIGAND-PDBQT: REMARK   11  A    between atoms: C9_14  and  C10_15
INPUT-LIGAND-PDBQT: REMARK   12  A    between atoms: C9_14  and  C11_16
INPUT-LIGAND-PDBQT: REMARK   13  A    between atoms: N3_19  and  C13_20
INPUT-LIGAND-PDBQT: REMARK   14  A    between atoms: C13_20  and  C14_21
INPUT-LIGAND-PDBQT: REMARK   15  A    between atoms: C13_20  and  C18_25
INPUT-LIGAND-PDBQT: REMARK   16  A    between atoms: C14_21  and  C15_22
INPUT-LIGAND-PDBQT: REMARK   17  A    between atoms: C15_22  and  C16_23
INPUT-LIGAND-PDBQT: REMARK   18  A    between atoms: C15_22  and  C17_24
INPUT-LIGAND-PDBQT: REMARK   19  A    between atoms: C18_25  and  O4_26
INPUT-LIGAND-PDBQT: REMARK   20  A    between atoms: C18_25  and  C19_27
INPUT-LIGAND-PDBQT: REMARK   21  A    between atoms: C19_27  and  C20_28
INPUT-LIGAND-PDBQT: REMARK   22  A    between atoms: N4_30  and  C21_31
INPUT-LIGAND-PDBQT: REMARK   23  A    between atoms: C21_31  and  C22_32
INPUT-LIGAND-PDBQT: REMARK   24  A    between atoms: C21_31  and  C40_60
INPUT-LIGAND-PDBQT: REMARK   25  A    between atoms: N5_34  and  C23_35
INPUT-LIGAND-PDBQT: REMARK   26  A    between atoms: C23_35  and  C24_36
INPUT-LIGAND-PDBQT: REMARK   27  A    between atoms: C23_35  and  C25_37
INPUT-LIGAND-PDBQT: REMARK   28  A    between atoms: N6_39  and  C26_40
INPUT-LIGAND-PDBQT: REMARK   29  A    between atoms: C26_40  and  C27_41
INPUT-LIGAND-PDBQT: REMARK   30  A    between atoms: C26_40  and  C30_46
INPUT-LIGAND-PDBQT: REMARK   31  A    between atoms: C27_41  and  C28_42
INPUT-LIGAND-PDBQT: REMARK   32  A    between atoms: C28_42  and  C29_43
INPUT-LIGAND-PDBQT: REMARK   33  A    between atoms: C29_43  and  O9_45
INPUT-LIGAND-PDBQT: REMARK   34  A    between atoms: N7_48  and  C31_49
INPUT-LIGAND-PDBQT: REMARK   35  A    between atoms: C31_49  and  C32_50
INPUT-LIGAND-PDBQT: REMARK   36  A    between atoms: C31_49  and  C39_57
INPUT-LIGAND-PDBQT: REMARK   37  A    between atoms: C32_50  and  C33_51
INPUT-LIGAND-PDBQT: REMARK   38  A    between atoms: C39_57  and  O12_59
INPUT-LIGAND-PDBQT: REMARK   39  A    between atoms: C40_60  and  C41_61
INPUT-LIGAND-PDBQT: REMARK   40  A    between atoms: C40_60  and  O13_62
INPUT-LIGAND-PDBQT: REMARK                            x       y       z     vdW  Elec       q    Type
INPUT-LIGAND-PDBQT: REMARK                         _______ _______ _______ _____ _____    ______ ____
INPUT-LIGAND-PDBQT: ROOT
INPUT-LIGAND-PDBQT: ATOM      1  C21 UNL     1      -4.683   1.642   1.050  0.00  0.00    +0.187 C 
INPUT-LIGAND-PDBQT: ENDROOT
INPUT-LIGAND-PDBQT: BRANCH   1   2
INPUT-LIGAND-PDBQT: ATOM      2  C22 UNL     1      -3.862   2.524   0.091  0.00  0.00    +0.236 C 
INPUT-LIGAND-PDBQT: ATOM      3  O6  UNL     1      -3.758   2.272  -1.115  0.00  0.00    -0.274 OA
INPUT-LIGAND-PDBQT: ATOM      4  N5  UNL     1      -3.097   3.511   0.680  0.00  0.00    -0.303 N 
INPUT-LIGAND-PDBQT: ATOM      5  H39 UNL     1      -3.191   3.654   1.688  0.00  0.00    +0.149 HD
INPUT-LIGAND-PDBQT: BRANCH   4   6
INPUT-LIGAND-PDBQT: ATOM      6  C23 UNL     1      -2.238   4.380  -0.121  0.00  0.00    +0.156 C 
INPUT-LIGAND-PDBQT: ATOM      7  C24 UNL     1      -2.004   5.710   0.584  0.00  0.00    +0.038 C 
INPUT-LIGAND-PDBQT: BRANCH   6   8
INPUT-LIGAND-PDBQT: ATOM      8  C25 UNL     1      -0.888   3.694  -0.380  0.00  0.00    +0.234 C 
INPUT-LIGAND-PDBQT: ATOM      9  O7  UNL     1      -0.180   3.956  -1.350  0.00  0.00    -0.274 OA
INPUT-LIGAND-PDBQT: ATOM     10  N6  UNL     1      -0.459   2.852   0.618  0.00  0.00    -0.302 N 
INPUT-LIGAND-PDBQT: ATOM     11  H44 UNL     1      -1.113   2.663   1.373  0.00  0.00    +0.150 HD
INPUT-LIGAND-PDBQT: BRANCH  10  12
INPUT-LIGAND-PDBQT: ATOM     12  C26 UNL     1       0.824   2.173   0.550  0.00  0.00    +0.159 C 
INPUT-LIGAND-PDBQT: BRANCH  12  13
INPUT-LIGAND-PDBQT: ATOM     13  C30 UNL     1       0.771   0.996  -0.466  0.00  0.00    +0.234 C 
INPUT-LIGAND-PDBQT: ATOM     14  O10 UNL     1       0.792  -0.190  -0.127  0.00  0.00    -0.274 OA
INPUT-LIGAND-PDBQT: ATOM     15  N7  UNL     1       0.747   1.387  -1.777  0.00  0.00    -0.301 N 
INPUT-LIGAND-PDBQT: ATOM     16  H51 UNL     1       0.582   2.377  -1.991  0.00  0.00    +0.150 HD
INPUT-LIGAND-PDBQT: BRANCH  15  17
INPUT-LIGAND-PDBQT: ATOM     17  C31 UNL     1       0.813   0.458  -2.912  0.00  0.00    +0.186 C 
INPUT-LIGAND-PDBQT: BRANCH  17  18
INPUT-LIGAND-PDBQT: ATOM     18  C39 UNL     1       1.659   1.122  -3.999  0.00  0.00    +0.326 C 
INPUT-LIGAND-PDBQT: ATOM     19  O11 UNL     1       1.692   2.315  -4.261  0.00  0.00    -0.249 OA
INPUT-LIGAND-PDBQT: BRANCH  18  20
INPUT-LIGAND-PDBQT: ATOM     20  O12 UNL     1       2.440   0.246  -4.658  0.00  0.00    -0.479 OA
INPUT-LIGAND-PDBQT: ATOM     21  H60 UNL     1       2.965   0.774  -5.295  0.00  0.00    +0.295 HD
INPUT-LIGAND-PDBQT: ENDBRANCH  18  20
INPUT-LIGAND-PDBQT: ENDBRANCH  17  18
INPUT-LIGAND-PDBQT: BRANCH  17  22
INPUT-LIGAND-PDBQT: ATOM     22  C32 UNL     1      -0.586   0.133  -3.436  0.00  0.00    +0.069 C 
INPUT-LIGAND-PDBQT: BRANCH  22  23
INPUT-LIGAND-PDBQT: ATOM     23  C33 UNL     1      -0.589  -0.917  -4.518  0.00  0.00    -0.045 A 
INPUT-LIGAND-PDBQT: ATOM     24  C34 UNL     1      -1.014  -0.595  -5.817  0.00  0.00    +0.004 A 
INPUT-LIGAND-PDBQT: ATOM     25  C35 UNL     1      -1.015  -1.566  -6.824  0.00  0.00    +0.000 A 
INPUT-LIGAND-PDBQT: ATOM     26  C36 UNL     1      -0.586  -2.863  -6.545  0.00  0.00    +0.000 A 
INPUT-LIGAND-PDBQT: ATOM     27  C37 UNL     1      -0.160  -3.192  -5.262  0.00  0.00    +0.000 A 
INPUT-LIGAND-PDBQT: ATOM     28  C38 UNL     1      -0.160  -2.226  -4.250  0.00  0.00    +0.004 A 
INPUT-LIGAND-PDBQT: ENDBRANCH  22  23
INPUT-LIGAND-PDBQT: ENDBRANCH  17  22
INPUT-LIGAND-PDBQT: ENDBRANCH  15  17
INPUT-LIGAND-PDBQT: ENDBRANCH  12  13
INPUT-LIGAND-PDBQT: BRANCH  12  29
INPUT-LIGAND-PDBQT: ATOM     29  C27 UNL     1       1.283   1.649   1.918  0.00  0.00    +0.043 C 
INPUT-LIGAND-PDBQT: BRANCH  29  30
INPUT-LIGAND-PDBQT: ATOM     30  C28 UNL     1       1.530   2.764   2.928  0.00  0.00    +0.123 C 
INPUT-LIGAND-PDBQT: BRANCH  30  31
INPUT-LIGAND-PDBQT: ATOM     31  C29 UNL     1       0.353   2.914   3.848  0.00  0.00    +0.305 C 
INPUT-LIGAND-PDBQT: ATOM     32  O8  UNL     1      -0.691   3.505   3.615  0.00  0.00    -0.251 OA
INPUT-LIGAND-PDBQT: BRANCH  31  33
INPUT-LIGAND-PDBQT: ATOM     33  O9  UNL     1       0.522   2.240   5.003  0.00  0.00    -0.481 OA
INPUT-LIGAND-PDBQT: ATOM     34  H50 UNL     1      -0.283   2.442   5.527  0.00  0.00    +0.295 HD
INPUT-LIGAND-PDBQT: ENDBRANCH  31  33
INPUT-LIGAND-PDBQT: ENDBRANCH  30  31
INPUT-LIGAND-PDBQT: ENDBRANCH  29  30
INPUT-LIGAND-PDBQT: ENDBRANCH  12  29
INPUT-LIGAND-PDBQT: ENDBRANCH  10  12
INPUT-LIGAND-PDBQT: ENDBRANCH   6   8
INPUT-LIGAND-PDBQT: ENDBRANCH   4   6
INPUT-LIGAND-PDBQT: ENDBRANCH   1   2
INPUT-LIGAND-PDBQT: BRANCH   1  37
INPUT-LIGAND-PDBQT: ATOM     35  C20 UNL     1      -4.362  -0.609   1.998  0.00  0.00    +0.216 C 
INPUT-LIGAND-PDBQT: ATOM     36  O5  UNL     1      -5.555  -0.720   2.271  0.00  0.00    -0.276 OA
INPUT-LIGAND-PDBQT: ATOM     37  N4  UNL     1      -3.823   0.530   1.463  0.00  0.00    -0.302 N 
INPUT-LIGAND-PDBQT: ATOM     38  H37 UNL     1      -2.821   0.605   1.337  0.00  0.00    +0.150 HD
INPUT-LIGAND-PDBQT: BRANCH  35  39
INPUT-LIGAND-PDBQT: ATOM     39  C19 UNL     1      -3.396  -1.756   2.178  0.00  0.00    +0.129 C 
INPUT-LIGAND-PDBQT: BRANCH  39  40
INPUT-LIGAND-PDBQT: ATOM     40  C18 UNL     1      -3.423  -2.723   0.982  0.00  0.00    +0.143 C 
INPUT-LIGAND-PDBQT: BRANCH  40  41
INPUT-LIGAND-PDBQT: ATOM     41  O4  UNL     1      -4.768  -3.023   0.616  0.00  0.00    -0.389 OA
INPUT-LIGAND-PDBQT: ATOM     42  H34 UNL     1      -5.269  -3.245   1.422  0.00  0.00    +0.210 HD
INPUT-LIGAND-PDBQT: ENDBRANCH  40  41
INPUT-LIGAND-PDBQT: BRANCH  40  43
INPUT-LIGAND-PDBQT: ATOM     43  C13 UNL     1      -2.569  -2.221  -0.232  0.00  0.00    +0.102 C 
INPUT-LIGAND-PDBQT: BRANCH  43  46
INPUT-LIGAND-PDBQT: ATOM     44  C12 UNL     1      -0.519  -3.589   0.261  0.00  0.00    +0.234 C 
INPUT-LIGAND-PDBQT: ATOM     45  O3  UNL     1      -1.163  -4.639   0.218  0.00  0.00    -0.274 OA
INPUT-LIGAND-PDBQT: ATOM     46  N3  UNL     1      -1.118  -2.364   0.052  0.00  0.00    -0.308 N 
INPUT-LIGAND-PDBQT: ATOM     47  H22 UNL     1      -0.518  -1.545  -0.044  0.00  0.00    +0.149 HD
INPUT-LIGAND-PDBQT: BRANCH  44  48
INPUT-LIGAND-PDBQT: ATOM     48  C4  UNL     1       0.919  -3.581   0.809  0.00  0.00    +0.160 C 
INPUT-LIGAND-PDBQT: BRANCH  48  49
INPUT-LIGAND-PDBQT: ATOM     49  N1  UNL     1       1.893  -2.753   0.086  0.00  0.00    -0.302 N 
INPUT-LIGAND-PDBQT: ATOM     50  C5  UNL     1       3.147  -3.258  -0.185  0.00  0.00    +0.234 C 
INPUT-LIGAND-PDBQT: ATOM     51  O1  UNL     1       3.397  -4.456  -0.022  0.00  0.00    -0.274 OA
INPUT-LIGAND-PDBQT: ATOM     52  H9  UNL     1       1.676  -1.787  -0.127  0.00  0.00    +0.150 HD
INPUT-LIGAND-PDBQT: BRANCH  50  53
INPUT-LIGAND-PDBQT: ATOM     53  C6  UNL     1       4.245  -2.278  -0.677  0.00  0.00    +0.161 C 
INPUT-LIGAND-PDBQT: BRANCH  53  54
INPUT-LIGAND-PDBQT: ATOM     54  N2  UNL     1       3.836  -0.873  -0.738  0.00  0.00    -0.304 N 
INPUT-LIGAND-PDBQT: ATOM     55  C7  UNL     1       4.438  -0.020  -1.639  0.00  0.00    +0.211 C 
INPUT-LIGAND-PDBQT: ATOM     56  C8  UNL     1       4.264   1.443  -1.327  0.00  0.00    +0.109 C 
INPUT-LIGAND-PDBQT: ATOM     57  O2  UNL     1       5.100  -0.396  -2.605  0.00  0.00    -0.276 OA
INPUT-LIGAND-PDBQT: ATOM     58  H11 UNL     1       3.407  -0.484   0.091  0.00  0.00    +0.149 HD
INPUT-LIGAND-PDBQT: ENDBRANCH  53  54
INPUT-LIGAND-PDBQT: BRANCH  53  59
INPUT-LIGAND-PDBQT: ATOM     59  C9  UNL     1       5.514  -2.472   0.217  0.00  0.00    +0.012 C 
INPUT-LIGAND-PDBQT: ATOM     60  C10 UNL     1       6.813  -2.146  -0.525  0.00  0.00    +0.009 C 
INPUT-LIGAND-PDBQT: ATOM     61  C11 UNL     1       5.452  -1.676   1.527  0.00  0.00    +0.009 C 
INPUT-LIGAND-PDBQT: ENDBRANCH  53  59
INPUT-LIGAND-PDBQT: ENDBRANCH  50  53
INPUT-LIGAND-PDBQT: ENDBRANCH  48  49
INPUT-LIGAND-PDBQT: BRANCH  48  62
INPUT-LIGAND-PDBQT: ATOM     62  C3  UNL     1       0.873  -3.177   2.294  0.00  0.00    +0.042 C 
INPUT-LIGAND-PDBQT: BRANCH  62  63
INPUT-LIGAND-PDBQT: ATOM     63  C2  UNL     1       2.033  -3.785   3.073  0.00  0.00    +0.071 C 
INPUT-LIGAND-PDBQT: BRANCH  63  65
INPUT-LIGAND-PDBQT: ATOM     64  C1  UNL     1       3.432  -4.144   5.411  0.00  0.00    +0.084 C 
INPUT-LIGAND-PDBQT: ATOM     65  S1  UNL     1       1.975  -3.245   4.810  0.00  0.00    -0.164 S 
INPUT-LIGAND-PDBQT: ENDBRANCH  63  65
INPUT-LIGAND-PDBQT: ENDBRANCH  62  63
INPUT-LIGAND-PDBQT: ENDBRANCH  48  62
INPUT-LIGAND-PDBQT: ENDBRANCH  44  48
INPUT-LIGAND-PDBQT: ENDBRANCH  43  46
INPUT-LIGAND-PDBQT: BRANCH  43  66
INPUT-LIGAND-PDBQT: ATOM     66  C14 UNL     1      -2.932  -2.877  -1.588  0.00  0.00    +0.028 C 
INPUT-LIGAND-PDBQT: BRANCH  66  67
INPUT-LIGAND-PDBQT: ATOM     67  C15 UNL     1      -4.240  -2.414  -2.270  0.00  0.00    -0.015 C 
INPUT-LIGAND-PDBQT: ATOM     68  C16 UNL     1      -4.431  -3.183  -3.581  0.00  0.00    +0.007 C 
INPUT-LIGAND-PDBQT: ATOM     69  C17 UNL     1      -4.292  -0.915  -2.549  0.00  0.00    +0.007 C 
INPUT-LIGAND-PDBQT: ENDBRANCH  66  67
INPUT-LIGAND-PDBQT: ENDBRANCH  43  66
INPUT-LIGAND-PDBQT: ENDBRANCH  40  43
INPUT-LIGAND-PDBQT: ENDBRANCH  39  40
INPUT-LIGAND-PDBQT: ENDBRANCH  35  39
INPUT-LIGAND-PDBQT: ENDBRANCH   1  37
INPUT-LIGAND-PDBQT: BRANCH   1  70
INPUT-LIGAND-PDBQT: ATOM     70  C40 UNL     1      -5.313   2.405   2.243  0.00  0.00    +0.141 C 
INPUT-LIGAND-PDBQT: ATOM     71  C41 UNL     1      -6.325   3.445   1.790  0.00  0.00    +0.040 C 
INPUT-LIGAND-PDBQT: BRANCH  70  72
INPUT-LIGAND-PDBQT: ATOM     72  O13 UNL     1      -4.303   3.049   3.037  0.00  0.00    -0.390 OA
INPUT-LIGAND-PDBQT: ATOM     73  H65 UNL     1      -4.735   3.312   3.873  0.00  0.00    +0.210 HD
INPUT-LIGAND-PDBQT: ENDBRANCH  70  72
INPUT-LIGAND-PDBQT: ENDBRANCH   1  70
INPUT-LIGAND-PDBQT: TORSDOF 32


    FINAL DOCKED STATE:
    ________________________


Run:   1 / 20
Time taken for this run:   5.815s

DOCKED: MODEL        1
DOCKED: USER    Run = 1
DOCKED: USER
DOCKED: USER    Estimated Free Energy of Binding    =  +9.55 kcal/mol  [=(1)+(2)+(3)-(4)]
DOCKED: USER
DOCKED: USER    (1) Final Intermolecular Energy     =  +0.00 kcal/mol
DOCKED: USER        vdW + Hbond + desolv Energy     =  +0.00 kcal/mol
DOCKED: USER        Electrostatic Energy            =  +0.00 kcal/mol
DOCKED: USER        Moving Ligand-Fixed Receptor    =  +0.00 kcal/mol
DOCKED: USER        Moving Ligand-Moving Receptor   =  +0.00 kcal/mol
DOCKED: USER    (2) Final Total Internal Energy     = -26.96 kcal/mol
DOCKED: USER    (3) Torsional Free Energy           =  +9.55 kcal/mol
DOCKED: USER    (4) Unbound System's Energy         = -26.96 kcal/mol
DOCKED: USER
DOCKED: USER
DOCKED: REMARK  Name = ligands/ligand_27.pdb
DOCKED: REMARK  40 active torsions:
DOCKED: REMARK  status: ('A' for Active; 'I' for Inactive)
DOCKED: REMARK    1  A    between atoms: C1_1  and  S1_2
DOCKED: REMARK    2  A    between atoms: S1_2  and  C2_3
DOCKED: REMARK    3  A    between atoms: C2_3  and  C3_4
DOCKED: REMARK    4  A    between atoms: C3_4  and  C4_5
DOCKED: REMARK    5  A    between atoms: C4_5  and  N1_6
DOCKED: REMARK    6  A    between atoms: C4_5  and  C12_17
DOCKED: REMARK    7  A    between atoms: C5_7  and  C6_9
DOCKED: REMARK    8  A    between atoms: C6_9  and  N2_10
DOCKED: REMARK    9  A    between atoms: C6_9  and  C9_14
DOCKED: REMARK   10  A    between atoms: C7_11  and  C8_12
DOCKED: REMARK   11  A    between atoms: C9_14  and  C10_15
DOCKED: REMARK   12  A    between atoms: C9_14  and  C11_16
DOCKED: REMARK   13  A    between atoms: N3_19  and  C13_20
DOCKED: REMARK   14  A    between atoms: C13_20  and  C14_21
DOCKED: REMARK   15  A    between atoms: C13_20  and  C18_25
DOCKED: REMARK   16  A    between atoms: C14_21  and  C15_22
DOCKED: REMARK   17  A    between atoms: C15_22  and  C16_23
DOCKED: REMARK   18  A    between atoms: C15_22  and  C17_24
DOCKED: REMARK   19  A    between atoms: C18_25  and  O4_26
DOCKED: REMARK   20  A    between atoms: C18_25  and  C19_27
DOCKED: REMARK   21  A    between atoms: C19_27  and  C20_28
DOCKED: REMARK   22  A    between atoms: N4_30  and  C21_31
DOCKED: REMARK   23  A    between atoms: C21_31  and  C22_32
DOCKED: REMARK   24  A    between atoms: C21_31  and  C40_60
DOCKED: REMARK   25  A    between atoms: N5_34  and  C23_35
DOCKED: REMARK   26  A    between atoms: C23_35  and  C24_36
DOCKED: REMARK   27  A    between atoms: C23_35  and  C25_37
DOCKED: REMARK   28  A    between atoms: N6_39  and  C26_40
DOCKED: REMARK   29  A    between atoms: C26_40  and  C27_41
DOCKED: REMARK   30  A    between atoms: C26_40  and  C30_46
DOCKED: REMARK   31  A    between atoms: C27_41  and  C28_42
DOCKED: REMARK   32  A    between atoms: C28_42  and  C29_43
DOCKED: REMARK   33  A    between atoms: C29_43  and  O9_45
DOCKED: REMARK   34  A    between atoms: N7_48  and  C31_49
DOCKED: REMARK   35  A    between atoms: C31_49  and  C32_50
DOCKED: REMARK   36  A    between atoms: C31_49  and  C39_57
DOCKED: REMARK   37  A    between atoms: C32_50  and  C33_51
DOCKED: REMARK   38  A    between atoms: C39_57  and  O12_59
DOCKED: REMARK   39  A    between atoms: C40_60  and  C41_61
DOCKED: REMARK   40  A    between atoms: C40_60  and  O13_62
DOCKED: REMARK                            x       y       z     vdW  Elec       q    Type
DOCKED: REMARK                         _______ _______ _______ _____ _____    ______ ____
DOCKED: USER                              x       y       z     vdW  Elec       q    Type
DOCKED: USER                           _______ _______ _______ _____ _____    ______ ____
DOCKED: ROOT
DOCKED: ATOM      1  C21 UNL     1       4.137  -8.420  -0.895 +0.00 +0.00    +0.187 C  
DOCKED: ENDROOT
DOCKED: BRANCH   1   2
DOCKED: ATOM      2  C22 UNL     1       3.639  -7.205  -1.700 +0.00 +0.00    +0.236 C  
DOCKED: ATOM      3  O6  UNL     1       3.471  -7.246  -2.924 +0.00 -0.00    -0.274 OA 
DOCKED: ATOM      4  N5  UNL     1       3.563  -6.011  -1.011 +0.00 -0.00    -0.303 N  
DOCKED: ATOM      5  H39 UNL     1       3.749  -6.024  -0.006 +0.00 +0.00    +0.149 HD 
DOCKED: BRANCH   4   6
DOCKED: ATOM      6  C23 UNL     1       3.151  -4.779  -1.679 +0.00 +0.00    +0.156 C  
DOCKED: ATOM      7  C24 UNL     1       1.633  -4.654  -1.699 +0.00 +0.00    +0.038 C  
DOCKED: BRANCH   6   8
DOCKED: ATOM      8  C25 UNL     1       3.754  -3.562  -0.960 +0.00 +0.00    +0.234 C  
DOCKED: ATOM      9  O7  UNL     1       3.610  -2.409  -1.361 +0.00 -0.00    -0.274 OA 
DOCKED: ATOM     10  N6  UNL     1       4.364  -3.836   0.241 +0.00 -0.00    -0.302 N  
DOCKED: ATOM     11  H44 UNL     1       4.470  -4.816   0.490 +0.00 +0.00    +0.150 HD 
DOCKED: BRANCH  10  12
DOCKED: ATOM     12  C26 UNL     1       4.932  -2.786   1.070 +0.00 +0.00    +0.159 C  
DOCKED: BRANCH  12  13
DOCKED: ATOM     13  C30 UNL     1       6.456  -2.634   0.798 +0.00 +0.00    +0.234 C  
DOCKED: ATOM     14  O10 UNL     1       7.029  -1.542   0.758 +0.00 -0.00    -0.274 OA 
DOCKED: ATOM     15  N7  UNL     1       7.104  -3.815   0.559 +0.00 -0.00    -0.301 N  
DOCKED: ATOM     16  H51 UNL     1       6.610  -4.694   0.751 +0.00 +0.00    +0.150 HD 
DOCKED: BRANCH  15  17
DOCKED: ATOM     17  C31 UNL     1       8.515  -3.912   0.165 +0.00 +0.00    +0.186 C  
DOCKED: BRANCH  17  18
DOCKED: ATOM     18  C39 UNL     1       9.349  -3.304   1.294 +0.00 +0.00    +0.326 C  
DOCKED: ATOM     19  O11 UNL     1      10.237  -2.474   1.170 +0.00 -0.00    -0.249 OA 
DOCKED: BRANCH  18  20
DOCKED: ATOM     20  O12 UNL     1       8.981  -3.749   2.510 +0.00 -0.00    -0.479 OA 
DOCKED: ATOM     21  H60 UNL     1       8.447  -4.556   2.355 +0.00 +0.00    +0.295 HD 
DOCKED: ENDBRANCH  18  20
DOCKED: ENDBRANCH  17  18
DOCKED: BRANCH  17  22
DOCKED: ATOM     22  C32 UNL     1       8.768  -3.178  -1.152 +0.00 +0.00    +0.069 C  
DOCKED: BRANCH  22  23
DOCKED: ATOM     23  C33 UNL     1       7.667  -3.372  -2.164 +0.00 -0.00    -0.045 A  
DOCKED: ATOM     24  C34 UNL     1       7.242  -4.665  -2.510 +0.00 +0.00    +0.004 A  
DOCKED: ATOM     25  C35 UNL     1       6.219  -4.848  -3.446 +0.00 +0.00    +0.000 A  
DOCKED: ATOM     26  C36 UNL     1       5.607  -3.744  -4.039 +0.00 +0.00    +0.000 A  
DOCKED: ATOM     27  C37 UNL     1       6.019  -2.459  -3.700 +0.00 +0.00    +0.000 A  
DOCKED: ATOM     28  C38 UNL     1       7.044  -2.269  -2.768 +0.00 +0.00    +0.004 A  
DOCKED: ENDBRANCH  22  23
DOCKED: ENDBRANCH  17  22
DOCKED: ENDBRANCH  15  17
DOCKED: ENDBRANCH  12  13
DOCKED: BRANCH  12  29
DOCKED: ATOM     29  C27 UNL     1       4.700  -3.031   2.567 +0.00 +0.00    +0.043 C  
DOCKED: BRANCH  29  30
DOCKED: ATOM     30  C28 UNL     1       5.967  -3.454   3.303 +0.00 +0.00    +0.123 C  
DOCKED: BRANCH  30  31
DOCKED: ATOM     31  C29 UNL     1       6.210  -4.926   3.134 +0.00 +0.00    +0.305 C  
DOCKED: ATOM     32  O8  UNL     1       7.044  -5.604   3.715 +0.00 -0.00    -0.251 OA 
DOCKED: BRANCH  31  33
DOCKED: ATOM     33  O9  UNL     1       5.329  -5.492   2.286 +0.00 -0.00    -0.481 OA 
DOCKED: ATOM     34  H50 UNL     1       5.879  -6.050   1.695 +0.00 +0.00    +0.295 HD 
DOCKED: ENDBRANCH  31  33
DOCKED: ENDBRANCH  30  31
DOCKED: ENDBRANCH  29  30
DOCKED: ENDBRANCH  12  29
DOCKED: ENDBRANCH  10  12
DOCKED: ENDBRANCH   6   8
DOCKED: ENDBRANCH   4   6
DOCKED: ENDBRANCH   1   2
DOCKED: BRANCH   1  37
DOCKED: ATOM     35  C20 UNL     1       6.333  -7.419  -0.406 +0.00 +0.00    +0.216 C  
DOCKED: ATOM     36  O5  UNL     1       5.823  -6.414   0.085 +0.00 -0.00    -0.276 OA 
DOCKED: ATOM     37  N4  UNL     1       5.600  -8.425  -0.974 +0.00 -0.00    -0.302 N  
DOCKED: ATOM     38  H37 UNL     1       6.068  -9.190  -1.443 +0.00 +0.00    +0.150 HD 
DOCKED: BRANCH  35  39
DOCKED: ATOM     39  C19 UNL     1       7.825  -7.652  -0.367 +0.00 +0.00    +0.129 C  
DOCKED: BRANCH  39  40
DOCKED: ATOM     40  C18 UNL     1       8.401  -7.453   1.045 +0.00 +0.00    +0.143 C  
DOCKED: BRANCH  40  41
DOCKED: ATOM     41  O4  UNL     1       8.126  -6.134   1.513 +0.00 -0.00    -0.389 OA 
DOCKED: ATOM     42  H34 UNL     1       7.166  -6.048   1.658 +0.00 +0.00    +0.210 HD 
DOCKED: ENDBRANCH  40  41
DOCKED: BRANCH  40  43
DOCKED: ATOM     43  C13 UNL     1       7.940  -8.556   2.057 +0.00 +0.00    +0.102 C  
DOCKED: BRANCH  43  46
DOCKED: ATOM     44  C12 UNL     1       6.278  -8.719   3.935 +0.00 +0.00    +0.234 C  
DOCKED: ATOM     45  O3  UNL     1       6.926  -9.613   4.482 +0.00 -0.00    -0.274 OA 
DOCKED: ATOM     46  N3  UNL     1       6.695  -8.142   2.753 +0.00 -0.00    -0.308 N  
DOCKED: ATOM     47  H22 UNL     1       6.201  -7.314   2.422 +0.00 +0.00    +0.149 HD 
DOCKED: BRANCH  44  48
DOCKED: ATOM     48  C4  UNL     1       4.849  -8.395   4.406 +0.00 +0.00    +0.160 C  
DOCKED: BRANCH  48  49
DOCKED: ATOM     49  N1  UNL     1       4.328  -7.066   4.060 +0.00 -0.00    -0.302 N  
DOCKED: ATOM     50  C5  UNL     1       3.845  -6.244   5.056 +0.00 +0.00    +0.234 C  
DOCKED: ATOM     51  O1  UNL     1       4.034  -6.512   6.246 +0.00 -0.00    -0.274 OA 
DOCKED: ATOM     52  H9  UNL     1       4.238  -6.796   3.088 +0.00 +0.00    +0.150 HD 
DOCKED: BRANCH  50  53
DOCKED: ATOM     53  C6  UNL     1       3.037  -4.985   4.645 +0.00 +0.00    +0.161 C  
DOCKED: BRANCH  53  54
DOCKED: ATOM     54  N2  UNL     1       1.827  -5.256   3.865 +0.00 -0.00    -0.304 N  
DOCKED: ATOM     55  C7  UNL     1       1.901  -5.350   2.491 +0.00 +0.00    +0.211 C  
DOCKED: ATOM     56  C8  UNL     1       0.581  -5.196   1.782 +0.00 +0.00    +0.109 C  
DOCKED: ATOM     57  O2  UNL     1       2.950  -5.509   1.868 +0.00 -0.00    -0.276 OA 
DOCKED: ATOM     58  H11 UNL     1       0.943  -5.012   4.291 +0.00 +0.00    +0.149 HD 
DOCKED: ENDBRANCH  53  54
DOCKED: BRANCH  53  59
DOCKED: ATOM     59  C9  UNL     1       2.720  -4.161   5.936 +0.00 +0.00    +0.012 C  
DOCKED: ATOM     60  C10 UNL     1       3.945  -3.419   6.477 +0.00 +0.00    +0.009 C  
DOCKED: ATOM     61  C11 UNL     1       1.560  -3.175   5.747 +0.00 +0.00    +0.009 C  
DOCKED: ENDBRANCH  53  59
DOCKED: ENDBRANCH  50  53
DOCKED: ENDBRANCH  48  49
DOCKED: BRANCH  48  62
DOCKED: ATOM     62  C3  UNL     1       3.903  -9.492   3.883 +0.00 +0.00    +0.042 C  
DOCKED: BRANCH  62  63
DOCKED: ATOM     63  C2  UNL     1       2.456  -9.013   3.855 +0.00 +0.00    +0.071 C  
DOCKED: BRANCH  63  65
DOCKED: ATOM     64  C1  UNL     1       0.433  -7.796   5.261 +0.00 +0.00    +0.084 C  
DOCKED: ATOM     65  S1  UNL     1       1.767  -8.994   5.539 +0.00 -0.00    -0.164 S  
DOCKED: ENDBRANCH  63  65
DOCKED: ENDBRANCH  62  63
DOCKED: ENDBRANCH  48  62
DOCKED: ENDBRANCH  44  48
DOCKED: ENDBRANCH  43  46
DOCKED: BRANCH  43  66
DOCKED: ATOM     66  C14 UNL     1       7.782  -9.969   1.440 +0.00 +0.00    +0.028 C  
DOCKED: BRANCH  66  67
DOCKED: ATOM     67  C15 UNL     1       6.359 -10.573   1.411 +0.00 -0.00    -0.015 C  
DOCKED: ATOM     68  C16 UNL     1       6.243 -11.655   2.489 +0.00 +0.00    +0.007 C  
DOCKED: ATOM     69  C17 UNL     1       5.967 -11.161   0.058 +0.00 +0.00    +0.007 C  
DOCKED: ENDBRANCH  66  67
DOCKED: ENDBRANCH  43  66
DOCKED: ENDBRANCH  40  43
DOCKED: ENDBRANCH  39  40
DOCKED: ENDBRANCH  35  39
DOCKED: ENDBRANCH   1  37
DOCKED: BRANCH   1  70
DOCKED: ATOM     70  C40 UNL     1       3.601  -8.491   0.558 +0.00 +0.00    +0.141 C  
DOCKED: ATOM     71  C41 UNL     1       2.113  -8.192   0.637 +0.00 +0.00    +0.040 C  
DOCKED: BRANCH  70  72
DOCKED: ATOM     72  O13 UNL     1       4.308  -7.579   1.415 +0.00 -0.00    -0.390 OA 
DOCKED: ATOM     73  H65 UNL     1       3.985  -6.684   1.192 +0.00 +0.00    +0.210 HD 
DOCKED: ENDBRANCH  70  72
DOCKED: ENDBRANCH   1  70
DOCKED: TORSDOF 32
DOCKED: TER
DOCKED: ENDMDL
________________________________________________________________________________


    FINAL DOCKED STATE:
    ________________________


Run:   2 / 20
Time taken for this run:   5.815s

DOCKED: MODEL        2
DOCKED: USER    Run = 2
DOCKED: USER
DOCKED: USER    Estimated Free Energy of Binding    =  +9.55 kcal/mol  [=(1)+(2)+(3)-(4)]
DOCKED: USER
DOCKED: USER    (1) Final Intermolecular Energy     =  +0.00 kcal/mol
DOCKED: USER        vdW + Hbond + desolv Energy     =  +0.00 kcal/mol
DOCKED: USER        Electrostatic Energy            =  +0.00 kcal/mol
DOCKED: USER        Moving Ligand-Fixed Receptor    =  +0.00 kcal/mol
DOCKED: USER        Moving Ligand-Moving Receptor   =  +0.00 kcal/mol
DOCKED: USER    (2) Final Total Internal Energy     = -24.82 kcal/mol
DOCKED: USER    (3) Torsional Free Energy           =  +9.55 kcal/mol
DOCKED: USER    (4) Unbound System's Energy         = -24.82 kcal/mol
DOCKED: USER
DOCKED: USER
DOCKED: REMARK  Name = ligands/ligand_27.pdb
DOCKED: REMARK  40 active torsions:
DOCKED: REMARK  status: ('A' for Active; 'I' for Inactive)
DOCKED: REMARK    1  A    between atoms: C1_1  and  S1_2
DOCKED: REMARK    2  A    between atoms: S1_2  and  C2_3
DOCKED: REMARK    3  A    between atoms: C2_3  and  C3_4
DOCKED: REMARK    4  A    between atoms: C3_4  and  C4_5
DOCKED: REMARK    5  A    between atoms: C4_5  and  N1_6
DOCKED: REMARK    6  A    between atoms: C4_5  and  C12_17
DOCKED: REMARK    7  A    between atoms: C5_7  and  C6_9
DOCKED: REMARK    8  A    between atoms: C6_9  and  N2_10
DOCKED: REMARK    9  A    between atoms: C6_9  and  C9_14
DOCKED: REMARK   10  A    between atoms: C7_11  and  C8_12
DOCKED: REMARK   11  A    between atoms: C9_14  and  C10_15
DOCKED: REMARK   12  A    between atoms: C9_14  and  C11_16
DOCKED: REMARK   13  A    between atoms: N3_19  and  C13_20
DOCKED: REMARK   14  A    between atoms: C13_20  and  C14_21
DOCKED: REMARK   15  A    between atoms: C13_20  and  C18_25
DOCKED: REMARK   16  A    between atoms: C14_21  and  C15_22
DOCKED: REMARK   17  A    between atoms: C15_22  and  C16_23
DOCKED: REMARK   18  A    between atoms: C15_22  and  C17_24
DOCKED: REMARK   19  A    between atoms: C18_25  and  O4_26
DOCKED: REMARK   20  A    between atoms: C18_25  and  C19_27
DOCKED: REMARK   21  A    between atoms: C19_27  and  C20_28
DOCKED: REMARK   22  A    between atoms: N4_30  and  C21_31
DOCKED: REMARK   23  A    between atoms: C21_31  and  C22_32
DOCKED: REMARK   24  A    between atoms: C21_31  and  C40_60
DOCKED: REMARK   25  A    between atoms: N5_34  and  C23_35
DOCKED: REMARK   26  A    between atoms: C23_35  and  C24_36
DOCKED: REMARK   27  A    between atoms: C23_35  and  C25_37
DOCKED: REMARK   28  A    between atoms: N6_39  and  C26_40
DOCKED: REMARK   29  A    between atoms: C26_40  and  C27_41
DOCKED: REMARK   30  A    between atoms: C26_40  and  C30_46
DOCKED: REMARK   31  A    between atoms: C27_41  and  C28_42
DOCKED: REMARK   32  A    between atoms: C28_42  and  C29_43
DOCKED: REMARK   33  A    between atoms: C29_43  and  O9_45
DOCKED: REMARK   34  A    between atoms: N7_48  and  C31_49
DOCKED: REMARK   35  A    between atoms: C31_49  and  C32_50
DOCKED: REMARK   36  A    between atoms: C31_49  and  C39_57
DOCKED: REMARK   37  A    between atoms: C32_50  and  C33_51
DOCKED: REMARK   38  A    between atoms: C39_57  and  O12_59
DOCKED: REMARK   39  A    between atoms: C40_60  and  C41_61
DOCKED: REMARK   40  A    between atoms: C40_60  and  O13_62
DOCKED: REMARK                            x       y       z     vdW  Elec       q    Type
DOCKED: REMARK                         _______ _______ _______ _____ _____    ______ ____
DOCKED: USER                              x       y       z     vdW  Elec       q    Type
DOCKED: USER                           _______ _______ _______ _____ _____    ______ ____
DOCKED: ROOT
DOCKED: ATOM      1  C21 UNL     1       8.757  -7.117   3.203 +0.00 +0.00    +0.187 C  
DOCKED: ENDROOT
DOCKED: BRANCH   1   2
DOCKED: ATOM      2  C22 UNL     1       8.357  -8.255   2.246 +0.00 +0.00    +0.236 C  
DOCKED: ATOM      3  O6  UNL     1       7.178  -8.504   1.970 +0.00 -0.00    -0.274 OA 
DOCKED: ATOM      4  N5  UNL     1       9.374  -9.101   1.850 +0.00 -0.00    -0.303 N  
DOCKED: ATOM      5  H39 UNL     1      10.328  -8.871   2.137 +0.00 +0.00    +0.149 HD 
DOCKED: BRANCH   4   6
DOCKED: ATOM      6  C23 UNL     1       9.110 -10.245   0.982 +0.00 +0.00    +0.156 C  
DOCKED: ATOM      7  C24 UNL     1      10.401 -10.764   0.361 +0.00 +0.00    +0.038 C  
DOCKED: BRANCH   6   8
DOCKED: ATOM      8  C25 UNL     1       8.439 -11.372   1.783 +0.00 +0.00    +0.234 C  
DOCKED: ATOM      9  O7  UNL     1       8.346 -12.524   1.367 +0.00 -0.00    -0.274 OA 
DOCKED: ATOM     10  N6  UNL     1       8.059 -11.035   3.060 +0.00 -0.00    -0.302 N  
DOCKED: ATOM     11  H44 UNL     1       8.140 -10.055   3.321 +0.00 +0.00    +0.150 HD 
DOCKED: BRANCH  10  12
DOCKED: ATOM     12  C26 UNL     1       7.463 -12.004   3.964 +0.00 +0.00    +0.159 C  
DOCKED: BRANCH  12  13
DOCKED: ATOM     13  C30 UNL     1       5.932 -12.122   3.715 +0.00 +0.00    +0.234 C  
DOCKED: ATOM     14  O10 UNL     1       5.342 -13.203   3.642 +0.00 -0.00    -0.274 OA 
DOCKED: ATOM     15  N7  UNL     1       5.299 -10.923   3.534 +0.00 -0.00    -0.301 N  
DOCKED: ATOM     16  H51 UNL     1       5.810 -10.060   3.752 +0.00 +0.00    +0.150 HD 
DOCKED: BRANCH  15  17
DOCKED: ATOM     17  C31 UNL     1       3.883 -10.789   3.171 +0.00 +0.00    +0.186 C  
DOCKED: BRANCH  17  18
DOCKED: ATOM     18  C39 UNL     1       3.425  -9.399   3.614 +0.00 +0.00    +0.326 C  
DOCKED: ATOM     19  O11 UNL     1       2.476  -8.774   3.165 +0.00 -0.00    -0.249 OA 
DOCKED: BRANCH  18  20
DOCKED: ATOM     20  O12 UNL     1       4.167  -8.904   4.622 +0.00 -0.00    -0.479 OA 
DOCKED: ATOM     21  H60 UNL     1       4.943  -8.476   4.205 +0.00 +0.00    +0.295 HD 
DOCKED: ENDBRANCH  18  20
DOCKED: ENDBRANCH  17  18
DOCKED: BRANCH  17  22
DOCKED: ATOM     22  C32 UNL     1       3.041 -11.877   3.839 +0.00 +0.00    +0.069 C  
DOCKED: BRANCH  22  23
DOCKED: ATOM     23  C33 UNL     1       2.660 -11.548   5.260 +0.00 -0.00    -0.045 A  
DOCKED: ATOM     24  C34 UNL     1       3.641 -11.502   6.264 +0.00 +0.00    +0.004 A  
DOCKED: ATOM     25  C35 UNL     1       3.291 -11.194   7.583 +0.00 +0.00    +0.000 A  
DOCKED: ATOM     26  C36 UNL     1       1.963 -10.923   7.909 +0.00 +0.00    +0.000 A  
DOCKED: ATOM     27  C37 UNL     1       0.984 -10.962   6.922 +0.00 +0.00    +0.000 A  
DOCKED: ATOM     28  C38 UNL     1       1.327 -11.273   5.601 +0.00 +0.00    +0.004 A  
DOCKED: ENDBRANCH  22  23
DOCKED: ENDBRANCH  17  22
DOCKED: ENDBRANCH  15  17
DOCKED: ENDBRANCH  12  13
DOCKED: BRANCH  12  29
DOCKED: ATOM     29  C27 UNL     1       7.718 -11.663   5.439 +0.00 +0.00    +0.043 C  
DOCKED: BRANCH  29  30
DOCKED: ATOM     30  C28 UNL     1       6.713 -10.661   5.998 +0.00 +0.00    +0.123 C  
DOCKED: BRANCH  30  31
DOCKED: ATOM     31  C29 UNL     1       7.132  -9.256   5.674 +0.00 +0.00    +0.305 C  
DOCKED: ATOM     32  O8  UNL     1       7.842  -8.527   6.350 +0.00 -0.00    -0.251 OA 
DOCKED: BRANCH  31  33
DOCKED: ATOM     33  O9  UNL     1       6.690  -8.861   4.464 +0.00 -0.00    -0.481 OA 
DOCKED: ATOM     34  H50 UNL     1       6.151  -8.061   4.646 +0.00 +0.00    +0.295 HD 
DOCKED: ENDBRANCH  31  33
DOCKED: ENDBRANCH  30  31
DOCKED: ENDBRANCH  29  30
DOCKED: ENDBRANCH  12  29
DOCKED: ENDBRANCH  10  12
DOCKED: ENDBRANCH   6   8
DOCKED: ENDBRANCH   4   6
DOCKED: ENDBRANCH   1   2
DOCKED: BRANCH   1  37
DOCKED: ATOM     35  C20 UNL     1       7.231  -5.183   3.161 +0.00 +0.00    +0.216 C  
DOCKED: ATOM     36  O5  UNL     1       8.018  -4.513   2.496 +0.00 -0.00    -0.276 OA 
DOCKED: ATOM     37  N4  UNL     1       7.524  -6.441   3.616 +0.00 -0.00    -0.302 N  
DOCKED: ATOM     38  H37 UNL     1       6.879  -6.919   4.233 +0.00 +0.00    +0.150 HD 
DOCKED: BRANCH  35  39
DOCKED: ATOM     39  C19 UNL     1       5.840  -4.690   3.482 +0.00 +0.00    +0.129 C  
DOCKED: BRANCH  39  40
DOCKED: ATOM     40  C18 UNL     1       4.755  -5.591   2.868 +0.00 +0.00    +0.143 C  
DOCKED: BRANCH  40  41
DOCKED: ATOM     41  O4  UNL     1       5.112  -6.964   3.009 +0.00 -0.00    -0.389 OA 
DOCKED: ATOM     42  H34 UNL     1       5.261  -7.153   3.953 +0.00 +0.00    +0.210 HD 
DOCKED: ENDBRANCH  40  41
DOCKED: BRANCH  40  43
DOCKED: ATOM     43  C13 UNL     1       3.320  -5.284   3.418 +0.00 +0.00    +0.102 C  
DOCKED: BRANCH  43  46
DOCKED: ATOM     44  C12 UNL     1       1.470  -6.572   4.529 +0.00 +0.00    +0.234 C  
DOCKED: ATOM     45  O3  UNL     1       0.628  -5.746   4.170 +0.00 -0.00    -0.274 OA 
DOCKED: ATOM     46  N3  UNL     1       2.804  -6.432   4.207 +0.00 -0.00    -0.308 N  
DOCKED: ATOM     47  H22 UNL     1       3.431  -7.212   4.403 +0.00 +0.00    +0.149 HD 
DOCKED: BRANCH  44  48
DOCKED: ATOM     48  C4  UNL     1       1.110  -7.648   5.569 +0.00 +0.00    +0.160 C  
DOCKED: BRANCH  48  49
DOCKED: ATOM     49  N1  UNL     1       2.214  -8.167   6.386 +0.00 -0.00    -0.302 N  
DOCKED: ATOM     50  C5  UNL     1       2.786  -7.361   7.348 +0.00 +0.00    +0.234 C  
DOCKED: ATOM     51  O1  UNL     1       2.257  -6.296   7.680 +0.00 -0.00    -0.274 OA 
DOCKED: ATOM     52  H9  UNL     1       2.613  -9.074   6.180 +0.00 +0.00    +0.150 HD 
DOCKED: BRANCH  50  53
DOCKED: ATOM     53  C6  UNL     1       4.126  -7.814   7.987 +0.00 +0.00    +0.161 C  
DOCKED: BRANCH  53  54
DOCKED: ATOM     54  N2  UNL     1       5.217  -6.842   7.886 +0.00 -0.00    -0.304 N  
DOCKED: ATOM     55  C7  UNL     1       5.765  -6.548   6.655 +0.00 +0.00    +0.211 C  
DOCKED: ATOM     56  C8  UNL     1       7.121  -5.896   6.713 +0.00 +0.00    +0.109 C  
DOCKED: ATOM     57  O2  UNL     1       5.228  -6.819   5.581 +0.00 -0.00    -0.276 OA 
DOCKED: ATOM     58  H11 UNL     1       5.774  -6.690   8.717 +0.00 +0.00    +0.149 HD 
DOCKED: ENDBRANCH  53  54
DOCKED: BRANCH  53  59
DOCKED: ATOM     59  C9  UNL     1       3.850  -8.221   9.472 +0.00 +0.00    +0.012 C  
DOCKED: ATOM     60  C10 UNL     1       4.942  -9.129  10.046 +0.00 +0.00    +0.009 C  
DOCKED: ATOM     61  C11 UNL     1       3.641  -7.014  10.395 +0.00 +0.00    +0.009 C  
DOCKED: ENDBRANCH  53  59
DOCKED: ENDBRANCH  50  53
DOCKED: ENDBRANCH  48  49
DOCKED: BRANCH  48  62
DOCKED: ATOM     62  C3  UNL     1      -0.009  -7.098   6.472 +0.00 +0.00    +0.042 C  
DOCKED: BRANCH  62  63
DOCKED: ATOM     63  C2  UNL     1      -0.754  -8.221   7.183 +0.00 +0.00    +0.071 C  
DOCKED: BRANCH  63  65
DOCKED: ATOM     64  C1  UNL     1      -0.309  -6.579   9.341 +0.00 +0.00    +0.084 C  
DOCKED: ATOM     65  S1  UNL     1      -0.208  -8.340   8.914 +0.00 -0.00    -0.164 S  
DOCKED: ENDBRANCH  63  65
DOCKED: ENDBRANCH  62  63
DOCKED: ENDBRANCH  48  62
DOCKED: ENDBRANCH  44  48
DOCKED: ENDBRANCH  43  46
DOCKED: BRANCH  43  66
DOCKED: ATOM     66  C14 UNL     1       3.209  -3.966   4.225 +0.00 +0.00    +0.028 C  
DOCKED: BRANCH  66  67
DOCKED: ATOM     67  C15 UNL     1       3.261  -4.075   5.766 +0.00 -0.00    -0.015 C  
DOCKED: ATOM     68  C16 UNL     1       1.951  -3.547   6.359 +0.00 +0.00    +0.007 C  
DOCKED: ATOM     69  C17 UNL     1       4.437  -3.335   6.397 +0.00 +0.00    +0.007 C  
DOCKED: ENDBRANCH  66  67
DOCKED: ENDBRANCH  43  66
DOCKED: ENDBRANCH  40  43
DOCKED: ENDBRANCH  39  40
DOCKED: ENDBRANCH  35  39
DOCKED: ENDBRANCH   1  37
DOCKED: BRANCH   1  70
DOCKED: ATOM     70  C40 UNL     1       9.639  -7.564   4.397 +0.00 +0.00    +0.141 C  
DOCKED: ATOM     71  C41 UNL     1      11.020  -6.929   4.360 +0.00 +0.00    +0.040 C  
DOCKED: BRANCH  70  72
DOCKED: ATOM     72  O13 UNL     1       9.781  -8.993   4.429 +0.00 -0.00    -0.390 OA 
DOCKED: ATOM     73  H65 UNL     1       8.886  -9.357   4.573 +0.00 +0.00    +0.210 HD 
DOCKED: ENDBRANCH  70  72
DOCKED: ENDBRANCH   1  70
DOCKED: TORSDOF 32
DOCKED: TER
DOCKED: ENDMDL
________________________________________________________________________________


    FINAL DOCKED STATE:
    ________________________


Run:   3 / 20
Time taken for this run:   5.815s

DOCKED: MODEL        3
DOCKED: USER    Run = 3
DOCKED: USER
DOCKED: USER    Estimated Free Energy of Binding    =  +9.55 kcal/mol  [=(1)+(2)+(3)-(4)]
DOCKED: USER
DOCKED: USER    (1) Final Intermolecular Energy     =  +0.00 kcal/mol
DOCKED: USER        vdW + Hbond + desolv Energy     =  +0.00 kcal/mol
DOCKED: USER        Electrostatic Energy            =  +0.00 kcal/mol
DOCKED: USER        Moving Ligand-Fixed Receptor    =  +0.00 kcal/mol
DOCKED: USER        Moving Ligand-Moving Receptor   =  +0.00 kcal/mol
DOCKED: USER    (2) Final Total Internal Energy     = -25.11 kcal/mol
DOCKED: USER    (3) Torsional Free Energy           =  +9.55 kcal/mol
DOCKED: USER    (4) Unbound System's Energy         = -25.11 kcal/mol
DOCKED: USER
DOCKED: USER
DOCKED: REMARK  Name = ligands/ligand_27.pdb
DOCKED: REMARK  40 active torsions:
DOCKED: REMARK  status: ('A' for Active; 'I' for Inactive)
DOCKED: REMARK    1  A    between atoms: C1_1  and  S1_2
DOCKED: REMARK    2  A    between atoms: S1_2  and  C2_3
DOCKED: REMARK    3  A    between atoms: C2_3  and  C3_4
DOCKED: REMARK    4  A    between atoms: C3_4  and  C4_5
DOCKED: REMARK    5  A    between atoms: C4_5  and  N1_6
DOCKED: REMARK    6  A    between atoms: C4_5  and  C12_17
DOCKED: REMARK    7  A    between atoms: C5_7  and  C6_9
DOCKED: REMARK    8  A    between atoms: C6_9  and  N2_10
DOCKED: REMARK    9  A    between atoms: C6_9  and  C9_14
DOCKED: REMARK   10  A    between atoms: C7_11  and  C8_12
DOCKED: REMARK   11  A    between atoms: C9_14  and  C10_15
DOCKED: REMARK   12  A    between atoms: C9_14  and  C11_16
DOCKED: REMARK   13  A    between atoms: N3_19  and  C13_20
DOCKED: REMARK   14  A    between atoms: C13_20  and  C14_21
DOCKED: REMARK   15  A    between atoms: C13_20  and  C18_25
DOCKED: REMARK   16  A    between atoms: C14_21  and  C15_22
DOCKED: REMARK   17  A    between atoms: C15_22  and  C16_23
DOCKED: REMARK   18  A    between atoms: C15_22  and  C17_24
DOCKED: REMARK   19  A    between atoms: C18_25  and  O4_26
DOCKED: REMARK   20  A    between atoms: C18_25  and  C19_27
DOCKED: REMARK   21  A    between atoms: C19_27  and  C20_28
DOCKED: REMARK   22  A    between atoms: N4_30  and  C21_31
DOCKED: REMARK   23  A    between atoms: C21_31  and  C22_32
DOCKED: REMARK   24  A    between atoms: C21_31  and  C40_60
DOCKED: REMARK   25  A    between atoms: N5_34  and  C23_35
DOCKED: REMARK   26  A    between atoms: C23_35  and  C24_36
DOCKED: REMARK   27  A    between atoms: C23_35  and  C25_37
DOCKED: REMARK   28  A    between atoms: N6_39  and  C26_40
DOCKED: REMARK   29  A    between atoms: C26_40  and  C27_41
DOCKED: REMARK   30  A    between atoms: C26_40  and  C30_46
DOCKED: REMARK   31  A    between atoms: C27_41  and  C28_42
DOCKED: REMARK   32  A    between atoms: C28_42  and  C29_43
DOCKED: REMARK   33  A    between atoms: C29_43  and  O9_45
DOCKED: REMARK   34  A    between atoms: N7_48  and  C31_49
DOCKED: REMARK   35  A    between atoms: C31_49  and  C32_50
DOCKED: REMARK   36  A    between atoms: C31_49  and  C39_57
DOCKED: REMARK   37  A    between atoms: C32_50  and  C33_51
DOCKED: REMARK   38  A    between atoms: C39_57  and  O12_59
DOCKED: REMARK   39  A    between atoms: C40_60  and  C41_61
DOCKED: REMARK   40  A    between atoms: C40_60  and  O13_62
DOCKED: REMARK                            x       y       z     vdW  Elec       q    Type
DOCKED: REMARK                         _______ _______ _______ _____ _____    ______ ____
DOCKED: USER                              x       y       z     vdW  Elec       q    Type
DOCKED: USER                           _______ _______ _______ _____ _____    ______ ____
DOCKED: ROOT
DOCKED: ATOM      1  C21 UNL     1       4.548  -8.495   3.142 +0.00 +0.00    +0.187 C  
DOCKED: ENDROOT
DOCKED: BRANCH   1   2
DOCKED: ATOM      2  C22 UNL     1       5.738  -7.584   3.496 +0.00 +0.00    +0.236 C  
DOCKED: ATOM      3  O6  UNL     1       6.907  -7.986   3.481 +0.00 -0.00    -0.274 OA 
DOCKED: ATOM      4  N5  UNL     1       5.420  -6.341   4.007 +0.00 -0.00    -0.303 N  
DOCKED: ATOM      5  H39 UNL     1       4.434  -6.071   4.033 +0.00 +0.00    +0.149 HD 
DOCKED: BRANCH   4   6
DOCKED: ATOM      6  C23 UNL     1       6.462  -5.407   4.426 +0.00 +0.00    +0.156 C  
DOCKED: ATOM      7  C24 UNL     1       7.226  -5.949   5.627 +0.00 +0.00    +0.038 C  
DOCKED: BRANCH   6   8
DOCKED: ATOM      8  C25 UNL     1       7.440  -5.155   3.268 +0.00 +0.00    +0.234 C  
DOCKED: ATOM      9  O7  UNL     1       7.287  -4.254   2.447 +0.00 -0.00    -0.274 OA 
DOCKED: ATOM     10  N6  UNL     1       8.576  -5.929   3.284 +0.00 -0.00    -0.302 N  
DOCKED: ATOM     11  H44 UNL     1       8.616  -6.673   3.976 +0.00 +0.00    +0.150 HD 
DOCKED: BRANCH  10  12
DOCKED: ATOM     12  C26 UNL     1       9.626  -5.772   2.291 +0.00 +0.00    +0.159 C  
DOCKED: BRANCH  12  13
DOCKED: ATOM     13  C30 UNL     1       9.312  -6.612   1.020 +0.00 +0.00    +0.234 C  
DOCKED: ATOM     14  O10 UNL     1       8.953  -6.111  -0.048 +0.00 -0.00    -0.274 OA 
DOCKED: ATOM     15  N7  UNL     1       9.423  -7.964   1.199 +0.00 -0.00    -0.301 N  
DOCKED: ATOM     16  H51 UNL     1       9.865  -8.310   2.058 +0.00 +0.00    +0.150 HD 
DOCKED: BRANCH  15  17
DOCKED: ATOM     17  C31 UNL     1       9.065  -8.959   0.181 +0.00 +0.00    +0.186 C  
DOCKED: BRANCH  17  18
DOCKED: ATOM     18  C39 UNL     1       8.627 -10.227   0.913 +0.00 +0.00    +0.326 C  
DOCKED: ATOM     19  O11 UNL     1       8.328 -11.293   0.396 +0.00 -0.00    -0.249 OA 
DOCKED: BRANCH  18  20
DOCKED: ATOM     20  O12 UNL     1       8.634 -10.084   2.252 +0.00 -0.00    -0.479 OA 
DOCKED: ATOM     21  H60 UNL     1       7.790  -9.644   2.483 +0.00 +0.00    +0.295 HD 
DOCKED: ENDBRANCH  18  20
DOCKED: ENDBRANCH  17  18
DOCKED: BRANCH  17  22
DOCKED: ATOM     22  C32 UNL     1      10.249  -9.247  -0.743 +0.00 +0.00    +0.069 C  
DOCKED: BRANCH  22  23
DOCKED: ATOM     23  C33 UNL     1      11.582  -9.191  -0.040 +0.00 -0.00    -0.045 A  
DOCKED: ATOM     24  C34 UNL     1      12.063 -10.311   0.657 +0.00 +0.00    +0.004 A  
DOCKED: ATOM     25  C35 UNL     1      13.300 -10.264   1.308 +0.00 +0.00    +0.000 A  
DOCKED: ATOM     26  C36 UNL     1      14.070  -9.103   1.263 +0.00 +0.00    +0.000 A  
DOCKED: ATOM     27  C37 UNL     1      13.604  -7.988   0.572 +0.00 +0.00    +0.000 A  
DOCKED: ATOM     28  C38 UNL     1      12.366  -8.028  -0.077 +0.00 +0.00    +0.004 A  
DOCKED: ENDBRANCH  22  23
DOCKED: ENDBRANCH  17  22
DOCKED: ENDBRANCH  15  17
DOCKED: ENDBRANCH  12  13
DOCKED: BRANCH  12  29
DOCKED: ATOM     29  C27 UNL     1      11.008  -6.159   2.834 +0.00 +0.00    +0.043 C  
DOCKED: BRANCH  29  30
DOCKED: ATOM     30  C28 UNL     1      10.936  -6.925   4.151 +0.00 +0.00    +0.123 C  
DOCKED: BRANCH  30  31
DOCKED: ATOM     31  C29 UNL     1      10.486  -8.338   3.916 +0.00 +0.00    +0.305 C  
DOCKED: ATOM     32  O8  UNL     1      11.174  -9.274   3.536 +0.00 -0.00    -0.251 OA 
DOCKED: BRANCH  31  33
DOCKED: ATOM     33  O9  UNL     1       9.193  -8.521   4.249 +0.00 -0.00    -0.481 OA 
DOCKED: ATOM     34  H50 UNL     1       8.821  -9.052   3.511 +0.00 +0.00    +0.295 HD 
DOCKED: ENDBRANCH  31  33
DOCKED: ENDBRANCH  30  31
DOCKED: ENDBRANCH  29  30
DOCKED: ENDBRANCH  12  29
DOCKED: ENDBRANCH  10  12
DOCKED: ENDBRANCH   6   8
DOCKED: ENDBRANCH   4   6
DOCKED: ENDBRANCH   1   2
DOCKED: BRANCH   1  37
DOCKED: ATOM     35  C20 UNL     1       5.243  -8.637   0.783 +0.00 +0.00    +0.216 C  
DOCKED: ATOM     36  O5  UNL     1       6.394  -8.944   1.087 +0.00 -0.00    -0.276 OA 
DOCKED: ATOM     37  N4  UNL     1       4.284  -8.330   1.710 +0.00 -0.00    -0.302 N  
DOCKED: ATOM     38  H37 UNL     1       3.376  -7.998   1.408 +0.00 +0.00    +0.150 HD 
DOCKED: BRANCH  35  39
DOCKED: ATOM     39  C19 UNL     1       4.776  -8.632  -0.653 +0.00 +0.00    +0.129 C  
DOCKED: BRANCH  39  40
DOCKED: ATOM     40  C18 UNL     1       5.291  -9.857  -1.429 +0.00 +0.00    +0.143 C  
DOCKED: BRANCH  40  41
DOCKED: ATOM     41  O4  UNL     1       6.716  -9.860  -1.464 +0.00 -0.00    -0.389 OA 
DOCKED: ATOM     42  H34 UNL     1       7.049 -10.147  -0.594 +0.00 +0.00    +0.210 HD 
DOCKED: ENDBRANCH  40  41
DOCKED: BRANCH  40  43
DOCKED: ATOM     43  C13 UNL     1       4.700 -11.209  -0.902 +0.00 +0.00    +0.102 C  
DOCKED: BRANCH  43  46
DOCKED: ATOM     44  C12 UNL     1       5.584 -13.065   0.544 +0.00 +0.00    +0.234 C  
DOCKED: ATOM     45  O3  UNL     1       4.997 -13.917  -0.125 +0.00 -0.00    -0.274 OA 
DOCKED: ATOM     46  N3  UNL     1       5.501 -11.722   0.239 +0.00 -0.00    -0.308 N  
DOCKED: ATOM     47  H22 UNL     1       6.118 -11.077   0.732 +0.00 +0.00    +0.149 HD 
DOCKED: BRANCH  44  48
DOCKED: ATOM     48  C4  UNL     1       6.216 -13.438   1.897 +0.00 +0.00    +0.160 C  
DOCKED: BRANCH  48  49
DOCKED: ATOM     49  N1  UNL     1       7.404 -12.673   2.300 +0.00 -0.00    -0.302 N  
DOCKED: ATOM     50  C5  UNL     1       8.562 -13.342   2.634 +0.00 +0.00    +0.234 C  
DOCKED: ATOM     51  O1  UNL     1       8.688 -14.548   2.401 +0.00 -0.00    -0.274 OA 
DOCKED: ATOM     52  H9  UNL     1       7.342 -11.670   2.422 +0.00 +0.00    +0.150 HD 
DOCKED: BRANCH  50  53
DOCKED: ATOM     53  C6  UNL     1       9.696 -12.547   3.334 +0.00 +0.00    +0.161 C  
DOCKED: BRANCH  53  54
DOCKED: ATOM     54  N2  UNL     1       9.474 -12.278   4.757 +0.00 -0.00    -0.304 N  
DOCKED: ATOM     55  C7  UNL     1       8.604 -11.279   5.140 +0.00 +0.00    +0.211 C  
DOCKED: ATOM     56  C8  UNL     1       8.779 -10.809   6.560 +0.00 +0.00    +0.109 C  
DOCKED: ATOM     57  O2  UNL     1       7.770 -10.769   4.393 +0.00 -0.00    -0.276 OA 
DOCKED: ATOM     58  H11 UNL     1      10.204 -12.562   5.396 +0.00 +0.00    +0.149 HD 
DOCKED: ENDBRANCH  53  54
DOCKED: BRANCH  53  59
DOCKED: ATOM     59  C9  UNL     1      11.046 -13.299   3.092 +0.00 +0.00    +0.012 C  
DOCKED: ATOM     60  C10 UNL     1      11.380 -13.447   1.605 +0.00 +0.00    +0.009 C  
DOCKED: ATOM     61  C11 UNL     1      12.230 -12.657   3.827 +0.00 +0.00    +0.009 C  
DOCKED: ENDBRANCH  53  59
DOCKED: ENDBRANCH  50  53
DOCKED: ENDBRANCH  48  49
DOCKED: BRANCH  48  62
DOCKED: ATOM     62  C3  UNL     1       5.130 -13.349   2.984 +0.00 +0.00    +0.042 C  
DOCKED: BRANCH  62  63
DOCKED: ATOM     63  C2  UNL     1       3.737 -13.258   2.373 +0.00 +0.00    +0.071 C  
DOCKED: BRANCH  63  65
DOCKED: ATOM     64  C1  UNL     1       1.741 -11.375   2.531 +0.00 +0.00    +0.084 C  
DOCKED: ATOM     65  S1  UNL     1       2.558 -12.599   3.593 +0.00 -0.00    -0.164 S  
DOCKED: ENDBRANCH  63  65
DOCKED: ENDBRANCH  62  63
DOCKED: ENDBRANCH  48  62
DOCKED: ENDBRANCH  44  48
DOCKED: ENDBRANCH  43  46
DOCKED: BRANCH  43  66
DOCKED: ATOM     66  C14 UNL     1       3.195 -11.155  -0.539 +0.00 +0.00    +0.028 C  
DOCKED: BRANCH  66  67
DOCKED: ATOM     67  C15 UNL     1       2.243 -12.084  -1.327 +0.00 -0.00    -0.015 C  
DOCKED: ATOM     68  C16 UNL     1       1.004 -11.295  -1.760 +0.00 +0.00    +0.007 C  
DOCKED: ATOM     69  C17 UNL     1       1.809 -13.323  -0.549 +0.00 +0.00    +0.007 C  
DOCKED: ENDBRANCH  66  67
DOCKED: ENDBRANCH  43  66
DOCKED: ENDBRANCH  40  43
DOCKED: ENDBRANCH  39  40
DOCKED: ENDBRANCH  35  39
DOCKED: ENDBRANCH   1  37
DOCKED: BRANCH   1  70
DOCKED: ATOM     70  C40 UNL     1       4.724  -9.975   3.566 +0.00 +0.00    +0.141 C  
DOCKED: ATOM     71  C41 UNL     1       4.972 -10.119   5.059 +0.00 +0.00    +0.040 C  
DOCKED: BRANCH  70  72
DOCKED: ATOM     72  O13 UNL     1       5.807 -10.593   2.850 +0.00 -0.00    -0.390 OA 
DOCKED: ATOM     73  H65 UNL     1       6.580 -10.005   2.957 +0.00 +0.00    +0.210 HD 
DOCKED: ENDBRANCH  70  72
DOCKED: ENDBRANCH   1  70
DOCKED: TORSDOF 32
DOCKED: TER
DOCKED: ENDMDL
________________________________________________________________________________


    FINAL DOCKED STATE:
    ________________________


Run:   4 / 20
Time taken for this run:   5.815s

DOCKED: MODEL        4
DOCKED: USER    Run = 4
DOCKED: USER
DOCKED: USER    Estimated Free Energy of Binding    =  +9.55 kcal/mol  [=(1)+(2)+(3)-(4)]
DOCKED: USER
DOCKED: USER    (1) Final Intermolecular Energy     =  +0.00 kcal/mol
DOCKED: USER        vdW + Hbond + desolv Energy     =  +0.00 kcal/mol
DOCKED: USER        Electrostatic Energy            =  +0.00 kcal/mol
DOCKED: USER        Moving Ligand-Fixed Receptor    =  +0.00 kcal/mol
DOCKED: USER        Moving Ligand-Moving Receptor   =  +0.00 kcal/mol
DOCKED: USER    (2) Final Total Internal Energy     = -24.14 kcal/mol
DOCKED: USER    (3) Torsional Free Energy           =  +9.55 kcal/mol
DOCKED: USER    (4) Unbound System's Energy         = -24.14 kcal/mol
DOCKED: USER
DOCKED: USER
DOCKED: REMARK  Name = ligands/ligand_27.pdb
DOCKED: REMARK  40 active torsions:
DOCKED: REMARK  status: ('A' for Active; 'I' for Inactive)
DOCKED: REMARK    1  A    between atoms: C1_1  and  S1_2
DOCKED: REMARK    2  A    between atoms: S1_2  and  C2_3
DOCKED: REMARK    3  A    between atoms: C2_3  and  C3_4
DOCKED: REMARK    4  A    between atoms: C3_4  and  C4_5
DOCKED: REMARK    5  A    between atoms: C4_5  and  N1_6
DOCKED: REMARK    6  A    between atoms: C4_5  and  C12_17
DOCKED: REMARK    7  A    between atoms: C5_7  and  C6_9
DOCKED: REMARK    8  A    between atoms: C6_9  and  N2_10
DOCKED: REMARK    9  A    between atoms: C6_9  and  C9_14
DOCKED: REMARK   10  A    between atoms: C7_11  and  C8_12
DOCKED: REMARK   11  A    between atoms: C9_14  and  C10_15
DOCKED: REMARK   12  A    between atoms: C9_14  and  C11_16
DOCKED: REMARK   13  A    between atoms: N3_19  and  C13_20
DOCKED: REMARK   14  A    between atoms: C13_20  and  C14_21
DOCKED: REMARK   15  A    between atoms: C13_20  and  C18_25
DOCKED: REMARK   16  A    between atoms: C14_21  and  C15_22
DOCKED: REMARK   17  A    between atoms: C15_22  and  C16_23
DOCKED: REMARK   18  A    between atoms: C15_22  and  C17_24
DOCKED: REMARK   19  A    between atoms: C18_25  and  O4_26
DOCKED: REMARK   20  A    between atoms: C18_25  and  C19_27
DOCKED: REMARK   21  A    between atoms: C19_27  and  C20_28
DOCKED: REMARK   22  A    between atoms: N4_30  and  C21_31
DOCKED: REMARK   23  A    between atoms: C21_31  and  C22_32
DOCKED: REMARK   24  A    between atoms: C21_31  and  C40_60
DOCKED: REMARK   25  A    between atoms: N5_34  and  C23_35
DOCKED: REMARK   26  A    between atoms: C23_35  and  C24_36
DOCKED: REMARK   27  A    between atoms: C23_35  and  C25_37
DOCKED: REMARK   28  A    between atoms: N6_39  and  C26_40
DOCKED: REMARK   29  A    between atoms: C26_40  and  C27_41
DOCKED: REMARK   30  A    between atoms: C26_40  and  C30_46
DOCKED: REMARK   31  A    between atoms: C27_41  and  C28_42
DOCKED: REMARK   32  A    between atoms: C28_42  and  C29_43
DOCKED: REMARK   33  A    between atoms: C29_43  and  O9_45
DOCKED: REMARK   34  A    between atoms: N7_48  and  C31_49
DOCKED: REMARK   35  A    between atoms: C31_49  and  C32_50
DOCKED: REMARK   36  A    between atoms: C31_49  and  C39_57
DOCKED: REMARK   37  A    between atoms: C32_50  and  C33_51
DOCKED: REMARK   38  A    between atoms: C39_57  and  O12_59
DOCKED: REMARK   39  A    between atoms: C40_60  and  C41_61
DOCKED: REMARK   40  A    between atoms: C40_60  and  O13_62
DOCKED: REMARK                            x       y       z     vdW  Elec       q    Type
DOCKED: REMARK                         _______ _______ _______ _____ _____    ______ ____
DOCKED: USER                              x       y       z     vdW  Elec       q    Type
DOCKED: USER                           _______ _______ _______ _____ _____    ______ ____
DOCKED: ROOT
DOCKED: ATOM      1  C21 UNL     1      11.139   1.670  -2.603 +0.00 +0.00    +0.187 C  
DOCKED: ENDROOT
DOCKED: BRANCH   1   2
DOCKED: ATOM      2  C22 UNL     1      11.600   0.244  -2.960 +0.00 +0.00    +0.236 C  
DOCKED: ATOM      3  O6  UNL     1      12.254  -0.456  -2.178 +0.00 -0.00    -0.274 OA 
DOCKED: ATOM      4  N5  UNL     1      11.403  -0.146  -4.270 +0.00 -0.00    -0.303 N  
DOCKED: ATOM      5  H39 UNL     1      10.889   0.486  -4.888 +0.00 +0.00    +0.149 HD 
DOCKED: BRANCH   4   6
DOCKED: ATOM      6  C23 UNL     1      11.843  -1.457  -4.742 +0.00 +0.00    +0.156 C  
DOCKED: ATOM      7  C24 UNL     1      13.364  -1.538  -4.780 +0.00 +0.00    +0.038 C  
DOCKED: BRANCH   6   8
DOCKED: ATOM      8  C25 UNL     1      11.295  -2.560  -3.822 +0.00 +0.00    +0.234 C  
DOCKED: ATOM      9  O7  UNL     1      10.226  -3.131  -4.026 +0.00 -0.00    -0.274 OA 
DOCKED: ATOM     10  N6  UNL     1      12.145  -2.959  -2.818 +0.00 -0.00    -0.302 N  
DOCKED: ATOM     11  H44 UNL     1      12.997  -2.419  -2.695 +0.00 +0.00    +0.150 HD 
DOCKED: BRANCH  10  12
DOCKED: ATOM     12  C26 UNL     1      11.798  -4.031  -1.901 +0.00 +0.00    +0.159 C  
DOCKED: BRANCH  12  13
DOCKED: ATOM     13  C30 UNL     1      10.806  -3.527  -0.814 +0.00 +0.00    +0.234 C  
DOCKED: ATOM     14  O10 UNL     1       9.871  -4.208  -0.384 +0.00 -0.00    -0.274 OA 
DOCKED: ATOM     15  N7  UNL     1      11.027  -2.240  -0.406 +0.00 -0.00    -0.301 N  
DOCKED: ATOM     16  H51 UNL     1      11.900  -1.779  -0.687 +0.00 +0.00    +0.150 HD 
DOCKED: BRANCH  15  17
DOCKED: ATOM     17  C31 UNL     1      10.153  -1.510   0.521 +0.00 +0.00    +0.186 C  
DOCKED: BRANCH  17  18
DOCKED: ATOM     18  C39 UNL     1      10.702  -0.089   0.647 +0.00 +0.00    +0.326 C  
DOCKED: ATOM     19  O11 UNL     1      10.044   0.930   0.789 +0.00 -0.00    -0.249 OA 
DOCKED: BRANCH  18  20
DOCKED: ATOM     20  O12 UNL     1      12.048  -0.048   0.630 +0.00 -0.00    -0.479 OA 
DOCKED: ATOM     21  H60 UNL     1      12.304   0.096  -0.305 +0.00 +0.00    +0.295 HD 
DOCKED: ENDBRANCH  18  20
DOCKED: ENDBRANCH  17  18
DOCKED: BRANCH  17  22
DOCKED: ATOM     22  C32 UNL     1      10.107  -2.198   1.886 +0.00 +0.00    +0.069 C  
DOCKED: BRANCH  22  23
DOCKED: ATOM     23  C33 UNL     1      11.442  -2.745   2.324 +0.00 -0.00    -0.045 A  
DOCKED: ATOM     24  C34 UNL     1      12.485  -1.872   2.677 +0.00 +0.00    +0.004 A  
DOCKED: ATOM     25  C35 UNL     1      13.724  -2.377   3.086 +0.00 +0.00    +0.000 A  
DOCKED: ATOM     26  C36 UNL     1      13.930  -3.754   3.153 +0.00 +0.00    +0.000 A  
DOCKED: ATOM     27  C37 UNL     1      12.903  -4.627   2.809 +0.00 +0.00    +0.000 A  
DOCKED: ATOM     28  C38 UNL     1      11.663  -4.129   2.395 +0.00 +0.00    +0.004 A  
DOCKED: ENDBRANCH  22  23
DOCKED: ENDBRANCH  17  22
DOCKED: ENDBRANCH  15  17
DOCKED: ENDBRANCH  12  13
DOCKED: BRANCH  12  29
DOCKED: ATOM     29  C27 UNL     1      13.031  -4.645  -1.224 +0.00 +0.00    +0.043 C  
DOCKED: BRANCH  29  30
DOCKED: ATOM     30  C28 UNL     1      13.642  -3.734  -0.166 +0.00 +0.00    +0.123 C  
DOCKED: BRANCH  30  31
DOCKED: ATOM     31  C29 UNL     1      14.120  -2.452  -0.784 +0.00 +0.00    +0.305 C  
DOCKED: ATOM     32  O8  UNL     1      14.609  -2.310  -1.895 +0.00 -0.00    -0.251 OA 
DOCKED: BRANCH  31  33
DOCKED: ATOM     33  O9  UNL     1      13.886  -1.387   0.008 +0.00 -0.00    -0.481 OA 
DOCKED: ATOM     34  H50 UNL     1      13.746  -0.641  -0.614 +0.00 +0.00    +0.295 HD 
DOCKED: ENDBRANCH  31  33
DOCKED: ENDBRANCH  30  31
DOCKED: ENDBRANCH  29  30
DOCKED: ENDBRANCH  12  29
DOCKED: ENDBRANCH  10  12
DOCKED: ENDBRANCH   6   8
DOCKED: ENDBRANCH   4   6
DOCKED: ENDBRANCH   1   2
DOCKED: BRANCH   1  37
DOCKED: ATOM     35  C20 UNL     1      12.946   2.880  -1.445 +0.00 +0.00    +0.216 C  
DOCKED: ATOM     36  O5  UNL     1      13.464   3.224  -2.505 +0.00 -0.00    -0.276 OA 
DOCKED: ATOM     37  N4  UNL     1      11.848   2.064  -1.383 +0.00 -0.00    -0.302 N  
DOCKED: ATOM     38  H37 UNL     1      11.511   1.737  -0.486 +0.00 +0.00    +0.150 HD 
DOCKED: BRANCH  35  39
DOCKED: ATOM     39  C19 UNL     1      13.449   3.385  -0.114 +0.00 +0.00    +0.129 C  
DOCKED: BRANCH  39  40
DOCKED: ATOM     40  C18 UNL     1      14.563   2.490   0.456 +0.00 +0.00    +0.143 C  
DOCKED: BRANCH  40  41
DOCKED: ATOM     41  O4  UNL     1      14.094   1.153   0.617 +0.00 -0.00    -0.389 OA 
DOCKED: ATOM     42  H34 UNL     1      13.933   0.770  -0.265 +0.00 +0.00    +0.210 HD 
DOCKED: ENDBRANCH  40  41
DOCKED: BRANCH  40  43
DOCKED: ATOM     43  C13 UNL     1      15.892   2.563  -0.372 +0.00 +0.00    +0.102 C  
DOCKED: BRANCH  43  46
DOCKED: ATOM     44  C12 UNL     1      15.601   0.754  -2.092 +0.00 +0.00    +0.234 C  
DOCKED: ATOM     45  O3  UNL     1      15.716  -0.128  -1.240 +0.00 -0.00    -0.274 OA 
DOCKED: ATOM     46  N3  UNL     1      15.670   2.092  -1.763 +0.00 -0.00    -0.308 N  
DOCKED: ATOM     47  H22 UNL     1      15.426   2.777  -2.478 +0.00 +0.00    +0.149 HD 
DOCKED: BRANCH  44  48
DOCKED: ATOM     48  C4  UNL     1      15.641   0.399  -3.589 +0.00 +0.00    +0.160 C  
DOCKED: BRANCH  48  49
DOCKED: ATOM     49  N1  UNL     1      14.887   1.277  -4.493 +0.00 -0.00    -0.302 N  
DOCKED: ATOM     50  C5  UNL     1      15.055   1.156  -5.856 +0.00 +0.00    +0.234 C  
DOCKED: ATOM     51  O1  UNL     1      15.659   0.193  -6.338 +0.00 -0.00    -0.274 OA 
DOCKED: ATOM     52  H9  UNL     1      14.321   2.027  -4.115 +0.00 +0.00    +0.150 HD 
DOCKED: BRANCH  50  53
DOCKED: ATOM     53  C6  UNL     1      14.486   2.273  -6.771 +0.00 +0.00    +0.161 C  
DOCKED: BRANCH  53  54
DOCKED: ATOM     54  N2  UNL     1      15.210   3.545  -6.714 +0.00 -0.00    -0.304 N  
DOCKED: ATOM     55  C7  UNL     1      15.272   4.249  -5.530 +0.00 +0.00    +0.211 C  
DOCKED: ATOM     56  C8  UNL     1      15.648   5.699  -5.683 +0.00 +0.00    +0.109 C  
DOCKED: ATOM     57  O2  UNL     1      15.011   3.766  -4.429 +0.00 -0.00    -0.276 OA 
DOCKED: ATOM     58  H11 UNL     1      15.329   4.044  -7.585 +0.00 +0.00    +0.149 HD 
DOCKED: ENDBRANCH  53  54
DOCKED: BRANCH  53  59
DOCKED: ATOM     59  C9  UNL     1      14.405   1.720  -8.232 +0.00 +0.00    +0.012 C  
DOCKED: ATOM     60  C10 UNL     1      13.321   0.651  -8.397 +0.00 +0.00    +0.009 C  
DOCKED: ATOM     61  C11 UNL     1      14.211   2.822  -9.281 +0.00 +0.00    +0.009 C  
DOCKED: ENDBRANCH  53  59
DOCKED: ENDBRANCH  50  53
DOCKED: ENDBRANCH  48  49
DOCKED: BRANCH  48  62
DOCKED: ATOM     62  C3  UNL     1      17.113   0.314  -4.032 +0.00 +0.00    +0.042 C  
DOCKED: BRANCH  62  63
DOCKED: ATOM     63  C2  UNL     1      17.981   1.308  -3.270 +0.00 +0.00    +0.071 C  
DOCKED: BRANCH  63  65
DOCKED: ATOM     64  C1  UNL     1      18.352   2.108  -5.873 +0.00 +0.00    +0.084 C  
DOCKED: ATOM     65  S1  UNL     1      18.163   2.846  -4.226 +0.00 -0.00    -0.164 S  
DOCKED: ENDBRANCH  63  65
DOCKED: ENDBRANCH  62  63
DOCKED: ENDBRANCH  48  62
DOCKED: ENDBRANCH  44  48
DOCKED: ENDBRANCH  43  46
DOCKED: BRANCH  43  66
DOCKED: ATOM     66  C14 UNL     1      16.579   3.952  -0.363 +0.00 +0.00    +0.028 C  
DOCKED: BRANCH  66  67
DOCKED: ATOM     67  C15 UNL     1      16.631   4.723  -1.702 +0.00 -0.00    -0.015 C  
DOCKED: ATOM     68  C16 UNL     1      17.952   5.494  -1.794 +0.00 +0.00    +0.007 C  
DOCKED: ATOM     69  C17 UNL     1      15.466   5.687  -1.904 +0.00 +0.00    +0.007 C  
DOCKED: ENDBRANCH  66  67
DOCKED: ENDBRANCH  43  66
DOCKED: ENDBRANCH  40  43
DOCKED: ENDBRANCH  39  40
DOCKED: ENDBRANCH  35  39
DOCKED: ENDBRANCH   1  37
DOCKED: BRANCH   1  70
DOCKED: ATOM     70  C40 UNL     1      11.282   2.698  -3.754 +0.00 +0.00    +0.141 C  
DOCKED: ATOM     71  C41 UNL     1       9.961   2.959  -4.459 +0.00 +0.00    +0.040 C  
DOCKED: BRANCH  70  72
DOCKED: ATOM     72  O13 UNL     1      12.251   2.261  -4.722 +0.00 -0.00    -0.390 OA 
DOCKED: ATOM     73  H65 UNL     1      13.048   2.808  -4.581 +0.00 +0.00    +0.210 HD 
DOCKED: ENDBRANCH  70  72
DOCKED: ENDBRANCH   1  70
DOCKED: TORSDOF 32
DOCKED: TER
DOCKED: ENDMDL
________________________________________________________________________________


    FINAL DOCKED STATE:
    ________________________


Run:   5 / 20
Time taken for this run:   5.815s

DOCKED: MODEL        5
DOCKED: USER    Run = 5
DOCKED: USER
DOCKED: USER    Estimated Free Energy of Binding    =  +9.55 kcal/mol  [=(1)+(2)+(3)-(4)]
DOCKED: USER
DOCKED: USER    (1) Final Intermolecular Energy     =  +0.00 kcal/mol
DOCKED: USER        vdW + Hbond + desolv Energy     =  +0.00 kcal/mol
DOCKED: USER        Electrostatic Energy            =  +0.00 kcal/mol
DOCKED: USER        Moving Ligand-Fixed Receptor    =  +0.00 kcal/mol
DOCKED: USER        Moving Ligand-Moving Receptor   =  +0.00 kcal/mol
DOCKED: USER    (2) Final Total Internal Energy     = -24.76 kcal/mol
DOCKED: USER    (3) Torsional Free Energy           =  +9.55 kcal/mol
DOCKED: USER    (4) Unbound System's Energy         = -24.76 kcal/mol
DOCKED: USER
DOCKED: USER
DOCKED: REMARK  Name = ligands/ligand_27.pdb
DOCKED: REMARK  40 active torsions:
DOCKED: REMARK  status: ('A' for Active; 'I' for Inactive)
DOCKED: REMARK    1  A    between atoms: C1_1  and  S1_2
DOCKED: REMARK    2  A    between atoms: S1_2  and  C2_3
DOCKED: REMARK    3  A    between atoms: C2_3  and  C3_4
DOCKED: REMARK    4  A    between atoms: C3_4  and  C4_5
DOCKED: REMARK    5  A    between atoms: C4_5  and  N1_6
DOCKED: REMARK    6  A    between atoms: C4_5  and  C12_17
DOCKED: REMARK    7  A    between atoms: C5_7  and  C6_9
DOCKED: REMARK    8  A    between atoms: C6_9  and  N2_10
DOCKED: REMARK    9  A    between atoms: C6_9  and  C9_14
DOCKED: REMARK   10  A    between atoms: C7_11  and  C8_12
DOCKED: REMARK   11  A    between atoms: C9_14  and  C10_15
DOCKED: REMARK   12  A    between atoms: C9_14  and  C11_16
DOCKED: REMARK   13  A    between atoms: N3_19  and  C13_20
DOCKED: REMARK   14  A    between atoms: C13_20  and  C14_21
DOCKED: REMARK   15  A    between atoms: C13_20  and  C18_25
DOCKED: REMARK   16  A    between atoms: C14_21  and  C15_22
DOCKED: REMARK   17  A    between atoms: C15_22  and  C16_23
DOCKED: REMARK   18  A    between atoms: C15_22  and  C17_24
DOCKED: REMARK   19  A    between atoms: C18_25  and  O4_26
DOCKED: REMARK   20  A    between atoms: C18_25  and  C19_27
DOCKED: REMARK   21  A    between atoms: C19_27  and  C20_28
DOCKED: REMARK   22  A    between atoms: N4_30  and  C21_31
DOCKED: REMARK   23  A    between atoms: C21_31  and  C22_32
DOCKED: REMARK   24  A    between atoms: C21_31  and  C40_60
DOCKED: REMARK   25  A    between atoms: N5_34  and  C23_35
DOCKED: REMARK   26  A    between atoms: C23_35  and  C24_36
DOCKED: REMARK   27  A    between atoms: C23_35  and  C25_37
DOCKED: REMARK   28  A    between atoms: N6_39  and  C26_40
DOCKED: REMARK   29  A    between atoms: C26_40  and  C27_41
DOCKED: REMARK   30  A    between atoms: C26_40  and  C30_46
DOCKED: REMARK   31  A    between atoms: C27_41  and  C28_42
DOCKED: REMARK   32  A    between atoms: C28_42  and  C29_43
DOCKED: REMARK   33  A    between atoms: C29_43  and  O9_45
DOCKED: REMARK   34  A    between atoms: N7_48  and  C31_49
DOCKED: REMARK   35  A    between atoms: C31_49  and  C32_50
DOCKED: REMARK   36  A    between atoms: C31_49  and  C39_57
DOCKED: REMARK   37  A    between atoms: C32_50  and  C33_51
DOCKED: REMARK   38  A    between atoms: C39_57  and  O12_59
DOCKED: REMARK   39  A    between atoms: C40_60  and  C41_61
DOCKED: REMARK   40  A    between atoms: C40_60  and  O13_62
DOCKED: REMARK                            x       y       z     vdW  Elec       q    Type
DOCKED: REMARK                         _______ _______ _______ _____ _____    ______ ____
DOCKED: USER                              x       y       z     vdW  Elec       q    Type
DOCKED: USER                           _______ _______ _______ _____ _____    ______ ____
DOCKED: ROOT
DOCKED: ATOM      1  C21 UNL     1      12.414  -2.809   1.190 +0.00 +0.00    +0.187 C  
DOCKED: ENDROOT
DOCKED: BRANCH   1   2
DOCKED: ATOM      2  C22 UNL     1      11.415  -2.416   0.086 +0.00 +0.00    +0.236 C  
DOCKED: ATOM      3  O6  UNL     1      10.272  -2.017   0.340 +0.00 -0.00    -0.274 OA 
DOCKED: ATOM      4  N5  UNL     1      11.796  -2.705  -1.209 +0.00 -0.00    -0.303 N  
DOCKED: ATOM      5  H39 UNL     1      12.739  -3.070  -1.361 +0.00 +0.00    +0.149 HD 
DOCKED: BRANCH   4   6
DOCKED: ATOM      6  C23 UNL     1      10.912  -2.424  -2.337 +0.00 +0.00    +0.156 C  
DOCKED: ATOM      7  C24 UNL     1      10.875  -0.931  -2.638 +0.00 +0.00    +0.038 C  
DOCKED: BRANCH   6   8
DOCKED: ATOM      8  C25 UNL     1      11.390  -3.184  -3.584 +0.00 +0.00    +0.234 C  
DOCKED: ATOM      9  O7  UNL     1      10.827  -3.103  -4.674 +0.00 -0.00    -0.274 OA 
DOCKED: ATOM     10  N6  UNL     1      12.572  -3.870  -3.434 +0.00 -0.00    -0.302 N  
DOCKED: ATOM     11  H44 UNL     1      12.961  -3.915  -2.495 +0.00 +0.00    +0.150 HD 
DOCKED: BRANCH  10  12
DOCKED: ATOM     12  C26 UNL     1      13.186  -4.591  -4.536 +0.00 +0.00    +0.159 C  
DOCKED: BRANCH  12  13
DOCKED: ATOM     13  C30 UNL     1      14.207  -5.639  -4.007 +0.00 +0.00    +0.234 C  
DOCKED: ATOM     14  O10 UNL     1      14.358  -6.751  -4.518 +0.00 -0.00    -0.274 OA 
DOCKED: ATOM     15  N7  UNL     1      14.894  -5.240  -2.893 +0.00 -0.00    -0.301 N  
DOCKED: ATOM     16  H51 UNL     1      14.834  -4.257  -2.605 +0.00 +0.00    +0.150 HD 
DOCKED: BRANCH  15  17
DOCKED: ATOM     17  C31 UNL     1      15.822  -6.101  -2.149 +0.00 +0.00    +0.186 C  
DOCKED: BRANCH  17  18
DOCKED: ATOM     18  C39 UNL     1      16.379  -5.278  -0.987 +0.00 +0.00    +0.326 C  
DOCKED: ATOM     19  O11 UNL     1      16.854  -5.720   0.049 +0.00 -0.00    -0.249 OA 
DOCKED: BRANCH  18  20
DOCKED: ATOM     20  O12 UNL     1      16.342  -3.954  -1.223 +0.00 -0.00    -0.479 OA 
DOCKED: ATOM     21  H60 UNL     1      15.443  -3.763  -1.564 +0.00 +0.00    +0.295 HD 
DOCKED: ENDBRANCH  18  20
DOCKED: ENDBRANCH  17  18
DOCKED: BRANCH  17  22
DOCKED: ATOM     22  C32 UNL     1      16.951  -6.599  -3.053 +0.00 +0.00    +0.069 C  
DOCKED: BRANCH  22  23
DOCKED: ATOM     23  C33 UNL     1      17.589  -5.503  -3.869 +0.00 -0.00    -0.045 A  
DOCKED: ATOM     24  C34 UNL     1      18.592  -4.695  -3.309 +0.00 +0.00    +0.004 A  
DOCKED: ATOM     25  C35 UNL     1      19.188  -3.680  -4.065 +0.00 +0.00    +0.000 A  
DOCKED: ATOM     26  C36 UNL     1      18.794  -3.467  -5.385 +0.00 +0.00    +0.000 A  
DOCKED: ATOM     27  C37 UNL     1      17.803  -4.264  -5.950 +0.00 +0.00    +0.000 A  
DOCKED: ATOM     28  C38 UNL     1      17.201  -5.279  -5.199 +0.00 +0.00    +0.004 A  
DOCKED: ENDBRANCH  22  23
DOCKED: ENDBRANCH  17  22
DOCKED: ENDBRANCH  15  17
DOCKED: ENDBRANCH  12  13
DOCKED: BRANCH  12  29
DOCKED: ATOM     29  C27 UNL     1      13.882  -3.654  -5.533 +0.00 +0.00    +0.043 C  
DOCKED: BRANCH  29  30
DOCKED: ATOM     30  C28 UNL     1      14.252  -2.307  -4.923 +0.00 +0.00    +0.123 C  
DOCKED: BRANCH  30  31
DOCKED: ATOM     31  C29 UNL     1      15.006  -2.498  -3.639 +0.00 +0.00    +0.305 C  
DOCKED: ATOM     32  O8  UNL     1      16.178  -2.822  -3.517 +0.00 -0.00    -0.251 OA 
DOCKED: BRANCH  31  33
DOCKED: ATOM     33  O9  UNL     1      14.257  -2.195  -2.560 +0.00 -0.00    -0.481 OA 
DOCKED: ATOM     34  H50 UNL     1      14.718  -2.628  -1.810 +0.00 +0.00    +0.295 HD 
DOCKED: ENDBRANCH  31  33
DOCKED: ENDBRANCH  30  31
DOCKED: ENDBRANCH  29  30
DOCKED: ENDBRANCH  12  29
DOCKED: ENDBRANCH  10  12
DOCKED: ENDBRANCH   6   8
DOCKED: ENDBRANCH   4   6
DOCKED: ENDBRANCH   1   2
DOCKED: BRANCH   1  37
DOCKED: ATOM     35  C20 UNL     1      13.238  -4.897   0.174 +0.00 +0.00    +0.216 C  
DOCKED: ATOM     36  O5  UNL     1      13.694  -4.303  -0.801 +0.00 -0.00    -0.276 OA 
DOCKED: ATOM     37  N4  UNL     1      12.536  -4.269   1.167 +0.00 -0.00    -0.302 N  
DOCKED: ATOM     38  H37 UNL     1      12.106  -4.814   1.905 +0.00 +0.00    +0.150 HD 
DOCKED: BRANCH  35  39
DOCKED: ATOM     39  C19 UNL     1      13.471  -6.374   0.384 +0.00 +0.00    +0.129 C  
DOCKED: BRANCH  39  40
DOCKED: ATOM     40  C18 UNL     1      12.158  -7.132   0.642 +0.00 +0.00    +0.143 C  
DOCKED: BRANCH  40  41
DOCKED: ATOM     41  O4  UNL     1      11.616  -6.769   1.911 +0.00 -0.00    -0.389 OA 
DOCKED: ATOM     42  H34 UNL     1      11.061  -5.976   1.798 +0.00 +0.00    +0.210 HD 
DOCKED: ENDBRANCH  40  41
DOCKED: BRANCH  40  43
DOCKED: ATOM     43  C13 UNL     1      11.119  -6.973  -0.520 +0.00 +0.00    +0.102 C  
DOCKED: BRANCH  43  46
DOCKED: ATOM     44  C12 UNL     1       8.922  -5.821  -0.923 +0.00 +0.00    +0.234 C  
DOCKED: ATOM     45  O3  UNL     1       8.803  -6.353  -2.029 +0.00 -0.00    -0.274 OA 
DOCKED: ATOM     46  N3  UNL     1      10.015  -6.065  -0.117 +0.00 -0.00    -0.308 N  
DOCKED: ATOM     47  H22 UNL     1       9.994  -5.716   0.840 +0.00 +0.00    +0.149 HD 
DOCKED: BRANCH  44  48
DOCKED: ATOM     48  C4  UNL     1       7.994  -4.664  -0.513 +0.00 +0.00    +0.160 C  
DOCKED: BRANCH  48  49
DOCKED: ATOM     49  N1  UNL     1       8.326  -3.966   0.736 +0.00 -0.00    -0.302 N  
DOCKED: ATOM     50  C5  UNL     1       7.455  -4.028   1.803 +0.00 +0.00    +0.234 C  
DOCKED: ATOM     51  O1  UNL     1       6.511  -4.824   1.805 +0.00 -0.00    -0.274 OA 
DOCKED: ATOM     52  H9  UNL     1       9.142  -3.368   0.778 +0.00 +0.00    +0.150 HD 
DOCKED: BRANCH  50  53
DOCKED: ATOM     53  C6  UNL     1       7.676  -3.055   2.991 +0.00 +0.00    +0.161 C  
DOCKED: BRANCH  53  54
DOCKED: ATOM     54  N2  UNL     1       8.628  -3.521   4.001 +0.00 -0.00    -0.304 N  
DOCKED: ATOM     55  C7  UNL     1       9.738  -4.245   3.619 +0.00 +0.00    +0.211 C  
DOCKED: ATOM     56  C8  UNL     1      10.390  -5.023   4.731 +0.00 +0.00    +0.109 C  
DOCKED: ATOM     57  O2  UNL     1      10.159  -4.299   2.465 +0.00 -0.00    -0.276 OA 
DOCKED: ATOM     58  H11 UNL     1       8.282  -3.621   4.946 +0.00 +0.00    +0.149 HD 
DOCKED: ENDBRANCH  53  54
DOCKED: BRANCH  53  59
DOCKED: ATOM     59  C9  UNL     1       8.082  -1.659   2.414 +0.00 +0.00    +0.012 C  
DOCKED: ATOM     60  C10 UNL     1       6.896  -0.697   2.308 +0.00 +0.00    +0.009 C  
DOCKED: ATOM     61  C11 UNL     1       9.220  -0.993   3.200 +0.00 +0.00    +0.009 C  
DOCKED: ENDBRANCH  53  59
DOCKED: ENDBRANCH  50  53
DOCKED: ENDBRANCH  48  49
DOCKED: BRANCH  48  62
DOCKED: ATOM     62  C3  UNL     1       7.916  -3.663  -1.680 +0.00 +0.00    +0.042 C  
DOCKED: BRANCH  62  63
DOCKED: ATOM     63  C2  UNL     1       6.990  -2.498  -1.354 +0.00 +0.00    +0.071 C  
DOCKED: BRANCH  63  65
DOCKED: ATOM     64  C1  UNL     1       8.090  -0.031  -0.847 +0.00 +0.00    +0.084 C  
DOCKED: ATOM     65  S1  UNL     1       7.511  -1.009  -2.261 +0.00 -0.00    -0.164 S  
DOCKED: ENDBRANCH  63  65
DOCKED: ENDBRANCH  62  63
DOCKED: ENDBRANCH  48  62
DOCKED: ENDBRANCH  44  48
DOCKED: ENDBRANCH  43  46
DOCKED: BRANCH  43  66
DOCKED: ATOM     66  C14 UNL     1      11.731  -6.530  -1.873 +0.00 +0.00    +0.028 C  
DOCKED: BRANCH  66  67
DOCKED: ATOM     67  C15 UNL     1      11.711  -7.557  -3.029 +0.00 -0.00    -0.015 C  
DOCKED: ATOM     68  C16 UNL     1      10.842  -7.021  -4.171 +0.00 +0.00    +0.007 C  
DOCKED: ATOM     69  C17 UNL     1      11.212  -8.938  -2.616 +0.00 +0.00    +0.007 C  
DOCKED: ENDBRANCH  66  67
DOCKED: ENDBRANCH  43  66
DOCKED: ENDBRANCH  40  43
DOCKED: ENDBRANCH  39  40
DOCKED: ENDBRANCH  35  39
DOCKED: ENDBRANCH   1  37
DOCKED: BRANCH   1  70
DOCKED: ATOM     70  C40 UNL     1      13.779  -2.079   1.109 +0.00 +0.00    +0.141 C  
DOCKED: ATOM     71  C41 UNL     1      13.704  -0.658   1.642 +0.00 +0.00    +0.040 C  
DOCKED: BRANCH  70  72
DOCKED: ATOM     72  O13 UNL     1      14.270  -2.048  -0.242 +0.00 -0.00    -0.390 OA 
DOCKED: ATOM     73  H65 UNL     1      14.566  -2.955  -0.449 +0.00 +0.00    +0.210 HD 
DOCKED: ENDBRANCH  70  72
DOCKED: ENDBRANCH   1  70
DOCKED: TORSDOF 32
DOCKED: TER
DOCKED: ENDMDL
________________________________________________________________________________


    FINAL DOCKED STATE:
    ________________________


Run:   6 / 20
Time taken for this run:   5.815s

DOCKED: MODEL        6
DOCKED: USER    Run = 6
DOCKED: USER
DOCKED: USER    Estimated Free Energy of Binding    =  +9.55 kcal/mol  [=(1)+(2)+(3)-(4)]
DOCKED: USER
DOCKED: USER    (1) Final Intermolecular Energy     =  +0.00 kcal/mol
DOCKED: USER        vdW + Hbond + desolv Energy     =  +0.00 kcal/mol
DOCKED: USER        Electrostatic Energy            =  +0.00 kcal/mol
DOCKED: USER        Moving Ligand-Fixed Receptor    =  +0.00 kcal/mol
DOCKED: USER        Moving Ligand-Moving Receptor   =  +0.00 kcal/mol
DOCKED: USER    (2) Final Total Internal Energy     = -24.69 kcal/mol
DOCKED: USER    (3) Torsional Free Energy           =  +9.55 kcal/mol
DOCKED: USER    (4) Unbound System's Energy         = -24.69 kcal/mol
DOCKED: USER
DOCKED: USER
DOCKED: REMARK  Name = ligands/ligand_27.pdb
DOCKED: REMARK  40 active torsions:
DOCKED: REMARK  status: ('A' for Active; 'I' for Inactive)
DOCKED: REMARK    1  A    between atoms: C1_1  and  S1_2
DOCKED: REMARK    2  A    between atoms: S1_2  and  C2_3
DOCKED: REMARK    3  A    between atoms: C2_3  and  C3_4
DOCKED: REMARK    4  A    between atoms: C3_4  and  C4_5
DOCKED: REMARK    5  A    between atoms: C4_5  and  N1_6
DOCKED: REMARK    6  A    between atoms: C4_5  and  C12_17
DOCKED: REMARK    7  A    between atoms: C5_7  and  C6_9
DOCKED: REMARK    8  A    between atoms: C6_9  and  N2_10
DOCKED: REMARK    9  A    between atoms: C6_9  and  C9_14
DOCKED: REMARK   10  A    between atoms: C7_11  and  C8_12
DOCKED: REMARK   11  A    between atoms: C9_14  and  C10_15
DOCKED: REMARK   12  A    between atoms: C9_14  and  C11_16
DOCKED: REMARK   13  A    between atoms: N3_19  and  C13_20
DOCKED: REMARK   14  A    between atoms: C13_20  and  C14_21
DOCKED: REMARK   15  A    between atoms: C13_20  and  C18_25
DOCKED: REMARK   16  A    between atoms: C14_21  and  C15_22
DOCKED: REMARK   17  A    between atoms: C15_22  and  C16_23
DOCKED: REMARK   18  A    between atoms: C15_22  and  C17_24
DOCKED: REMARK   19  A    between atoms: C18_25  and  O4_26
DOCKED: REMARK   20  A    between atoms: C18_25  and  C19_27
DOCKED: REMARK   21  A    between atoms: C19_27  and  C20_28
DOCKED: REMARK   22  A    between atoms: N4_30  and  C21_31
DOCKED: REMARK   23  A    between atoms: C21_31  and  C22_32
DOCKED: REMARK   24  A    between atoms: C21_31  and  C40_60
DOCKED: REMARK   25  A    between atoms: N5_34  and  C23_35
DOCKED: REMARK   26  A    between atoms: C23_35  and  C24_36
DOCKED: REMARK   27  A    between atoms: C23_35  and  C25_37
DOCKED: REMARK   28  A    between atoms: N6_39  and  C26_40
DOCKED: REMARK   29  A    between atoms: C26_40  and  C27_41
DOCKED: REMARK   30  A    between atoms: C26_40  and  C30_46
DOCKED: REMARK   31  A    between atoms: C27_41  and  C28_42
DOCKED: REMARK   32  A    between atoms: C28_42  and  C29_43
DOCKED: REMARK   33  A    between atoms: C29_43  and  O9_45
DOCKED: REMARK   34  A    between atoms: N7_48  and  C31_49
DOCKED: REMARK   35  A    between atoms: C31_49  and  C32_50
DOCKED: REMARK   36  A    between atoms: C31_49  and  C39_57
DOCKED: REMARK   37  A    between atoms: C32_50  and  C33_51
DOCKED: REMARK   38  A    between atoms: C39_57  and  O12_59
DOCKED: REMARK   39  A    between atoms: C40_60  and  C41_61
DOCKED: REMARK   40  A    between atoms: C40_60  and  O13_62
DOCKED: REMARK                            x       y       z     vdW  Elec       q    Type
DOCKED: REMARK                         _______ _______ _______ _____ _____    ______ ____
DOCKED: USER                              x       y       z     vdW  Elec       q    Type
DOCKED: USER                           _______ _______ _______ _____ _____    ______ ____
DOCKED: ROOT
DOCKED: ATOM      1  C21 UNL     1       9.765  -1.616  -2.139 +0.00 +0.00    +0.187 C  
DOCKED: ENDROOT
DOCKED: BRANCH   1   2
DOCKED: ATOM      2  C22 UNL     1       9.196  -1.449  -3.561 +0.00 +0.00    +0.236 C  
DOCKED: ATOM      3  O6  UNL     1       9.878  -1.025  -4.501 +0.00 -0.00    -0.274 OA 
DOCKED: ATOM      4  N5  UNL     1       7.834  -1.627  -3.694 +0.00 -0.00    -0.303 N  
DOCKED: ATOM      5  H39 UNL     1       7.308  -1.942  -2.875 +0.00 +0.00    +0.149 HD 
DOCKED: BRANCH   4   6
DOCKED: ATOM      6  C23 UNL     1       7.171  -1.447  -4.983 +0.00 +0.00    +0.156 C  
DOCKED: ATOM      7  C24 UNL     1       7.307  -0.009  -5.468 +0.00 +0.00    +0.038 C  
DOCKED: BRANCH   6   8
DOCKED: ATOM      8  C25 UNL     1       7.779  -2.398  -6.026 +0.00 +0.00    +0.234 C  
DOCKED: ATOM      9  O7  UNL     1       7.328  -3.519  -6.252 +0.00 -0.00    -0.274 OA 
DOCKED: ATOM     10  N6  UNL     1       8.790  -1.861  -6.787 +0.00 -0.00    -0.302 N  
DOCKED: ATOM     11  H44 UNL     1       9.127  -0.940  -6.520 +0.00 +0.00    +0.150 HD 
DOCKED: BRANCH  10  12
DOCKED: ATOM     12  C26 UNL     1       9.428  -2.613  -7.854 +0.00 +0.00    +0.159 C  
DOCKED: BRANCH  12  13
DOCKED: ATOM     13  C30 UNL     1      10.135  -3.879  -7.290 +0.00 +0.00    +0.234 C  
DOCKED: ATOM     14  O10 UNL     1      10.168  -4.957  -7.889 +0.00 -0.00    -0.274 OA 
DOCKED: ATOM     15  N7  UNL     1      10.679  -3.710  -6.046 +0.00 -0.00    -0.301 N  
DOCKED: ATOM     16  H51 UNL     1      10.749  -2.760  -5.666 +0.00 +0.00    +0.150 HD 
DOCKED: BRANCH  15  17
DOCKED: ATOM     17  C31 UNL     1      11.292  -4.792  -5.265 +0.00 +0.00    +0.186 C  
DOCKED: BRANCH  17  18
DOCKED: ATOM     18  C39 UNL     1      11.830  -4.175  -3.973 +0.00 +0.00    +0.326 C  
DOCKED: ATOM     19  O11 UNL     1      12.320  -4.782  -3.032 +0.00 -0.00    -0.249 OA 
DOCKED: BRANCH  18  20
DOCKED: ATOM     20  O12 UNL     1      11.753  -2.832  -3.966 +0.00 -0.00    -0.479 OA 
DOCKED: ATOM     21  H60 UNL     1      12.676  -2.506  -4.024 +0.00 +0.00    +0.295 HD 
DOCKED: ENDBRANCH  18  20
DOCKED: ENDBRANCH  17  18
DOCKED: BRANCH  17  22
DOCKED: ATOM     22  C32 UNL     1      12.415  -5.467  -6.052 +0.00 +0.00    +0.069 C  
DOCKED: BRANCH  22  23
DOCKED: ATOM     23  C33 UNL     1      13.319  -4.490  -6.760 +0.00 -0.00    -0.045 A  
DOCKED: ATOM     24  C34 UNL     1      13.405  -4.492  -8.162 +0.00 +0.00    +0.004 A  
DOCKED: ATOM     25  C35 UNL     1      14.241  -3.585  -8.822 +0.00 +0.00    +0.000 A  
DOCKED: ATOM     26  C36 UNL     1      14.990  -2.665  -8.091 +0.00 +0.00    +0.000 A  
DOCKED: ATOM     27  C37 UNL     1      14.910  -2.652  -6.702 +0.00 +0.00    +0.000 A  
DOCKED: ATOM     28  C38 UNL     1      14.079  -3.559  -6.035 +0.00 +0.00    +0.004 A  
DOCKED: ENDBRANCH  22  23
DOCKED: ENDBRANCH  17  22
DOCKED: ENDBRANCH  15  17
DOCKED: ENDBRANCH  12  13
DOCKED: BRANCH  12  29
DOCKED: ATOM     29  C27 UNL     1      10.440  -1.769  -8.641 +0.00 +0.00    +0.043 C  
DOCKED: BRANCH  29  30
DOCKED: ATOM     30  C28 UNL     1      11.754  -1.567  -7.893 +0.00 +0.00    +0.123 C  
DOCKED: BRANCH  30  31
DOCKED: ATOM     31  C29 UNL     1      11.556  -0.659  -6.714 +0.00 +0.00    +0.305 C  
DOCKED: ATOM     32  O8  UNL     1      10.859   0.344  -6.668 +0.00 -0.00    -0.251 OA 
DOCKED: BRANCH  31  33
DOCKED: ATOM     33  O9  UNL     1      12.196  -1.106  -5.616 +0.00 -0.00    -0.481 OA 
DOCKED: ATOM     34  H50 UNL     1      11.584  -0.908  -4.875 +0.00 +0.00    +0.295 HD 
DOCKED: ENDBRANCH  31  33
DOCKED: ENDBRANCH  30  31
DOCKED: ENDBRANCH  29  30
DOCKED: ENDBRANCH  12  29
DOCKED: ENDBRANCH  10  12
DOCKED: ENDBRANCH   6   8
DOCKED: ENDBRANCH   4   6
DOCKED: ENDBRANCH   1   2
DOCKED: BRANCH   1  37
DOCKED: ATOM     35  C20 UNL     1       9.093  -3.961  -1.797 +0.00 +0.00    +0.216 C  
DOCKED: ATOM     36  O5  UNL     1       7.910  -3.657  -1.668 +0.00 -0.00    -0.276 OA 
DOCKED: ATOM     37  N4  UNL     1      10.087  -3.034  -1.963 +0.00 -0.00    -0.302 N  
DOCKED: ATOM     38  H37 UNL     1      11.056  -3.328  -1.977 +0.00 +0.00    +0.150 HD 
DOCKED: BRANCH  35  39
DOCKED: ATOM     39  C19 UNL     1       9.543  -5.403  -1.844 +0.00 +0.00    +0.129 C  
DOCKED: BRANCH  39  40
DOCKED: ATOM     40  C18 UNL     1       8.352  -6.376  -1.835 +0.00 +0.00    +0.143 C  
DOCKED: BRANCH  40  41
DOCKED: ATOM     41  O4  UNL     1       7.614  -6.247  -0.621 +0.00 -0.00    -0.389 OA 
DOCKED: ATOM     42  H34 UNL     1       7.135  -5.399  -0.636 +0.00 +0.00    +0.210 HD 
DOCKED: ENDBRANCH  40  41
DOCKED: BRANCH  40  43
DOCKED: ATOM     43  C13 UNL     1       7.443  -6.247  -3.105 +0.00 +0.00    +0.102 C  
DOCKED: BRANCH  43  46
DOCKED: ATOM     44  C12 UNL     1       4.945  -6.019  -3.266 +0.00 +0.00    +0.234 C  
DOCKED: ATOM     45  O3  UNL     1       4.868  -6.985  -4.027 +0.00 -0.00    -0.274 OA 
DOCKED: ATOM     46  N3  UNL     1       6.156  -5.588  -2.765 +0.00 -0.00    -0.308 N  
DOCKED: ATOM     47  H22 UNL     1       6.149  -4.879  -2.031 +0.00 +0.00    +0.149 HD 
DOCKED: BRANCH  44  48
DOCKED: ATOM     48  C4  UNL     1       3.732  -5.095  -3.058 +0.00 +0.00    +0.160 C  
DOCKED: BRANCH  48  49
DOCKED: ATOM     49  N1  UNL     1       3.873  -4.046  -2.039 +0.00 -0.00    -0.302 N  
DOCKED: ATOM     50  C5  UNL     1       4.893  -3.125  -2.147 +0.00 +0.00    +0.234 C  
DOCKED: ATOM     51  O1  UNL     1       5.557  -3.033  -3.184 +0.00 -0.00    -0.274 OA 
DOCKED: ATOM     52  H9  UNL     1       3.283  -4.059  -1.216 +0.00 +0.00    +0.150 HD 
DOCKED: BRANCH  50  53
DOCKED: ATOM     53  C6  UNL     1       5.202  -2.222  -0.924 +0.00 +0.00    +0.161 C  
DOCKED: BRANCH  53  54
DOCKED: ATOM     54  N2  UNL     1       6.056  -2.835   0.096 +0.00 -0.00    -0.304 N  
DOCKED: ATOM     55  C7  UNL     1       5.804  -4.124   0.520 +0.00 +0.00    +0.211 C  
DOCKED: ATOM     56  C8  UNL     1       6.442  -4.485   1.835 +0.00 +0.00    +0.109 C  
DOCKED: ATOM     57  O2  UNL     1       5.091  -4.920  -0.088 +0.00 -0.00    -0.276 OA 
DOCKED: ATOM     58  H11 UNL     1       6.559  -2.209   0.710 +0.00 +0.00    +0.149 HD 
DOCKED: ENDBRANCH  53  54
DOCKED: BRANCH  53  59
DOCKED: ATOM     59  C9  UNL     1       5.803  -0.875  -1.446 +0.00 +0.00    +0.012 C  
DOCKED: ATOM     60  C10 UNL     1       4.730   0.183  -1.715 +0.00 +0.00    +0.009 C  
DOCKED: ATOM     61  C11 UNL     1       6.878  -0.298  -0.516 +0.00 +0.00    +0.009 C  
DOCKED: ENDBRANCH  53  59
DOCKED: ENDBRANCH  50  53
DOCKED: ENDBRANCH  48  49
DOCKED: BRANCH  48  62
DOCKED: ATOM     62  C3  UNL     1       3.353  -4.474  -4.414 +0.00 +0.00    +0.042 C  
DOCKED: BRANCH  62  63
DOCKED: ATOM     63  C2  UNL     1       4.523  -4.510  -5.390 +0.00 +0.00    +0.071 C  
DOCKED: BRANCH  63  65
DOCKED: ATOM     64  C1  UNL     1       3.810  -1.857  -5.463 +0.00 +0.00    +0.084 C  
DOCKED: ATOM     65  S1  UNL     1       4.376  -3.155  -6.597 +0.00 -0.00    -0.164 S  
DOCKED: ENDBRANCH  63  65
DOCKED: ENDBRANCH  62  63
DOCKED: ENDBRANCH  48  62
DOCKED: ENDBRANCH  44  48
DOCKED: ENDBRANCH  43  46
DOCKED: BRANCH  43  66
DOCKED: ATOM     66  C14 UNL     1       8.119  -5.546  -4.310 +0.00 +0.00    +0.028 C  
DOCKED: BRANCH  66  67
DOCKED: ATOM     67  C15 UNL     1       8.402  -6.408  -5.562 +0.00 -0.00    -0.015 C  
DOCKED: ATOM     68  C16 UNL     1       7.090  -6.666  -6.310 +0.00 +0.00    +0.007 C  
DOCKED: ATOM     69  C17 UNL     1       9.081  -7.739  -5.253 +0.00 +0.00    +0.007 C  
DOCKED: ENDBRANCH  66  67
DOCKED: ENDBRANCH  43  66
DOCKED: ENDBRANCH  40  43
DOCKED: ENDBRANCH  39  40
DOCKED: ENDBRANCH  35  39
DOCKED: ENDBRANCH   1  37
DOCKED: BRANCH   1  70
DOCKED: ATOM     70  C40 UNL     1      10.949  -0.673  -1.807 +0.00 +0.00    +0.141 C  
DOCKED: ATOM     71  C41 UNL     1      10.538   0.791  -1.819 +0.00 +0.00    +0.040 C  
DOCKED: BRANCH  70  72
DOCKED: ATOM     72  O13 UNL     1      12.036  -0.862  -2.728 +0.00 -0.00    -0.390 OA 
DOCKED: ATOM     73  H65 UNL     1      11.649  -1.257  -3.533 +0.00 +0.00    +0.210 HD 
DOCKED: ENDBRANCH  70  72
DOCKED: ENDBRANCH   1  70
DOCKED: TORSDOF 32
DOCKED: TER
DOCKED: ENDMDL
________________________________________________________________________________


    FINAL DOCKED STATE:
    ________________________


Run:   7 / 20
Time taken for this run:   5.815s

DOCKED: MODEL        7
DOCKED: USER    Run = 7
DOCKED: USER
DOCKED: USER    Estimated Free Energy of Binding    =  +9.55 kcal/mol  [=(1)+(2)+(3)-(4)]
DOCKED: USER
DOCKED: USER    (1) Final Intermolecular Energy     =  +0.00 kcal/mol
DOCKED: USER        vdW + Hbond + desolv Energy     =  +0.00 kcal/mol
DOCKED: USER        Electrostatic Energy            =  +0.00 kcal/mol
DOCKED: USER        Moving Ligand-Fixed Receptor    =  +0.00 kcal/mol
DOCKED: USER        Moving Ligand-Moving Receptor   =  +0.00 kcal/mol
DOCKED: USER    (2) Final Total Internal Energy     = -24.64 kcal/mol
DOCKED: USER    (3) Torsional Free Energy           =  +9.55 kcal/mol
DOCKED: USER    (4) Unbound System's Energy         = -24.64 kcal/mol
DOCKED: USER
DOCKED: USER
DOCKED: REMARK  Name = ligands/ligand_27.pdb
DOCKED: REMARK  40 active torsions:
DOCKED: REMARK  status: ('A' for Active; 'I' for Inactive)
DOCKED: REMARK    1  A    between atoms: C1_1  and  S1_2
DOCKED: REMARK    2  A    between atoms: S1_2  and  C2_3
DOCKED: REMARK    3  A    between atoms: C2_3  and  C3_4
DOCKED: REMARK    4  A    between atoms: C3_4  and  C4_5
DOCKED: REMARK    5  A    between atoms: C4_5  and  N1_6
DOCKED: REMARK    6  A    between atoms: C4_5  and  C12_17
DOCKED: REMARK    7  A    between atoms: C5_7  and  C6_9
DOCKED: REMARK    8  A    between atoms: C6_9  and  N2_10
DOCKED: REMARK    9  A    between atoms: C6_9  and  C9_14
DOCKED: REMARK   10  A    between atoms: C7_11  and  C8_12
DOCKED: REMARK   11  A    between atoms: C9_14  and  C10_15
DOCKED: REMARK   12  A    between atoms: C9_14  and  C11_16
DOCKED: REMARK   13  A    between atoms: N3_19  and  C13_20
DOCKED: REMARK   14  A    between atoms: C13_20  and  C14_21
DOCKED: REMARK   15  A    between atoms: C13_20  and  C18_25
DOCKED: REMARK   16  A    between atoms: C14_21  and  C15_22
DOCKED: REMARK   17  A    between atoms: C15_22  and  C16_23
DOCKED: REMARK   18  A    between atoms: C15_22  and  C17_24
DOCKED: REMARK   19  A    between atoms: C18_25  and  O4_26
DOCKED: REMARK   20  A    between atoms: C18_25  and  C19_27
DOCKED: REMARK   21  A    between atoms: C19_27  and  C20_28
DOCKED: REMARK   22  A    between atoms: N4_30  and  C21_31
DOCKED: REMARK   23  A    between atoms: C21_31  and  C22_32
DOCKED: REMARK   24  A    between atoms: C21_31  and  C40_60
DOCKED: REMARK   25  A    between atoms: N5_34  and  C23_35
DOCKED: REMARK   26  A    between atoms: C23_35  and  C24_36
DOCKED: REMARK   27  A    between atoms: C23_35  and  C25_37
DOCKED: REMARK   28  A    between atoms: N6_39  and  C26_40
DOCKED: REMARK   29  A    between atoms: C26_40  and  C27_41
DOCKED: REMARK   30  A    between atoms: C26_40  and  C30_46
DOCKED: REMARK   31  A    between atoms: C27_41  and  C28_42
DOCKED: REMARK   32  A    between atoms: C28_42  and  C29_43
DOCKED: REMARK   33  A    between atoms: C29_43  and  O9_45
DOCKED: REMARK   34  A    between atoms: N7_48  and  C31_49
DOCKED: REMARK   35  A    between atoms: C31_49  and  C32_50
DOCKED: REMARK   36  A    between atoms: C31_49  and  C39_57
DOCKED: REMARK   37  A    between atoms: C32_50  and  C33_51
DOCKED: REMARK   38  A    between atoms: C39_57  and  O12_59
DOCKED: REMARK   39  A    between atoms: C40_60  and  C41_61
DOCKED: REMARK   40  A    between atoms: C40_60  and  O13_62
DOCKED: REMARK                            x       y       z     vdW  Elec       q    Type
DOCKED: REMARK                         _______ _______ _______ _____ _____    ______ ____
DOCKED: USER                              x       y       z     vdW  Elec       q    Type
DOCKED: USER                           _______ _______ _______ _____ _____    ______ ____
DOCKED: ROOT
DOCKED: ATOM      1  C21 UNL     1      10.110 -11.049  -4.494 +0.00 +0.00    +0.187 C  
DOCKED: ENDROOT
DOCKED: BRANCH   1   2
DOCKED: ATOM      2  C22 UNL     1       9.302 -10.151  -3.540 +0.00 +0.00    +0.236 C  
DOCKED: ATOM      3  O6  UNL     1       8.506 -10.610  -2.713 +0.00 -0.00    -0.274 OA 
DOCKED: ATOM      4  N5  UNL     1       9.375  -8.793  -3.778 +0.00 -0.00    -0.303 N  
DOCKED: ATOM      5  H39 UNL     1      10.021  -8.466  -4.500 +0.00 +0.00    +0.149 HD 
DOCKED: BRANCH   4   6
DOCKED: ATOM      6  C23 UNL     1       8.615  -7.842  -2.971 +0.00 +0.00    +0.156 C  
DOCKED: ATOM      7  C24 UNL     1       8.546  -8.297  -1.519 +0.00 +0.00    +0.038 C  
DOCKED: BRANCH   6   8
DOCKED: ATOM      8  C25 UNL     1       9.264  -6.452  -3.041 +0.00 +0.00    +0.234 C  
DOCKED: ATOM      9  O7  UNL     1       9.093  -5.589  -2.182 +0.00 -0.00    -0.274 OA 
DOCKED: ATOM     10  N6  UNL     1      10.158  -6.275  -4.070 +0.00 -0.00    -0.302 N  
DOCKED: ATOM     11  H44 UNL     1      10.223  -7.022  -4.756 +0.00 +0.00    +0.150 HD 
DOCKED: BRANCH  10  12
DOCKED: ATOM     12  C26 UNL     1      10.899  -5.037  -4.238 +0.00 +0.00    +0.159 C  
DOCKED: BRANCH  12  13
DOCKED: ATOM     13  C30 UNL     1      11.575  -4.985  -5.638 +0.00 +0.00    +0.234 C  
DOCKED: ATOM     14  O10 UNL     1      11.531  -3.995  -6.373 +0.00 -0.00    -0.274 OA 
DOCKED: ATOM     15  N7  UNL     1      12.186  -6.152  -6.010 +0.00 -0.00    -0.301 N  
DOCKED: ATOM     16  H51 UNL     1      12.317  -6.884  -5.303 +0.00 +0.00    +0.150 HD 
DOCKED: BRANCH  15  17
DOCKED: ATOM     17  C31 UNL     1      12.787  -6.379  -7.330 +0.00 +0.00    +0.186 C  
DOCKED: BRANCH  17  18
DOCKED: ATOM     18  C39 UNL     1      13.422  -7.770  -7.311 +0.00 +0.00    +0.326 C  
DOCKED: ATOM     19  O11 UNL     1      14.104  -8.265  -8.196 +0.00 -0.00    -0.249 OA 
DOCKED: BRANCH  18  20
DOCKED: ATOM     20  O12 UNL     1      13.192  -8.431  -6.161 +0.00 -0.00    -0.479 OA 
DOCKED: ATOM     21  H60 UNL     1      12.218  -8.475  -6.062 +0.00 +0.00    +0.295 HD 
DOCKED: ENDBRANCH  18  20
DOCKED: ENDBRANCH  17  18
DOCKED: BRANCH  17  22
DOCKED: ATOM     22  C32 UNL     1      13.832  -5.310  -7.648 +0.00 +0.00    +0.069 C  
DOCKED: BRANCH  22  23
DOCKED: ATOM     23  C33 UNL     1      15.141  -5.522  -6.929 +0.00 -0.00    -0.045 A  
DOCKED: ATOM     24  C34 UNL     1      16.266  -5.988  -7.628 +0.00 +0.00    +0.004 A  
DOCKED: ATOM     25  C35 UNL     1      17.482  -6.183  -6.965 +0.00 +0.00    +0.000 A  
DOCKED: ATOM     26  C36 UNL     1      17.587  -5.909  -5.602 +0.00 +0.00    +0.000 A  
DOCKED: ATOM     27  C37 UNL     1      16.479  -5.444  -4.900 +0.00 +0.00    +0.000 A  
DOCKED: ATOM     28  C38 UNL     1      15.259  -5.250  -5.557 +0.00 +0.00    +0.004 A  
DOCKED: ENDBRANCH  22  23
DOCKED: ENDBRANCH  17  22
DOCKED: ENDBRANCH  15  17
DOCKED: ENDBRANCH  12  13
DOCKED: BRANCH  12  29
DOCKED: ATOM     29  C27 UNL     1      11.962  -4.837  -3.148 +0.00 +0.00    +0.043 C  
DOCKED: BRANCH  29  30
DOCKED: ATOM     30  C28 UNL     1      13.058  -5.896  -3.187 +0.00 +0.00    +0.123 C  
DOCKED: BRANCH  30  31
DOCKED: ATOM     31  C29 UNL     1      12.492  -7.253  -2.882 +0.00 +0.00    +0.305 C  
DOCKED: ATOM     32  O8  UNL     1      12.346  -7.758  -1.779 +0.00 -0.00    -0.251 OA 
DOCKED: BRANCH  31  33
DOCKED: ATOM     33  O9  UNL     1      12.063  -7.886  -3.993 +0.00 -0.00    -0.481 OA 
DOCKED: ATOM     34  H50 UNL     1      12.821  -8.446  -4.267 +0.00 +0.00    +0.295 HD 
DOCKED: ENDBRANCH  31  33
DOCKED: ENDBRANCH  30  31
DOCKED: ENDBRANCH  29  30
DOCKED: ENDBRANCH  12  29
DOCKED: ENDBRANCH  10  12
DOCKED: ENDBRANCH   6   8
DOCKED: ENDBRANCH   4   6
DOCKED: ENDBRANCH   1   2
DOCKED: BRANCH   1  37
DOCKED: ATOM     35  C20 UNL     1       8.647 -10.162  -6.267 +0.00 +0.00    +0.216 C  
DOCKED: ATOM     36  O5  UNL     1       7.637 -10.324  -5.585 +0.00 -0.00    -0.276 OA 
DOCKED: ATOM     37  N4  UNL     1       9.894 -10.546  -5.854 +0.00 -0.00    -0.302 N  
DOCKED: ATOM     38  H37 UNL     1      10.682 -10.472  -6.486 +0.00 +0.00    +0.150 HD 
DOCKED: BRANCH  35  39
DOCKED: ATOM     39  C19 UNL     1       8.598  -9.464  -7.605 +0.00 +0.00    +0.129 C  
DOCKED: BRANCH  39  40
DOCKED: ATOM     40  C18 UNL     1       9.941  -8.801  -7.956 +0.00 +0.00    +0.143 C  
DOCKED: BRANCH  40  41
DOCKED: ATOM     41  O4  UNL     1      10.586  -8.328  -6.776 +0.00 -0.00    -0.389 OA 
DOCKED: ATOM     42  H34 UNL     1      11.123  -9.050  -6.402 +0.00 +0.00    +0.210 HD 
DOCKED: ENDBRANCH  40  41
DOCKED: BRANCH  40  43
DOCKED: ATOM     43  C13 UNL     1      10.871  -9.721  -8.819 +0.00 +0.00    +0.102 C  
DOCKED: BRANCH  43  46
DOCKED: ATOM     44  C12 UNL     1      13.102 -10.857  -8.598 +0.00 +0.00    +0.234 C  
DOCKED: ATOM     45  O3  UNL     1      13.098 -11.180  -9.787 +0.00 -0.00    -0.274 OA 
DOCKED: ATOM     46  N3  UNL     1      12.063 -10.143  -8.039 +0.00 -0.00    -0.308 N  
DOCKED: ATOM     47  H22 UNL     1      12.182  -9.779  -7.094 +0.00 +0.00    +0.149 HD 
DOCKED: BRANCH  44  48
DOCKED: ATOM     48  C4  UNL     1      14.136 -11.461  -7.632 +0.00 +0.00    +0.160 C  
DOCKED: BRANCH  48  49
DOCKED: ATOM     49  N1  UNL     1      14.810 -10.527  -6.721 +0.00 -0.00    -0.302 N  
DOCKED: ATOM     50  C5  UNL     1      16.186 -10.445  -6.726 +0.00 +0.00    +0.234 C  
DOCKED: ATOM     51  O1  UNL     1      16.850 -10.981  -7.618 +0.00 -0.00    -0.274 OA 
DOCKED: ATOM     52  H9  UNL     1      14.272 -10.017  -6.031 +0.00 +0.00    +0.150 HD 
DOCKED: BRANCH  50  53
DOCKED: ATOM     53  C6  UNL     1      16.882  -9.683  -5.568 +0.00 +0.00    +0.161 C  
DOCKED: BRANCH  53  54
DOCKED: ATOM     54  N2  UNL     1      16.494 -10.114  -4.223 +0.00 -0.00    -0.304 N  
DOCKED: ATOM     55  C7  UNL     1      15.400  -9.544  -3.607 +0.00 +0.00    +0.211 C  
DOCKED: ATOM     56  C8  UNL     1      15.353  -9.733  -2.114 +0.00 +0.00    +0.109 C  
DOCKED: ATOM     57  O2  UNL     1      14.538  -8.896  -4.199 +0.00 -0.00    -0.276 OA 
DOCKED: ATOM     58  H11 UNL     1      17.214 -10.532  -3.650 +0.00 +0.00    +0.149 HD 
DOCKED: ENDBRANCH  53  54
DOCKED: BRANCH  53  59
DOCKED: ATOM     59  C9  UNL     1      18.430  -9.774  -5.779 +0.00 +0.00    +0.012 C  
DOCKED: ATOM     60  C10 UNL     1      19.200  -8.747  -4.945 +0.00 +0.00    +0.009 C  
DOCKED: ATOM     61  C11 UNL     1      18.989 -11.179  -5.517 +0.00 +0.00    +0.009 C  
DOCKED: ENDBRANCH  53  59
DOCKED: ENDBRANCH  50  53
DOCKED: ENDBRANCH  48  49
DOCKED: BRANCH  48  62
DOCKED: ATOM     62  C3  UNL     1      13.456 -12.588  -6.833 +0.00 +0.00    +0.042 C  
DOCKED: BRANCH  62  63
DOCKED: ATOM     63  C2  UNL     1      14.479 -13.443  -6.094 +0.00 +0.00    +0.071 C  
DOCKED: BRANCH  63  65
DOCKED: ATOM     64  C1  UNL     1      16.353 -13.310  -4.089 +0.00 +0.00    +0.084 C  
DOCKED: ATOM     65  S1  UNL     1      14.602 -12.915  -4.357 +0.00 -0.00    -0.164 S  
DOCKED: ENDBRANCH  63  65
DOCKED: ENDBRANCH  62  63
DOCKED: ENDBRANCH  48  62
DOCKED: ENDBRANCH  44  48
DOCKED: ENDBRANCH  43  46
DOCKED: BRANCH  43  66
DOCKED: ATOM     66  C14 UNL     1      10.160 -10.947  -9.446 +0.00 +0.00    +0.028 C  
DOCKED: BRANCH  66  67
DOCKED: ATOM     67  C15 UNL     1      10.188 -12.267  -8.642 +0.00 -0.00    -0.015 C  
DOCKED: ATOM     68  C16 UNL     1      10.961 -13.328  -9.431 +0.00 +0.00    +0.007 C  
DOCKED: ATOM     69  C17 UNL     1       8.803 -12.804  -8.293 +0.00 +0.00    +0.007 C  
DOCKED: ENDBRANCH  66  67
DOCKED: ENDBRANCH  43  66
DOCKED: ENDBRANCH  40  43
DOCKED: ENDBRANCH  39  40
DOCKED: ENDBRANCH  35  39
DOCKED: ENDBRANCH   1  37
DOCKED: BRANCH   1  70
DOCKED: ATOM     70  C40 UNL     1      11.609 -11.193  -4.125 +0.00 +0.00    +0.141 C  
DOCKED: ATOM     71  C41 UNL     1      11.896 -10.740  -2.703 +0.00 +0.00    +0.040 C  
DOCKED: BRANCH  70  72
DOCKED: ATOM     72  O13 UNL     1      12.439 -10.448  -5.031 +0.00 -0.00    -0.390 OA 
DOCKED: ATOM     73  H65 UNL     1      12.934  -9.805  -4.487 +0.00 +0.00    +0.210 HD 
DOCKED: ENDBRANCH  70  72
DOCKED: ENDBRANCH   1  70
DOCKED: TORSDOF 32
DOCKED: TER
DOCKED: ENDMDL
________________________________________________________________________________


    FINAL DOCKED STATE:
    ________________________


Run:   8 / 20
Time taken for this run:   5.815s

DOCKED: MODEL        8
DOCKED: USER    Run = 8
DOCKED: USER
DOCKED: USER    Estimated Free Energy of Binding    =  +9.55 kcal/mol  [=(1)+(2)+(3)-(4)]
DOCKED: USER
DOCKED: USER    (1) Final Intermolecular Energy     =  +0.00 kcal/mol
DOCKED: USER        vdW + Hbond + desolv Energy     =  +0.00 kcal/mol
DOCKED: USER        Electrostatic Energy            =  +0.00 kcal/mol
DOCKED: USER        Moving Ligand-Fixed Receptor    =  +0.00 kcal/mol
DOCKED: USER        Moving Ligand-Moving Receptor   =  +0.00 kcal/mol
DOCKED: USER    (2) Final Total Internal Energy     = -25.32 kcal/mol
DOCKED: USER    (3) Torsional Free Energy           =  +9.55 kcal/mol
DOCKED: USER    (4) Unbound System's Energy         = -25.32 kcal/mol
DOCKED: USER
DOCKED: USER
DOCKED: REMARK  Name = ligands/ligand_27.pdb
DOCKED: REMARK  40 active torsions:
DOCKED: REMARK  status: ('A' for Active; 'I' for Inactive)
DOCKED: REMARK    1  A    between atoms: C1_1  and  S1_2
DOCKED: REMARK    2  A    between atoms: S1_2  and  C2_3
DOCKED: REMARK    3  A    between atoms: C2_3  and  C3_4
DOCKED: REMARK    4  A    between atoms: C3_4  and  C4_5
DOCKED: REMARK    5  A    between atoms: C4_5  and  N1_6
DOCKED: REMARK    6  A    between atoms: C4_5  and  C12_17
DOCKED: REMARK    7  A    between atoms: C5_7  and  C6_9
DOCKED: REMARK    8  A    between atoms: C6_9  and  N2_10
DOCKED: REMARK    9  A    between atoms: C6_9  and  C9_14
DOCKED: REMARK   10  A    between atoms: C7_11  and  C8_12
DOCKED: REMARK   11  A    between atoms: C9_14  and  C10_15
DOCKED: REMARK   12  A    between atoms: C9_14  and  C11_16
DOCKED: REMARK   13  A    between atoms: N3_19  and  C13_20
DOCKED: REMARK   14  A    between atoms: C13_20  and  C14_21
DOCKED: REMARK   15  A    between atoms: C13_20  and  C18_25
DOCKED: REMARK   16  A    between atoms: C14_21  and  C15_22
DOCKED: REMARK   17  A    between atoms: C15_22  and  C16_23
DOCKED: REMARK   18  A    between atoms: C15_22  and  C17_24
DOCKED: REMARK   19  A    between atoms: C18_25  and  O4_26
DOCKED: REMARK   20  A    between atoms: C18_25  and  C19_27
DOCKED: REMARK   21  A    between atoms: C19_27  and  C20_28
DOCKED: REMARK   22  A    between atoms: N4_30  and  C21_31
DOCKED: REMARK   23  A    between atoms: C21_31  and  C22_32
DOCKED: REMARK   24  A    between atoms: C21_31  and  C40_60
DOCKED: REMARK   25  A    between atoms: N5_34  and  C23_35
DOCKED: REMARK   26  A    between atoms: C23_35  and  C24_36
DOCKED: REMARK   27  A    between atoms: C23_35  and  C25_37
DOCKED: REMARK   28  A    between atoms: N6_39  and  C26_40
DOCKED: REMARK   29  A    between atoms: C26_40  and  C27_41
DOCKED: REMARK   30  A    between atoms: C26_40  and  C30_46
DOCKED: REMARK   31  A    between atoms: C27_41  and  C28_42
DOCKED: REMARK   32  A    between atoms: C28_42  and  C29_43
DOCKED: REMARK   33  A    between atoms: C29_43  and  O9_45
DOCKED: REMARK   34  A    between atoms: N7_48  and  C31_49
DOCKED: REMARK   35  A    between atoms: C31_49  and  C32_50
DOCKED: REMARK   36  A    between atoms: C31_49  and  C39_57
DOCKED: REMARK   37  A    between atoms: C32_50  and  C33_51
DOCKED: REMARK   38  A    between atoms: C39_57  and  O12_59
DOCKED: REMARK   39  A    between atoms: C40_60  and  C41_61
DOCKED: REMARK   40  A    between atoms: C40_60  and  O13_62
DOCKED: REMARK                            x       y       z     vdW  Elec       q    Type
DOCKED: REMARK                         _______ _______ _______ _____ _____    ______ ____
DOCKED: USER                              x       y       z     vdW  Elec       q    Type
DOCKED: USER                           _______ _______ _______ _____ _____    ______ ____
DOCKED: ROOT
DOCKED: ATOM      1  C21 UNL     1       7.747  -6.526  -1.685 +0.00 +0.00    +0.187 C  
DOCKED: ENDROOT
DOCKED: BRANCH   1   2
DOCKED: ATOM      2  C22 UNL     1       7.125  -5.889  -2.941 +0.00 +0.00    +0.236 C  
DOCKED: ATOM      3  O6  UNL     1       5.920  -5.979  -3.202 +0.00 -0.00    -0.274 OA 
DOCKED: ATOM      4  N5  UNL     1       8.014  -5.364  -3.858 +0.00 -0.00    -0.303 N  
DOCKED: ATOM      5  H39 UNL     1       9.006  -5.348  -3.610 +0.00 +0.00    +0.149 HD 
DOCKED: BRANCH   4   6
DOCKED: ATOM      6  C23 UNL     1       7.548  -4.776  -5.111 +0.00 +0.00    +0.156 C  
DOCKED: ATOM      7  C24 UNL     1       6.461  -3.740  -4.853 +0.00 +0.00    +0.038 C  
DOCKED: BRANCH   6   8
DOCKED: ATOM      8  C25 UNL     1       8.720  -4.114  -5.852 +0.00 +0.00    +0.234 C  
DOCKED: ATOM      9  O7  UNL     1       8.565  -3.354  -6.805 +0.00 -0.00    -0.274 OA 
DOCKED: ATOM     10  N6  UNL     1       9.959  -4.329  -5.296 +0.00 -0.00    -0.302 N  
DOCKED: ATOM     11  H44 UNL     1      10.009  -4.993  -4.528 +0.00 +0.00    +0.150 HD 
DOCKED: BRANCH  10  12
DOCKED: ATOM     12  C26 UNL     1      11.160  -3.723  -5.845 +0.00 +0.00    +0.159 C  
DOCKED: BRANCH  12  13
DOCKED: ATOM     13  C30 UNL     1      12.387  -4.661  -5.652 +0.00 +0.00    +0.234 C  
DOCKED: ATOM     14  O10 UNL     1      12.961  -5.223  -6.589 +0.00 -0.00    -0.274 OA 
DOCKED: ATOM     15  N7  UNL     1      12.748  -4.852  -4.346 +0.00 -0.00    -0.301 N  
DOCKED: ATOM     16  H51 UNL     1      12.332  -4.248  -3.629 +0.00 +0.00    +0.150 HD 
DOCKED: BRANCH  15  17
DOCKED: ATOM     17  C31 UNL     1      13.797  -5.783  -3.912 +0.00 +0.00    +0.186 C  
DOCKED: BRANCH  17  18
DOCKED: ATOM     18  C39 UNL     1      13.905  -5.674  -2.391 +0.00 +0.00    +0.326 C  
DOCKED: ATOM     19  O11 UNL     1      14.542  -6.415  -1.657 +0.00 -0.00    -0.249 OA 
DOCKED: BRANCH  18  20
DOCKED: ATOM     20  O12 UNL     1      13.239  -4.615  -1.896 +0.00 -0.00    -0.479 OA 
DOCKED: ATOM     21  H60 UNL     1      12.308  -4.720  -2.184 +0.00 +0.00    +0.295 HD 
DOCKED: ENDBRANCH  18  20
DOCKED: ENDBRANCH  17  18
DOCKED: BRANCH  17  22
DOCKED: ATOM     22  C32 UNL     1      15.133  -5.452  -4.577 +0.00 +0.00    +0.069 C  
DOCKED: BRANCH  22  23
DOCKED: ATOM     23  C33 UNL     1      15.659  -4.087  -4.212 +0.00 -0.00    -0.045 A  
DOCKED: ATOM     24  C34 UNL     1      15.174  -2.942  -4.865 +0.00 +0.00    +0.004 A  
DOCKED: ATOM     25  C35 UNL     1      15.658  -1.674  -4.527 +0.00 +0.00    +0.000 A  
DOCKED: ATOM     26  C36 UNL     1      16.622  -1.537  -3.529 +0.00 +0.00    +0.000 A  
DOCKED: ATOM     27  C37 UNL     1      17.107  -2.664  -2.873 +0.00 +0.00    +0.000 A  
DOCKED: ATOM     28  C38 UNL     1      16.630  -3.935  -3.210 +0.00 +0.00    +0.004 A  
DOCKED: ENDBRANCH  22  23
DOCKED: ENDBRANCH  17  22
DOCKED: ENDBRANCH  15  17
DOCKED: ENDBRANCH  12  13
DOCKED: BRANCH  12  29
DOCKED: ATOM     29  C27 UNL     1      11.462  -2.352  -5.224 +0.00 +0.00    +0.043 C  
DOCKED: BRANCH  29  30
DOCKED: ATOM     30  C28 UNL     1      10.619  -2.063  -3.986 +0.00 +0.00    +0.123 C  
DOCKED: BRANCH  30  31
DOCKED: ATOM     31  C29 UNL     1      11.112  -2.860  -2.813 +0.00 +0.00    +0.305 C  
DOCKED: ATOM     32  O8  UNL     1      12.007  -2.552  -2.040 +0.00 -0.00    -0.251 OA 
DOCKED: BRANCH  31  33
DOCKED: ATOM     33  O9  UNL     1      10.394  -3.985  -2.626 +0.00 -0.00    -0.481 OA 
DOCKED: ATOM     34  H50 UNL     1      10.808  -4.415  -1.847 +0.00 +0.00    +0.295 HD 
DOCKED: ENDBRANCH  31  33
DOCKED: ENDBRANCH  30  31
DOCKED: ENDBRANCH  29  30
DOCKED: ENDBRANCH  12  29
DOCKED: ENDBRANCH  10  12
DOCKED: ENDBRANCH   6   8
DOCKED: ENDBRANCH   4   6
DOCKED: ENDBRANCH   1   2
DOCKED: BRANCH   1  37
DOCKED: ATOM     35  C20 UNL     1       8.971  -8.003  -3.230 +0.00 +0.00    +0.216 C  
DOCKED: ATOM     36  O5  UNL     1       7.955  -8.263  -3.869 +0.00 -0.00    -0.276 OA 
DOCKED: ATOM     37  N4  UNL     1       8.966  -7.221  -2.106 +0.00 -0.00    -0.302 N  
DOCKED: ATOM     38  H37 UNL     1       9.814  -7.107  -1.564 +0.00 +0.00    +0.150 HD 
DOCKED: BRANCH  35  39
DOCKED: ATOM     39  C19 UNL     1      10.333  -8.483  -3.674 +0.00 +0.00    +0.129 C  
DOCKED: BRANCH  39  40
DOCKED: ATOM     40  C18 UNL     1      11.464  -7.606  -3.109 +0.00 +0.00    +0.143 C  
DOCKED: BRANCH  40  41
DOCKED: ATOM     41  O4  UNL     1      11.017  -6.262  -2.949 +0.00 -0.00    -0.389 OA 
DOCKED: ATOM     42  H34 UNL     1      11.450  -5.880  -2.164 +0.00 +0.00    +0.210 HD 
DOCKED: ENDBRANCH  40  41
DOCKED: BRANCH  40  43
DOCKED: ATOM     43  C13 UNL     1      12.094  -8.189  -1.798 +0.00 +0.00    +0.102 C  
DOCKED: BRANCH  43  46
DOCKED: ATOM     44  C12 UNL     1      12.302  -7.497   0.609 +0.00 +0.00    +0.234 C  
DOCKED: ATOM     45  O3  UNL     1      13.253  -8.261   0.786 +0.00 -0.00    -0.274 OA 
DOCKED: ATOM     46  N3  UNL     1      11.676  -7.392  -0.616 +0.00 -0.00    -0.308 N  
DOCKED: ATOM     47  H22 UNL     1      10.994  -6.646  -0.745 +0.00 +0.00    +0.149 HD 
DOCKED: BRANCH  44  48
DOCKED: ATOM     48  C4  UNL     1      11.608  -6.828   1.809 +0.00 +0.00    +0.160 C  
DOCKED: BRANCH  48  49
DOCKED: ATOM     49  N1  UNL     1      11.904  -5.407   2.031 +0.00 -0.00    -0.302 N  
DOCKED: ATOM     50  C5  UNL     1      12.012  -4.558   0.950 +0.00 +0.00    +0.234 C  
DOCKED: ATOM     51  O1  UNL     1      11.660  -4.918  -0.177 +0.00 -0.00    -0.274 OA 
DOCKED: ATOM     52  H9  UNL     1      12.120  -5.074   2.963 +0.00 +0.00    +0.150 HD 
DOCKED: BRANCH  50  53
DOCKED: ATOM     53  C6  UNL     1      12.611  -3.145   1.180 +0.00 +0.00    +0.161 C  
DOCKED: BRANCH  53  54
DOCKED: ATOM     54  N2  UNL     1      13.452  -2.646   0.090 +0.00 -0.00    -0.304 N  
DOCKED: ATOM     55  C7  UNL     1      14.022  -1.393   0.180 +0.00 +0.00    +0.211 C  
DOCKED: ATOM     56  C8  UNL     1      14.487  -0.822  -1.134 +0.00 +0.00    +0.109 C  
DOCKED: ATOM     57  O2  UNL     1      14.122  -0.756   1.227 +0.00 -0.00    -0.276 OA 
DOCKED: ATOM     58  H11 UNL     1      13.306  -3.051  -0.825 +0.00 +0.00    +0.149 HD 
DOCKED: ENDBRANCH  53  54
DOCKED: BRANCH  53  59
DOCKED: ATOM     59  C9  UNL     1      11.439  -2.160   1.502 +0.00 +0.00    +0.012 C  
DOCKED: ATOM     60  C10 UNL     1      10.300  -2.247   0.483 +0.00 +0.00    +0.009 C  
DOCKED: ATOM     61  C11 UNL     1      10.880  -2.337   2.920 +0.00 +0.00    +0.009 C  
DOCKED: ENDBRANCH  53  59
DOCKED: ENDBRANCH  50  53
DOCKED: ENDBRANCH  48  49
DOCKED: BRANCH  48  62
DOCKED: ATOM     62  C3  UNL     1      10.090  -7.043   1.677 +0.00 +0.00    +0.042 C  
DOCKED: BRANCH  62  63
DOCKED: ATOM     63  C2  UNL     1       9.318  -6.212   2.695 +0.00 +0.00    +0.071 C  
DOCKED: BRANCH  63  65
DOCKED: ATOM     64  C1  UNL     1       7.715  -8.191   1.664 +0.00 +0.00    +0.084 C  
DOCKED: ATOM     65  S1  UNL     1       7.581  -6.751   2.760 +0.00 -0.00    -0.164 S  
DOCKED: ENDBRANCH  63  65
DOCKED: ENDBRANCH  62  63
DOCKED: ENDBRANCH  48  62
DOCKED: ENDBRANCH  44  48
DOCKED: ENDBRANCH  43  46
DOCKED: BRANCH  43  66
DOCKED: ATOM     66  C14 UNL     1      11.823  -9.697  -1.569 +0.00 +0.00    +0.028 C  
DOCKED: BRANCH  66  67
DOCKED: ATOM     67  C15 UNL     1      10.620 -10.072  -0.674 +0.00 -0.00    -0.015 C  
DOCKED: ATOM     68  C16 UNL     1      11.125 -10.771   0.592 +0.00 +0.00    +0.007 C  
DOCKED: ATOM     69  C17 UNL     1       9.590 -10.959  -1.366 +0.00 +0.00    +0.007 C  
DOCKED: ENDBRANCH  66  67
DOCKED: ENDBRANCH  43  66
DOCKED: ENDBRANCH  40  43
DOCKED: ENDBRANCH  39  40
DOCKED: ENDBRANCH  35  39
DOCKED: ENDBRANCH   1  37
DOCKED: BRANCH   1  70
DOCKED: ATOM     70  C40 UNL     1       7.978  -5.540  -0.512 +0.00 +0.00    +0.141 C  
DOCKED: ATOM     71  C41 UNL     1       7.173  -4.260  -0.669 +0.00 +0.00    +0.040 C  
DOCKED: BRANCH  70  72
DOCKED: ATOM     72  O13 UNL     1       9.370  -5.205  -0.384 +0.00 -0.00    -0.390 OA 
DOCKED: ATOM     73  H65 UNL     1       9.801  -5.499  -1.210 +0.00 +0.00    +0.210 HD 
DOCKED: ENDBRANCH  70  72
DOCKED: ENDBRANCH   1  70
DOCKED: TORSDOF 32
DOCKED: TER
DOCKED: ENDMDL
________________________________________________________________________________


    FINAL DOCKED STATE:
    ________________________


Run:   9 / 20
Time taken for this run:   5.815s

DOCKED: MODEL        9
DOCKED: USER    Run = 9
DOCKED: USER
DOCKED: USER    Estimated Free Energy of Binding    =  +9.55 kcal/mol  [=(1)+(2)+(3)-(4)]
DOCKED: USER
DOCKED: USER    (1) Final Intermolecular Energy     =  +0.00 kcal/mol
DOCKED: USER        vdW + Hbond + desolv Energy     =  +0.00 kcal/mol
DOCKED: USER        Electrostatic Energy            =  +0.00 kcal/mol
DOCKED: USER        Moving Ligand-Fixed Receptor    =  +0.00 kcal/mol
DOCKED: USER        Moving Ligand-Moving Receptor   =  +0.00 kcal/mol
DOCKED: USER    (2) Final Total Internal Energy     = -24.49 kcal/mol
DOCKED: USER    (3) Torsional Free Energy           =  +9.55 kcal/mol
DOCKED: USER    (4) Unbound System's Energy         = -24.49 kcal/mol
DOCKED: USER
DOCKED: USER
DOCKED: REMARK  Name = ligands/ligand_27.pdb
DOCKED: REMARK  40 active torsions:
DOCKED: REMARK  status: ('A' for Active; 'I' for Inactive)
DOCKED: REMARK    1  A    between atoms: C1_1  and  S1_2
DOCKED: REMARK    2  A    between atoms: S1_2  and  C2_3
DOCKED: REMARK    3  A    between atoms: C2_3  and  C3_4
DOCKED: REMARK    4  A    between atoms: C3_4  and  C4_5
DOCKED: REMARK    5  A    between atoms: C4_5  and  N1_6
DOCKED: REMARK    6  A    between atoms: C4_5  and  C12_17
DOCKED: REMARK    7  A    between atoms: C5_7  and  C6_9
DOCKED: REMARK    8  A    between atoms: C6_9  and  N2_10
DOCKED: REMARK    9  A    between atoms: C6_9  and  C9_14
DOCKED: REMARK   10  A    between atoms: C7_11  and  C8_12
DOCKED: REMARK   11  A    between atoms: C9_14  and  C10_15
DOCKED: REMARK   12  A    between atoms: C9_14  and  C11_16
DOCKED: REMARK   13  A    between atoms: N3_19  and  C13_20
DOCKED: REMARK   14  A    between atoms: C13_20  and  C14_21
DOCKED: REMARK   15  A    between atoms: C13_20  and  C18_25
DOCKED: REMARK   16  A    between atoms: C14_21  and  C15_22
DOCKED: REMARK   17  A    between atoms: C15_22  and  C16_23
DOCKED: REMARK   18  A    between atoms: C15_22  and  C17_24
DOCKED: REMARK   19  A    between atoms: C18_25  and  O4_26
DOCKED: REMARK   20  A    between atoms: C18_25  and  C19_27
DOCKED: REMARK   21  A    between atoms: C19_27  and  C20_28
DOCKED: REMARK   22  A    between atoms: N4_30  and  C21_31
DOCKED: REMARK   23  A    between atoms: C21_31  and  C22_32
DOCKED: REMARK   24  A    between atoms: C21_31  and  C40_60
DOCKED: REMARK   25  A    between atoms: N5_34  and  C23_35
DOCKED: REMARK   26  A    between atoms: C23_35  and  C24_36
DOCKED: REMARK   27  A    between atoms: C23_35  and  C25_37
DOCKED: REMARK   28  A    between atoms: N6_39  and  C26_40
DOCKED: REMARK   29  A    between atoms: C26_40  and  C27_41
DOCKED: REMARK   30  A    between atoms: C26_40  and  C30_46
DOCKED: REMARK   31  A    between atoms: C27_41  and  C28_42
DOCKED: REMARK   32  A    between atoms: C28_42  and  C29_43
DOCKED: REMARK   33  A    between atoms: C29_43  and  O9_45
DOCKED: REMARK   34  A    between atoms: N7_48  and  C31_49
DOCKED: REMARK   35  A    between atoms: C31_49  and  C32_50
DOCKED: REMARK   36  A    between atoms: C31_49  and  C39_57
DOCKED: REMARK   37  A    between atoms: C32_50  and  C33_51
DOCKED: REMARK   38  A    between atoms: C39_57  and  O12_59
DOCKED: REMARK   39  A    between atoms: C40_60  and  C41_61
DOCKED: REMARK   40  A    between atoms: C40_60  and  O13_62
DOCKED: REMARK                            x       y       z     vdW  Elec       q    Type
DOCKED: REMARK                         _______ _______ _______ _____ _____    ______ ____
DOCKED: USER                              x       y       z     vdW  Elec       q    Type
DOCKED: USER                           _______ _______ _______ _____ _____    ______ ____
DOCKED: ROOT
DOCKED: ATOM      1  C21 UNL     1       6.395  -0.806  -2.117 +0.00 +0.00    +0.187 C  
DOCKED: ENDROOT
DOCKED: BRANCH   1   2
DOCKED: ATOM      2  C22 UNL     1       6.954  -1.230  -3.488 +0.00 +0.00    +0.236 C  
DOCKED: ATOM      3  O6  UNL     1       7.210  -2.408  -3.762 +0.00 -0.00    -0.274 OA 
DOCKED: ATOM      4  N5  UNL     1       7.326  -0.205  -4.334 +0.00 -0.00    -0.303 N  
DOCKED: ATOM      5  H39 UNL     1       7.126   0.755  -4.043 +0.00 +0.00    +0.149 HD 
DOCKED: BRANCH   4   6
DOCKED: ATOM      6  C23 UNL     1       7.914  -0.482  -5.643 +0.00 +0.00    +0.156 C  
DOCKED: ATOM      7  C24 UNL     1       9.365  -0.924  -5.502 +0.00 +0.00    +0.038 C  
DOCKED: BRANCH   6   8
DOCKED: ATOM      8  C25 UNL     1       7.113  -1.578  -6.360 +0.00 +0.00    +0.234 C  
DOCKED: ATOM      9  O7  UNL     1       6.186  -1.334  -7.130 +0.00 -0.00    -0.274 OA 
DOCKED: ATOM     10  N6  UNL     1       7.584  -2.857  -6.184 +0.00 -0.00    -0.302 N  
DOCKED: ATOM     11  H44 UNL     1       8.334  -2.982  -5.509 +0.00 +0.00    +0.150 HD 
DOCKED: BRANCH  10  12
DOCKED: ATOM     12  C26 UNL     1       6.971  -3.998  -6.843 +0.00 +0.00    +0.159 C  
DOCKED: BRANCH  12  13
DOCKED: ATOM     13  C30 UNL     1       5.503  -4.186  -6.366 +0.00 +0.00    +0.234 C  
DOCKED: ATOM     14  O10 UNL     1       4.590  -4.543  -7.115 +0.00 -0.00    -0.274 OA 
DOCKED: ATOM     15  N7  UNL     1       5.296  -3.876  -5.050 +0.00 -0.00    -0.301 N  
DOCKED: ATOM     16  H51 UNL     1       6.112  -3.730  -4.445 +0.00 +0.00    +0.150 HD 
DOCKED: BRANCH  15  17
DOCKED: ATOM     17  C31 UNL     1       3.976  -3.864  -4.407 +0.00 +0.00    +0.186 C  
DOCKED: BRANCH  17  18
DOCKED: ATOM     18  C39 UNL     1       3.490  -5.312  -4.331 +0.00 +0.00    +0.326 C  
DOCKED: ATOM     19  O11 UNL     1       2.439  -5.746  -4.779 +0.00 -0.00    -0.249 OA 
DOCKED: BRANCH  18  20
DOCKED: ATOM     20  O12 UNL     1       4.377  -6.127  -3.732 +0.00 -0.00    -0.479 OA 
DOCKED: ATOM     21  H60 UNL     1       5.044  -5.544  -3.312 +0.00 +0.00    +0.295 HD 
DOCKED: ENDBRANCH  18  20
DOCKED: ENDBRANCH  17  18
DOCKED: BRANCH  17  22
DOCKED: ATOM     22  C32 UNL     1       2.990  -3.001  -5.195 +0.00 +0.00    +0.069 C  
DOCKED: BRANCH  22  23
DOCKED: ATOM     23  C33 UNL     1       3.336  -1.534  -5.180 +0.00 -0.00    -0.045 A  
DOCKED: ATOM     24  C34 UNL     1       3.584  -0.877  -3.964 +0.00 +0.00    +0.004 A  
DOCKED: ATOM     25  C35 UNL     1       3.909   0.484  -3.946 +0.00 +0.00    +0.000 A  
DOCKED: ATOM     26  C36 UNL     1       3.995   1.198  -5.141 +0.00 +0.00    +0.000 A  
DOCKED: ATOM     27  C37 UNL     1       3.754   0.556  -6.352 +0.00 +0.00    +0.000 A  
DOCKED: ATOM     28  C38 UNL     1       3.426  -0.804  -6.375 +0.00 +0.00    +0.004 A  
DOCKED: ENDBRANCH  22  23
DOCKED: ENDBRANCH  17  22
DOCKED: ENDBRANCH  15  17
DOCKED: ENDBRANCH  12  13
DOCKED: BRANCH  12  29
DOCKED: ATOM     29  C27 UNL     1       7.755  -5.298  -6.613 +0.00 +0.00    +0.043 C  
DOCKED: BRANCH  29  30
DOCKED: ATOM     30  C28 UNL     1       7.084  -6.226  -5.607 +0.00 +0.00    +0.123 C  
DOCKED: BRANCH  30  31
DOCKED: ATOM     31  C29 UNL     1       7.357  -5.770  -4.203 +0.00 +0.00    +0.305 C  
DOCKED: ATOM     32  O8  UNL     1       7.033  -6.337  -3.170 +0.00 -0.00    -0.251 OA 
DOCKED: BRANCH  31  33
DOCKED: ATOM     33  O9  UNL     1       8.100  -4.646  -4.169 +0.00 -0.00    -0.481 OA 
DOCKED: ATOM     34  H50 UNL     1       7.562  -4.010  -3.651 +0.00 +0.00    +0.295 HD 
DOCKED: ENDBRANCH  31  33
DOCKED: ENDBRANCH  30  31
DOCKED: ENDBRANCH  29  30
DOCKED: ENDBRANCH  12  29
DOCKED: ENDBRANCH  10  12
DOCKED: ENDBRANCH   6   8
DOCKED: ENDBRANCH   4   6
DOCKED: ENDBRANCH   1   2
DOCKED: BRANCH   1  37
DOCKED: ATOM     35  C20 UNL     1       4.859  -2.289  -0.888 +0.00 +0.00    +0.216 C  
DOCKED: ATOM     36  O5  UNL     1       3.938  -1.479  -0.958 +0.00 -0.00    -0.276 OA 
DOCKED: ATOM     37  N4  UNL     1       6.118  -2.030  -1.361 +0.00 -0.00    -0.302 N  
DOCKED: ATOM     38  H37 UNL     1       6.865  -2.694  -1.202 +0.00 +0.00    +0.150 HD 
DOCKED: BRANCH  35  39
DOCKED: ATOM     39  C19 UNL     1       4.657  -3.674  -0.321 +0.00 +0.00    +0.129 C  
DOCKED: BRANCH  39  40
DOCKED: ATOM     40  C18 UNL     1       5.509  -4.725  -1.053 +0.00 +0.00    +0.143 C  
DOCKED: BRANCH  40  41
DOCKED: ATOM     41  O4  UNL     1       5.864  -4.259  -2.353 +0.00 -0.00    -0.389 OA 
DOCKED: ATOM     42  H34 UNL     1       6.835  -4.206  -2.412 +0.00 +0.00    +0.210 HD 
DOCKED: ENDBRANCH  40  41
DOCKED: BRANCH  40  43
DOCKED: ATOM     43  C13 UNL     1       6.753  -5.193  -0.224 +0.00 +0.00    +0.102 C  
DOCKED: BRANCH  43  46
DOCKED: ATOM     44  C12 UNL     1       9.207  -5.590  -0.594 +0.00 +0.00    +0.234 C  
DOCKED: ATOM     45  O3  UNL     1       9.340  -6.065   0.536 +0.00 -0.00    -0.274 OA 
DOCKED: ATOM     46  N3  UNL     1       7.985  -5.142  -1.052 +0.00 -0.00    -0.308 N  
DOCKED: ATOM     47  H22 UNL     1       7.902  -4.895  -2.038 +0.00 +0.00    +0.149 HD 
DOCKED: BRANCH  44  48
DOCKED: ATOM     48  C4  UNL     1      10.444  -5.236  -1.438 +0.00 +0.00    +0.160 C  
DOCKED: BRANCH  48  49
DOCKED: ATOM     49  N1  UNL     1      10.848  -3.824  -1.451 +0.00 -0.00    -0.302 N  
DOCKED: ATOM     50  C5  UNL     1       9.970  -2.869  -1.917 +0.00 +0.00    +0.234 C  
DOCKED: ATOM     51  O1  UNL     1       8.785  -3.145  -2.125 +0.00 -0.00    -0.274 OA 
DOCKED: ATOM     52  H9  UNL     1      11.797  -3.567  -1.208 +0.00 +0.00    +0.150 HD 
DOCKED: BRANCH  50  53
DOCKED: ATOM     53  C6  UNL     1      10.514  -1.443  -2.199 +0.00 +0.00    +0.161 C  
DOCKED: BRANCH  53  54
DOCKED: ATOM     54  N2  UNL     1      10.544  -0.553  -1.035 +0.00 -0.00    -0.304 N  
DOCKED: ATOM     55  C7  UNL     1      11.105  -0.987   0.148 +0.00 +0.00    +0.211 C  
DOCKED: ATOM     56  C8  UNL     1      10.703  -0.189   1.360 +0.00 +0.00    +0.109 C  
DOCKED: ATOM     57  O2  UNL     1      11.845  -1.966   0.240 +0.00 -0.00    -0.276 OA 
DOCKED: ATOM     58  H11 UNL     1       9.858   0.188  -1.007 +0.00 +0.00    +0.149 HD 
DOCKED: ENDBRANCH  53  54
DOCKED: BRANCH  53  59
DOCKED: ATOM     59  C9  UNL     1      11.925  -1.576  -2.861 +0.00 +0.00    +0.012 C  
DOCKED: ATOM     60  C10 UNL     1      11.921  -2.513  -4.072 +0.00 +0.00    +0.009 C  
DOCKED: ATOM     61  C11 UNL     1      12.533  -0.224  -3.254 +0.00 +0.00    +0.009 C  
DOCKED: ENDBRANCH  53  59
DOCKED: ENDBRANCH  50  53
DOCKED: ENDBRANCH  48  49
DOCKED: BRANCH  48  62
DOCKED: ATOM     62  C3  UNL     1      11.617  -6.123  -0.982 +0.00 +0.00    +0.042 C  
DOCKED: BRANCH  62  63
DOCKED: ATOM     63  C2  UNL     1      12.090  -7.041  -2.102 +0.00 +0.00    +0.071 C  
DOCKED: BRANCH  63  65
DOCKED: ATOM     64  C1  UNL     1      11.362  -6.008  -4.542 +0.00 +0.00    +0.084 C  
DOCKED: ATOM     65  S1  UNL     1      10.777  -7.241  -3.347 +0.00 -0.00    -0.164 S  
DOCKED: ENDBRANCH  63  65
DOCKED: ENDBRANCH  62  63
DOCKED: ENDBRANCH  48  62
DOCKED: ENDBRANCH  44  48
DOCKED: ENDBRANCH  43  46
DOCKED: BRANCH  43  66
DOCKED: ATOM     66  C14 UNL     1       6.956  -4.435   1.112 +0.00 +0.00    +0.028 C  
DOCKED: BRANCH  66  67
DOCKED: ATOM     67  C15 UNL     1       7.806  -3.143   1.071 +0.00 -0.00    -0.015 C  
DOCKED: ATOM     68  C16 UNL     1       9.105  -3.363   1.852 +0.00 +0.00    +0.007 C  
DOCKED: ATOM     69  C17 UNL     1       7.086  -1.915   1.619 +0.00 +0.00    +0.007 C  
DOCKED: ENDBRANCH  66  67
DOCKED: ENDBRANCH  43  66
DOCKED: ENDBRANCH  40  43
DOCKED: ENDBRANCH  39  40
DOCKED: ENDBRANCH  35  39
DOCKED: ENDBRANCH   1  37
DOCKED: BRANCH   1  70
DOCKED: ATOM     70  C40 UNL     1       7.285   0.202  -1.345 +0.00 +0.00    +0.141 C  
DOCKED: ATOM     71  C41 UNL     1       6.472   1.320  -0.713 +0.00 +0.00    +0.040 C  
DOCKED: BRANCH  70  72
DOCKED: ATOM     72  O13 UNL     1       8.282   0.777  -2.205 +0.00 -0.00    -0.390 OA 
DOCKED: ATOM     73  H65 UNL     1       8.726   0.029  -2.651 +0.00 +0.00    +0.210 HD 
DOCKED: ENDBRANCH  70  72
DOCKED: ENDBRANCH   1  70
DOCKED: TORSDOF 32
DOCKED: TER
DOCKED: ENDMDL
________________________________________________________________________________


    FINAL DOCKED STATE:
    ________________________


Run:   10 / 20
Time taken for this run:   5.815s

DOCKED: MODEL        10
DOCKED: USER    Run = 10
DOCKED: USER
DOCKED: USER    Estimated Free Energy of Binding    =  +9.55 kcal/mol  [=(1)+(2)+(3)-(4)]
DOCKED: USER
DOCKED: USER    (1) Final Intermolecular Energy     =  +0.00 kcal/mol
DOCKED: USER        vdW + Hbond + desolv Energy     =  +0.00 kcal/mol
DOCKED: USER        Electrostatic Energy            =  +0.00 kcal/mol
DOCKED: USER        Moving Ligand-Fixed Receptor    =  +0.00 kcal/mol
DOCKED: USER        Moving Ligand-Moving Receptor   =  +0.00 kcal/mol
DOCKED: USER    (2) Final Total Internal Energy     = -24.91 kcal/mol
DOCKED: USER    (3) Torsional Free Energy           =  +9.55 kcal/mol
DOCKED: USER    (4) Unbound System's Energy         = -24.91 kcal/mol
DOCKED: USER
DOCKED: USER
DOCKED: REMARK  Name = ligands/ligand_27.pdb
DOCKED: REMARK  40 active torsions:
DOCKED: REMARK  status: ('A' for Active; 'I' for Inactive)
DOCKED: REMARK    1  A    between atoms: C1_1  and  S1_2
DOCKED: REMARK    2  A    between atoms: S1_2  and  C2_3
DOCKED: REMARK    3  A    between atoms: C2_3  and  C3_4
DOCKED: REMARK    4  A    between atoms: C3_4  and  C4_5
DOCKED: REMARK    5  A    between atoms: C4_5  and  N1_6
DOCKED: REMARK    6  A    between atoms: C4_5  and  C12_17
DOCKED: REMARK    7  A    between atoms: C5_7  and  C6_9
DOCKED: REMARK    8  A    between atoms: C6_9  and  N2_10
DOCKED: REMARK    9  A    between atoms: C6_9  and  C9_14
DOCKED: REMARK   10  A    between atoms: C7_11  and  C8_12
DOCKED: REMARK   11  A    between atoms: C9_14  and  C10_15
DOCKED: REMARK   12  A    between atoms: C9_14  and  C11_16
DOCKED: REMARK   13  A    between atoms: N3_19  and  C13_20
DOCKED: REMARK   14  A    between atoms: C13_20  and  C14_21
DOCKED: REMARK   15  A    between atoms: C13_20  and  C18_25
DOCKED: REMARK   16  A    between atoms: C14_21  and  C15_22
DOCKED: REMARK   17  A    between atoms: C15_22  and  C16_23
DOCKED: REMARK   18  A    between atoms: C15_22  and  C17_24
DOCKED: REMARK   19  A    between atoms: C18_25  and  O4_26
DOCKED: REMARK   20  A    between atoms: C18_25  and  C19_27
DOCKED: REMARK   21  A    between atoms: C19_27  and  C20_28
DOCKED: REMARK   22  A    between atoms: N4_30  and  C21_31
DOCKED: REMARK   23  A    between atoms: C21_31  and  C22_32
DOCKED: REMARK   24  A    between atoms: C21_31  and  C40_60
DOCKED: REMARK   25  A    between atoms: N5_34  and  C23_35
DOCKED: REMARK   26  A    between atoms: C23_35  and  C24_36
DOCKED: REMARK   27  A    between atoms: C23_35  and  C25_37
DOCKED: REMARK   28  A    between atoms: N6_39  and  C26_40
DOCKED: REMARK   29  A    between atoms: C26_40  and  C27_41
DOCKED: REMARK   30  A    between atoms: C26_40  and  C30_46
DOCKED: REMARK   31  A    between atoms: C27_41  and  C28_42
DOCKED: REMARK   32  A    between atoms: C28_42  and  C29_43
DOCKED: REMARK   33  A    between atoms: C29_43  and  O9_45
DOCKED: REMARK   34  A    between atoms: N7_48  and  C31_49
DOCKED: REMARK   35  A    between atoms: C31_49  and  C32_50
DOCKED: REMARK   36  A    between atoms: C31_49  and  C39_57
DOCKED: REMARK   37  A    between atoms: C32_50  and  C33_51
DOCKED: REMARK   38  A    between atoms: C39_57  and  O12_59
DOCKED: REMARK   39  A    between atoms: C40_60  and  C41_61
DOCKED: REMARK   40  A    between atoms: C40_60  and  O13_62
DOCKED: REMARK                            x       y       z     vdW  Elec       q    Type
DOCKED: REMARK                         _______ _______ _______ _____ _____    ______ ____
DOCKED: USER                              x       y       z     vdW  Elec       q    Type
DOCKED: USER                           _______ _______ _______ _____ _____    ______ ____
DOCKED: ROOT
DOCKED: ATOM      1  C21 UNL     1       8.704  -5.702   1.808 +0.00 +0.00    +0.187 C  
DOCKED: ENDROOT
DOCKED: BRANCH   1   2
DOCKED: ATOM      2  C22 UNL     1      10.093  -6.269   1.461 +0.00 +0.00    +0.236 C  
DOCKED: ATOM      3  O6  UNL     1      10.955  -5.598   0.882 +0.00 -0.00    -0.274 OA 
DOCKED: ATOM      4  N5  UNL     1      10.264  -7.623   1.667 +0.00 -0.00    -0.303 N  
DOCKED: ATOM      5  H39 UNL     1       9.505  -8.141   2.115 +0.00 +0.00    +0.149 HD 
DOCKED: BRANCH   4   6
DOCKED: ATOM      6  C23 UNL     1      11.522  -8.285   1.329 +0.00 +0.00    +0.156 C  
DOCKED: ATOM      7  C24 UNL     1      12.702  -7.566   1.970 +0.00 +0.00    +0.038 C  
DOCKED: BRANCH   6   8
DOCKED: ATOM      8  C25 UNL     1      11.494  -9.746   1.804 +0.00 +0.00    +0.234 C  
DOCKED: ATOM      9  O7  UNL     1      12.494 -10.460   1.830 +0.00 -0.00    -0.274 OA 
DOCKED: ATOM     10  N6  UNL     1      10.293 -10.169   2.323 +0.00 -0.00    -0.302 N  
DOCKED: ATOM     11  H44 UNL     1       9.506  -9.531   2.239 +0.00 +0.00    +0.150 HD 
DOCKED: BRANCH  10  12
DOCKED: ATOM     12  C26 UNL     1      10.121 -11.505   2.868 +0.00 +0.00    +0.159 C  
DOCKED: BRANCH  12  13
DOCKED: ATOM     13  C30 UNL     1       8.613 -11.882   2.936 +0.00 +0.00    +0.234 C  
DOCKED: ATOM     14  O10 UNL     1       8.136 -12.864   2.362 +0.00 -0.00    -0.274 OA 
DOCKED: ATOM     15  N7  UNL     1       7.847 -11.002   3.651 +0.00 -0.00    -0.301 N  
DOCKED: ATOM     16  H51 UNL     1       8.319 -10.294   4.224 +0.00 +0.00    +0.150 HD 
DOCKED: BRANCH  15  17
DOCKED: ATOM     17  C31 UNL     1       6.385 -11.085   3.757 +0.00 +0.00    +0.186 C  
DOCKED: BRANCH  17  18
DOCKED: ATOM     18  C39 UNL     1       5.902  -9.809   4.449 +0.00 +0.00    +0.326 C  
DOCKED: ATOM     19  O11 UNL     1       4.877  -9.685   5.101 +0.00 -0.00    -0.249 OA 
DOCKED: BRANCH  18  20
DOCKED: ATOM     20  O12 UNL     1       6.763  -8.784   4.308 +0.00 -0.00    -0.479 OA 
DOCKED: ATOM     21  H60 UNL     1       7.494  -8.953   4.938 +0.00 +0.00    +0.295 HD 
DOCKED: ENDBRANCH  18  20
DOCKED: ENDBRANCH  17  18
DOCKED: BRANCH  17  22
DOCKED: ATOM     22  C32 UNL     1       5.962 -12.324   4.548 +0.00 +0.00    +0.069 C  
DOCKED: BRANCH  22  23
DOCKED: ATOM     23  C33 UNL     1       6.989 -12.764   5.561 +0.00 -0.00    -0.045 A  
DOCKED: ATOM     24  C34 UNL     1       7.730 -13.939   5.354 +0.00 +0.00    +0.004 A  
DOCKED: ATOM     25  C35 UNL     1       8.685 -14.349   6.290 +0.00 +0.00    +0.000 A  
DOCKED: ATOM     26  C36 UNL     1       8.914 -13.587   7.435 +0.00 +0.00    +0.000 A  
DOCKED: ATOM     27  C37 UNL     1       8.187 -12.419   7.648 +0.00 +0.00    +0.000 A  
DOCKED: ATOM     28  C38 UNL     1       7.228 -12.006   6.717 +0.00 +0.00    +0.004 A  
DOCKED: ENDBRANCH  22  23
DOCKED: ENDBRANCH  17  22
DOCKED: ENDBRANCH  15  17
DOCKED: ENDBRANCH  12  13
DOCKED: BRANCH  12  29
DOCKED: ATOM     29  C27 UNL     1      10.751 -11.656   4.260 +0.00 +0.00    +0.043 C  
DOCKED: BRANCH  29  30
DOCKED: ATOM     30  C28 UNL     1      11.072 -10.317   4.914 +0.00 +0.00    +0.123 C  
DOCKED: BRANCH  30  31
DOCKED: ATOM     31  C29 UNL     1       9.811  -9.552   5.198 +0.00 +0.00    +0.305 C  
DOCKED: ATOM     32  O8  UNL     1       9.109  -9.638   6.194 +0.00 -0.00    -0.251 OA 
DOCKED: BRANCH  31  33
DOCKED: ATOM     33  O9  UNL     1       9.536  -8.650   4.235 +0.00 -0.00    -0.481 OA 
DOCKED: ATOM     34  H50 UNL     1       8.807  -8.108   4.606 +0.00 +0.00    +0.295 HD 
DOCKED: ENDBRANCH  31  33
DOCKED: ENDBRANCH  30  31
DOCKED: ENDBRANCH  29  30
DOCKED: ENDBRANCH  12  29
DOCKED: ENDBRANCH  10  12
DOCKED: ENDBRANCH   6   8
DOCKED: ENDBRANCH   4   6
DOCKED: ENDBRANCH   1   2
DOCKED: BRANCH   1  37
DOCKED: ATOM     35  C20 UNL     1       7.799  -7.094  -0.012 +0.00 +0.00    +0.216 C  
DOCKED: ATOM     36  O5  UNL     1       8.628  -6.672  -0.815 +0.00 -0.00    -0.276 OA 
DOCKED: ATOM     37  N4  UNL     1       7.707  -6.634   1.274 +0.00 -0.00    -0.302 N  
DOCKED: ATOM     38  H37 UNL     1       6.952  -6.948   1.871 +0.00 +0.00    +0.150 HD 
DOCKED: BRANCH  35  39
DOCKED: ATOM     39  C19 UNL     1       6.844  -8.208  -0.368 +0.00 +0.00    +0.129 C  
DOCKED: BRANCH  39  40
DOCKED: ATOM     40  C18 UNL     1       6.471  -9.059   0.858 +0.00 +0.00    +0.143 C  
DOCKED: BRANCH  40  41
DOCKED: ATOM     41  O4  UNL     1       7.515  -9.017   1.828 +0.00 -0.00    -0.389 OA 
DOCKED: ATOM     42  H34 UNL     1       7.248  -8.418   2.549 +0.00 +0.00    +0.210 HD 
DOCKED: ENDBRANCH  40  41
DOCKED: BRANCH  40  43
DOCKED: ATOM     43  C13 UNL     1       5.075  -8.683   1.463 +0.00 +0.00    +0.102 C  
DOCKED: BRANCH  43  46
DOCKED: ATOM     44  C12 UNL     1       4.153  -7.197   3.268 +0.00 +0.00    +0.234 C  
DOCKED: ATOM     45  O3  UNL     1       3.000  -7.568   3.037 +0.00 -0.00    -0.274 OA 
DOCKED: ATOM     46  N3  UNL     1       5.227  -7.687   2.554 +0.00 -0.00    -0.308 N  
DOCKED: ATOM     47  H22 UNL     1       6.166  -7.457   2.879 +0.00 +0.00    +0.149 HD 
DOCKED: BRANCH  44  48
DOCKED: ATOM     48  C4  UNL     1       4.411  -5.981   4.175 +0.00 +0.00    +0.160 C  
DOCKED: BRANCH  48  49
DOCKED: ATOM     49  N1  UNL     1       5.323  -6.189   5.308 +0.00 -0.00    -0.302 N  
DOCKED: ATOM     50  C5  UNL     1       5.247  -5.357   6.404 +0.00 +0.00    +0.234 C  
DOCKED: ATOM     51  O1  UNL     1       4.297  -4.581   6.547 +0.00 -0.00    -0.274 OA 
DOCKED: ATOM     52  H9  UNL     1       6.063  -6.877   5.241 +0.00 +0.00    +0.150 HD 
DOCKED: BRANCH  50  53
DOCKED: ATOM     53  C6  UNL     1       6.397  -5.402   7.445 +0.00 +0.00    +0.161 C  
DOCKED: BRANCH  53  54
DOCKED: ATOM     54  N2  UNL     1       6.590  -6.699   8.096 +0.00 -0.00    -0.304 N  
DOCKED: ATOM     55  C7  UNL     1       7.083  -7.765   7.374 +0.00 +0.00    +0.211 C  
DOCKED: ATOM     56  C8  UNL     1       6.834  -9.113   7.999 +0.00 +0.00    +0.109 C  
DOCKED: ATOM     57  O2  UNL     1       7.649  -7.657   6.287 +0.00 -0.00    -0.276 OA 
DOCKED: ATOM     58  H11 UNL     1       6.038  -6.883   8.923 +0.00 +0.00    +0.149 HD 
DOCKED: ENDBRANCH  53  54
DOCKED: BRANCH  53  59
DOCKED: ATOM     59  C9  UNL     1       7.708  -4.904   6.750 +0.00 +0.00    +0.012 C  
DOCKED: ATOM     60  C10 UNL     1       7.540  -3.532   6.090 +0.00 +0.00    +0.009 C  
DOCKED: ATOM     61  C11 UNL     1       8.915  -4.880   7.696 +0.00 +0.00    +0.009 C  
DOCKED: ENDBRANCH  53  59
DOCKED: ENDBRANCH  50  53
DOCKED: ENDBRANCH  48  49
DOCKED: BRANCH  48  62
DOCKED: ATOM     62  C3  UNL     1       4.904  -4.814   3.300 +0.00 +0.00    +0.042 C  
DOCKED: BRANCH  62  63
DOCKED: ATOM     63  C2  UNL     1       3.738  -4.024   2.718 +0.00 +0.00    +0.071 C  
DOCKED: BRANCH  63  65
DOCKED: ATOM     64  C1  UNL     1       5.943  -3.835   1.088 +0.00 +0.00    +0.084 C  
DOCKED: ATOM     65  S1  UNL     1       4.212  -3.290   1.121 +0.00 -0.00    -0.164 S  
DOCKED: ENDBRANCH  63  65
DOCKED: ENDBRANCH  62  63
DOCKED: ENDBRANCH  48  62
DOCKED: ENDBRANCH  44  48
DOCKED: ENDBRANCH  43  46
DOCKED: BRANCH  43  66
DOCKED: ATOM     66  C14 UNL     1       4.031  -8.206   0.423 +0.00 +0.00    +0.028 C  
DOCKED: BRANCH  66  67
DOCKED: ATOM     67  C15 UNL     1       3.919  -6.684   0.180 +0.00 -0.00    -0.015 C  
DOCKED: ATOM     68  C16 UNL     1       2.455  -6.252   0.311 +0.00 +0.00    +0.007 C  
DOCKED: ATOM     69  C17 UNL     1       4.461  -6.235  -1.174 +0.00 +0.00    +0.007 C  
DOCKED: ENDBRANCH  66  67
DOCKED: ENDBRANCH  43  66
DOCKED: ENDBRANCH  40  43
DOCKED: ENDBRANCH  39  40
DOCKED: ENDBRANCH  35  39
DOCKED: ENDBRANCH   1  37
DOCKED: BRANCH   1  70
DOCKED: ATOM     70  C40 UNL     1       8.499  -5.382   3.311 +0.00 +0.00    +0.141 C  
DOCKED: ATOM     71  C41 UNL     1       9.818  -5.231   4.051 +0.00 +0.00    +0.040 C  
DOCKED: BRANCH  70  72
DOCKED: ATOM     72  O13 UNL     1       7.713  -6.399   3.955 +0.00 -0.00    -0.390 OA 
DOCKED: ATOM     73  H65 UNL     1       7.998  -7.251   3.572 +0.00 +0.00    +0.210 HD 
DOCKED: ENDBRANCH  70  72
DOCKED: ENDBRANCH   1  70
DOCKED: TORSDOF 32
DOCKED: TER
DOCKED: ENDMDL
________________________________________________________________________________


    FINAL DOCKED STATE:
    ________________________


Run:   11 / 20
Time taken for this run:   5.815s

DOCKED: MODEL        11
DOCKED: USER    Run = 11
DOCKED: USER
DOCKED: USER    Estimated Free Energy of Binding    =  +9.55 kcal/mol  [=(1)+(2)+(3)-(4)]
DOCKED: USER
DOCKED: USER    (1) Final Intermolecular Energy     =  +0.00 kcal/mol
DOCKED: USER        vdW + Hbond + desolv Energy     =  +0.00 kcal/mol
DOCKED: USER        Electrostatic Energy            =  +0.00 kcal/mol
DOCKED: USER        Moving Ligand-Fixed Receptor    =  +0.00 kcal/mol
DOCKED: USER        Moving Ligand-Moving Receptor   =  +0.00 kcal/mol
DOCKED: USER    (2) Final Total Internal Energy     = -25.44 kcal/mol
DOCKED: USER    (3) Torsional Free Energy           =  +9.55 kcal/mol
DOCKED: USER    (4) Unbound System's Energy         = -25.44 kcal/mol
DOCKED: USER
DOCKED: USER
DOCKED: REMARK  Name = ligands/ligand_27.pdb
DOCKED: REMARK  40 active torsions:
DOCKED: REMARK  status: ('A' for Active; 'I' for Inactive)
DOCKED: REMARK    1  A    between atoms: C1_1  and  S1_2
DOCKED: REMARK    2  A    between atoms: S1_2  and  C2_3
DOCKED: REMARK    3  A    between atoms: C2_3  and  C3_4
DOCKED: REMARK    4  A    between atoms: C3_4  and  C4_5
DOCKED: REMARK    5  A    between atoms: C4_5  and  N1_6
DOCKED: REMARK    6  A    between atoms: C4_5  and  C12_17
DOCKED: REMARK    7  A    between atoms: C5_7  and  C6_9
DOCKED: REMARK    8  A    between atoms: C6_9  and  N2_10
DOCKED: REMARK    9  A    between atoms: C6_9  and  C9_14
DOCKED: REMARK   10  A    between atoms: C7_11  and  C8_12
DOCKED: REMARK   11  A    between atoms: C9_14  and  C10_15
DOCKED: REMARK   12  A    between atoms: C9_14  and  C11_16
DOCKED: REMARK   13  A    between atoms: N3_19  and  C13_20
DOCKED: REMARK   14  A    between atoms: C13_20  and  C14_21
DOCKED: REMARK   15  A    between atoms: C13_20  and  C18_25
DOCKED: REMARK   16  A    between atoms: C14_21  and  C15_22
DOCKED: REMARK   17  A    between atoms: C15_22  and  C16_23
DOCKED: REMARK   18  A    between atoms: C15_22  and  C17_24
DOCKED: REMARK   19  A    between atoms: C18_25  and  O4_26
DOCKED: REMARK   20  A    between atoms: C18_25  and  C19_27
DOCKED: REMARK   21  A    between atoms: C19_27  and  C20_28
DOCKED: REMARK   22  A    between atoms: N4_30  and  C21_31
DOCKED: REMARK   23  A    between atoms: C21_31  and  C22_32
DOCKED: REMARK   24  A    between atoms: C21_31  and  C40_60
DOCKED: REMARK   25  A    between atoms: N5_34  and  C23_35
DOCKED: REMARK   26  A    between atoms: C23_35  and  C24_36
DOCKED: REMARK   27  A    between atoms: C23_35  and  C25_37
DOCKED: REMARK   28  A    between atoms: N6_39  and  C26_40
DOCKED: REMARK   29  A    between atoms: C26_40  and  C27_41
DOCKED: REMARK   30  A    between atoms: C26_40  and  C30_46
DOCKED: REMARK   31  A    between atoms: C27_41  and  C28_42
DOCKED: REMARK   32  A    between atoms: C28_42  and  C29_43
DOCKED: REMARK   33  A    between atoms: C29_43  and  O9_45
DOCKED: REMARK   34  A    between atoms: N7_48  and  C31_49
DOCKED: REMARK   35  A    between atoms: C31_49  and  C32_50
DOCKED: REMARK   36  A    between atoms: C31_49  and  C39_57
DOCKED: REMARK   37  A    between atoms: C32_50  and  C33_51
DOCKED: REMARK   38  A    between atoms: C39_57  and  O12_59
DOCKED: REMARK   39  A    between atoms: C40_60  and  C41_61
DOCKED: REMARK   40  A    between atoms: C40_60  and  O13_62
DOCKED: REMARK                            x       y       z     vdW  Elec       q    Type
DOCKED: REMARK                         _______ _______ _______ _____ _____    ______ ____
DOCKED: USER                              x       y       z     vdW  Elec       q    Type
DOCKED: USER                           _______ _______ _______ _____ _____    ______ ____
DOCKED: ROOT
DOCKED: ATOM      1  C21 UNL     1      11.242   0.750   1.478 +0.00 +0.00    +0.187 C  
DOCKED: ENDROOT
DOCKED: BRANCH   1   2
DOCKED: ATOM      2  C22 UNL     1      12.155   1.868   0.939 +0.00 +0.00    +0.236 C  
DOCKED: ATOM      3  O6  UNL     1      11.792   3.048   0.881 +0.00 -0.00    -0.274 OA 
DOCKED: ATOM      4  N5  UNL     1      13.335   1.456   0.353 +0.00 -0.00    -0.303 N  
DOCKED: ATOM      5  H39 UNL     1      13.571   0.462   0.394 +0.00 +0.00    +0.149 HD 
DOCKED: BRANCH   4   6
DOCKED: ATOM      6  C23 UNL     1      14.261   2.420  -0.238 +0.00 +0.00    +0.156 C  
DOCKED: ATOM      7  C24 UNL     1      15.132   3.063   0.834 +0.00 +0.00    +0.038 C  
DOCKED: BRANCH   6   8
DOCKED: ATOM      8  C25 UNL     1      15.156   1.724  -1.274 +0.00 +0.00    +0.234 C  
DOCKED: ATOM      9  O7  UNL     1      16.136   2.265  -1.783 +0.00 -0.00    -0.274 OA 
DOCKED: ATOM     10  N6  UNL     1      14.864   0.401  -1.505 +0.00 -0.00    -0.302 N  
DOCKED: ATOM     11  H44 UNL     1      14.021   0.034  -1.071 +0.00 +0.00    +0.150 HD 
DOCKED: BRANCH  10  12
DOCKED: ATOM     12  C26 UNL     1      15.654  -0.412  -2.414 +0.00 +0.00    +0.159 C  
DOCKED: BRANCH  12  13
DOCKED: ATOM     13  C30 UNL     1      14.939  -1.762  -2.709 +0.00 +0.00    +0.234 C  
DOCKED: ATOM     14  O10 UNL     1      14.249  -1.954  -3.714 +0.00 -0.00    -0.274 OA 
DOCKED: ATOM     15  N7  UNL     1      15.100  -2.708  -1.734 +0.00 -0.00    -0.301 N  
DOCKED: ATOM     16  H51 UNL     1      15.800  -2.543  -1.002 +0.00 +0.00    +0.150 HD 
DOCKED: BRANCH  15  17
DOCKED: ATOM     17  C31 UNL     1      14.427  -4.012  -1.736 +0.00 +0.00    +0.186 C  
DOCKED: BRANCH  17  18
DOCKED: ATOM     18  C39 UNL     1      13.692  -4.151  -0.402 +0.00 +0.00    +0.326 C  
DOCKED: ATOM     19  O11 UNL     1      13.129  -5.153   0.012 +0.00 -0.00    -0.249 OA 
DOCKED: BRANCH  18  20
DOCKED: ATOM     20  O12 UNL     1      13.751  -3.031   0.342 +0.00 -0.00    -0.479 OA 
DOCKED: ATOM     21  H60 UNL     1      13.481  -2.297  -0.248 +0.00 +0.00    +0.295 HD 
DOCKED: ENDBRANCH  18  20
DOCKED: ENDBRANCH  17  18
DOCKED: BRANCH  17  22
DOCKED: ATOM     22  C32 UNL     1      15.433  -5.148  -1.923 +0.00 +0.00    +0.069 C  
DOCKED: BRANCH  22  23
DOCKED: ATOM     23  C33 UNL     1      16.738  -4.914  -1.205 +0.00 -0.00    -0.045 A  
DOCKED: ATOM     24  C34 UNL     1      17.796  -4.257  -1.854 +0.00 +0.00    +0.004 A  
DOCKED: ATOM     25  C35 UNL     1      19.007  -4.035  -1.190 +0.00 +0.00    +0.000 A  
DOCKED: ATOM     26  C36 UNL     1      19.169  -4.459   0.128 +0.00 +0.00    +0.000 A  
DOCKED: ATOM     27  C37 UNL     1      18.126  -5.108   0.781 +0.00 +0.00    +0.000 A  
DOCKED: ATOM     28  C38 UNL     1      16.914  -5.336   0.121 +0.00 +0.00    +0.004 A  
DOCKED: ENDBRANCH  22  23
DOCKED: ENDBRANCH  17  22
DOCKED: ENDBRANCH  15  17
DOCKED: ENDBRANCH  12  13
DOCKED: BRANCH  12  29
DOCKED: ATOM     29  C27 UNL     1      17.066  -0.687  -1.877 +0.00 +0.00    +0.043 C  
DOCKED: BRANCH  29  30
DOCKED: ATOM     30  C28 UNL     1      17.199  -0.403  -0.385 +0.00 +0.00    +0.123 C  
DOCKED: BRANCH  30  31
DOCKED: ATOM     31  C29 UNL     1      16.391  -1.385   0.414 +0.00 +0.00    +0.305 C  
DOCKED: ATOM     32  O8  UNL     1      16.806  -2.374   0.999 +0.00 -0.00    -0.251 OA 
DOCKED: BRANCH  31  33
DOCKED: ATOM     33  O9  UNL     1      15.095  -1.025   0.500 +0.00 -0.00    -0.481 OA 
DOCKED: ATOM     34  H50 UNL     1      14.661  -1.772   0.967 +0.00 +0.00    +0.295 HD 
DOCKED: ENDBRANCH  31  33
DOCKED: ENDBRANCH  30  31
DOCKED: ENDBRANCH  29  30
DOCKED: ENDBRANCH  12  29
DOCKED: ENDBRANCH  10  12
DOCKED: ENDBRANCH   6   8
DOCKED: ENDBRANCH   4   6
DOCKED: ENDBRANCH   1   2
DOCKED: BRANCH   1  37
DOCKED: ATOM     35  C20 UNL     1      11.108  -0.427  -0.682 +0.00 +0.00    +0.216 C  
DOCKED: ATOM     36  O5  UNL     1      12.331  -0.507  -0.772 +0.00 -0.00    -0.276 OA 
DOCKED: ATOM     37  N4  UNL     1      10.478   0.227   0.342 +0.00 -0.00    -0.302 N  
DOCKED: ATOM     38  H37 UNL     1       9.472   0.341   0.327 +0.00 +0.00    +0.150 HD 
DOCKED: BRANCH  35  39
DOCKED: ATOM     39  C19 UNL     1      10.192  -1.103  -1.675 +0.00 +0.00    +0.129 C  
DOCKED: BRANCH  39  40
DOCKED: ATOM     40  C18 UNL     1      10.492  -2.607  -1.801 +0.00 +0.00    +0.143 C  
DOCKED: BRANCH  40  41
DOCKED: ATOM     41  O4  UNL     1      11.898  -2.827  -1.898 +0.00 -0.00    -0.389 OA 
DOCKED: ATOM     42  H34 UNL     1      12.334  -2.396  -1.141 +0.00 +0.00    +0.210 HD 
DOCKED: ENDBRANCH  40  41
DOCKED: BRANCH  40  43
DOCKED: ATOM     43  C13 UNL     1       9.829  -3.462  -0.667 +0.00 +0.00    +0.102 C  
DOCKED: BRANCH  43  46
DOCKED: ATOM     44  C12 UNL     1      10.557  -4.576   1.465 +0.00 +0.00    +0.234 C  
DOCKED: ATOM     45  O3  UNL     1       9.575  -5.321   1.455 +0.00 -0.00    -0.274 OA 
DOCKED: ATOM     46  N3  UNL     1      10.765  -3.641   0.471 +0.00 -0.00    -0.308 N  
DOCKED: ATOM     47  H22 UNL     1      11.661  -3.154   0.449 +0.00 +0.00    +0.149 HD 
DOCKED: BRANCH  44  48
DOCKED: ATOM     48  C4  UNL     1      11.446  -4.477   2.717 +0.00 +0.00    +0.160 C  
DOCKED: BRANCH  48  49
DOCKED: ATOM     49  N1  UNL     1      12.896  -4.409   2.490 +0.00 -0.00    -0.302 N  
DOCKED: ATOM     50  C5  UNL     1      13.744  -5.150   3.284 +0.00 +0.00    +0.234 C  
DOCKED: ATOM     51  O1  UNL     1      13.306  -6.025   4.036 +0.00 -0.00    -0.274 OA 
DOCKED: ATOM     52  H9  UNL     1      13.272  -3.750   1.819 +0.00 +0.00    +0.150 HD 
DOCKED: BRANCH  50  53
DOCKED: ATOM     53  C6  UNL     1      15.264  -4.841   3.227 +0.00 +0.00    +0.161 C  
DOCKED: BRANCH  53  54
DOCKED: ATOM     54  N2  UNL     1      15.679  -3.647   3.967 +0.00 -0.00    -0.304 N  
DOCKED: ATOM     55  C7  UNL     1      15.367  -2.395   3.482 +0.00 +0.00    +0.211 C  
DOCKED: ATOM     56  C8  UNL     1      16.191  -1.276   4.064 +0.00 +0.00    +0.109 C  
DOCKED: ATOM     57  O2  UNL     1      14.517  -2.184   2.619 +0.00 -0.00    -0.276 OA 
DOCKED: ATOM     58  H11 UNL     1      16.468  -3.746   4.592 +0.00 +0.00    +0.149 HD 
DOCKED: ENDBRANCH  53  54
DOCKED: BRANCH  53  59
DOCKED: ATOM     59  C9  UNL     1      16.043  -6.113   3.699 +0.00 +0.00    +0.012 C  
DOCKED: ATOM     60  C10 UNL     1      15.917  -7.280   2.716 +0.00 +0.00    +0.009 C  
DOCKED: ATOM     61  C11 UNL     1      17.524  -5.837   3.987 +0.00 +0.00    +0.009 C  
DOCKED: ENDBRANCH  53  59
DOCKED: ENDBRANCH  50  53
DOCKED: ENDBRANCH  48  49
DOCKED: BRANCH  48  62
DOCKED: ATOM     62  C3  UNL     1      10.979  -3.271   3.553 +0.00 +0.00    +0.042 C  
DOCKED: BRANCH  62  63
DOCKED: ATOM     63  C2  UNL     1      11.269  -3.475   5.035 +0.00 +0.00    +0.071 C  
DOCKED: BRANCH  63  65
DOCKED: ATOM     64  C1  UNL     1      13.600  -3.480   6.490 +0.00 +0.00    +0.084 C  
DOCKED: ATOM     65  S1  UNL     1      12.549  -2.306   5.591 +0.00 -0.00    -0.164 S  
DOCKED: ENDBRANCH  63  65
DOCKED: ENDBRANCH  62  63
DOCKED: ENDBRANCH  48  62
DOCKED: ENDBRANCH  44  48
DOCKED: ENDBRANCH  43  46
DOCKED: BRANCH  43  66
DOCKED: ATOM     66  C14 UNL     1       8.460  -2.926  -0.176 +0.00 +0.00    +0.028 C  
DOCKED: BRANCH  66  67
DOCKED: ATOM     67  C15 UNL     1       8.449  -2.123   1.146 +0.00 -0.00    -0.015 C  
DOCKED: ATOM     68  C16 UNL     1       7.861  -2.990   2.263 +0.00 +0.00    +0.007 C  
DOCKED: ATOM     69  C17 UNL     1       7.676  -0.811   1.062 +0.00 +0.00    +0.007 C  
DOCKED: ENDBRANCH  66  67
DOCKED: ENDBRANCH  43  66
DOCKED: ENDBRANCH  40  43
DOCKED: ENDBRANCH  39  40
DOCKED: ENDBRANCH  35  39
DOCKED: ENDBRANCH   1  37
DOCKED: BRANCH   1  70
DOCKED: ATOM     70  C40 UNL     1      11.981  -0.351   2.279 +0.00 +0.00    +0.141 C  
DOCKED: ATOM     71  C41 UNL     1      13.110   0.213   3.126 +0.00 +0.00    +0.040 C  
DOCKED: BRANCH  70  72
DOCKED: ATOM     72  O13 UNL     1      12.510  -1.361   1.404 +0.00 -0.00    -0.390 OA 
DOCKED: ATOM     73  H65 UNL     1      13.381  -1.036   1.103 +0.00 +0.00    +0.210 HD 
DOCKED: ENDBRANCH  70  72
DOCKED: ENDBRANCH   1  70
DOCKED: TORSDOF 32
DOCKED: TER
DOCKED: ENDMDL
________________________________________________________________________________


    FINAL DOCKED STATE:
    ________________________


Run:   12 / 20
Time taken for this run:   5.815s

DOCKED: MODEL        12
DOCKED: USER    Run = 12
DOCKED: USER
DOCKED: USER    Estimated Free Energy of Binding    =  +9.55 kcal/mol  [=(1)+(2)+(3)-(4)]
DOCKED: USER
DOCKED: USER    (1) Final Intermolecular Energy     =  +0.00 kcal/mol
DOCKED: USER        vdW + Hbond + desolv Energy     =  +0.00 kcal/mol
DOCKED: USER        Electrostatic Energy            =  +0.00 kcal/mol
DOCKED: USER        Moving Ligand-Fixed Receptor    =  +0.00 kcal/mol
DOCKED: USER        Moving Ligand-Moving Receptor   =  +0.00 kcal/mol
DOCKED: USER    (2) Final Total Internal Energy     = -25.04 kcal/mol
DOCKED: USER    (3) Torsional Free Energy           =  +9.55 kcal/mol
DOCKED: USER    (4) Unbound System's Energy         = -25.04 kcal/mol
DOCKED: USER
DOCKED: USER
DOCKED: REMARK  Name = ligands/ligand_27.pdb
DOCKED: REMARK  40 active torsions:
DOCKED: REMARK  status: ('A' for Active; 'I' for Inactive)
DOCKED: REMARK    1  A    between atoms: C1_1  and  S1_2
DOCKED: REMARK    2  A    between atoms: S1_2  and  C2_3
DOCKED: REMARK    3  A    between atoms: C2_3  and  C3_4
DOCKED: REMARK    4  A    between atoms: C3_4  and  C4_5
DOCKED: REMARK    5  A    between atoms: C4_5  and  N1_6
DOCKED: REMARK    6  A    between atoms: C4_5  and  C12_17
DOCKED: REMARK    7  A    between atoms: C5_7  and  C6_9
DOCKED: REMARK    8  A    between atoms: C6_9  and  N2_10
DOCKED: REMARK    9  A    between atoms: C6_9  and  C9_14
DOCKED: REMARK   10  A    between atoms: C7_11  and  C8_12
DOCKED: REMARK   11  A    between atoms: C9_14  and  C10_15
DOCKED: REMARK   12  A    between atoms: C9_14  and  C11_16
DOCKED: REMARK   13  A    between atoms: N3_19  and  C13_20
DOCKED: REMARK   14  A    between atoms: C13_20  and  C14_21
DOCKED: REMARK   15  A    between atoms: C13_20  and  C18_25
DOCKED: REMARK   16  A    between atoms: C14_21  and  C15_22
DOCKED: REMARK   17  A    between atoms: C15_22  and  C16_23
DOCKED: REMARK   18  A    between atoms: C15_22  and  C17_24
DOCKED: REMARK   19  A    between atoms: C18_25  and  O4_26
DOCKED: REMARK   20  A    between atoms: C18_25  and  C19_27
DOCKED: REMARK   21  A    between atoms: C19_27  and  C20_28
DOCKED: REMARK   22  A    between atoms: N4_30  and  C21_31
DOCKED: REMARK   23  A    between atoms: C21_31  and  C22_32
DOCKED: REMARK   24  A    between atoms: C21_31  and  C40_60
DOCKED: REMARK   25  A    between atoms: N5_34  and  C23_35
DOCKED: REMARK   26  A    between atoms: C23_35  and  C24_36
DOCKED: REMARK   27  A    between atoms: C23_35  and  C25_37
DOCKED: REMARK   28  A    between atoms: N6_39  and  C26_40
DOCKED: REMARK   29  A    between atoms: C26_40  and  C27_41
DOCKED: REMARK   30  A    between atoms: C26_40  and  C30_46
DOCKED: REMARK   31  A    between atoms: C27_41  and  C28_42
DOCKED: REMARK   32  A    between atoms: C28_42  and  C29_43
DOCKED: REMARK   33  A    between atoms: C29_43  and  O9_45
DOCKED: REMARK   34  A    between atoms: N7_48  and  C31_49
DOCKED: REMARK   35  A    between atoms: C31_49  and  C32_50
DOCKED: REMARK   36  A    between atoms: C31_49  and  C39_57
DOCKED: REMARK   37  A    between atoms: C32_50  and  C33_51
DOCKED: REMARK   38  A    between atoms: C39_57  and  O12_59
DOCKED: REMARK   39  A    between atoms: C40_60  and  C41_61
DOCKED: REMARK   40  A    between atoms: C40_60  and  O13_62
DOCKED: REMARK                            x       y       z     vdW  Elec       q    Type
DOCKED: REMARK                         _______ _______ _______ _____ _____    ______ ____
DOCKED: USER                              x       y       z     vdW  Elec       q    Type
DOCKED: USER                           _______ _______ _______ _____ _____    ______ ____
DOCKED: ROOT
DOCKED: ATOM      1  C21 UNL     1       8.315  -7.013  -2.039 +0.00 +0.00    +0.187 C  
DOCKED: ENDROOT
DOCKED: BRANCH   1   2
DOCKED: ATOM      2  C22 UNL     1       9.464  -6.433  -2.885 +0.00 +0.00    +0.236 C  
DOCKED: ATOM      3  O6  UNL     1      10.496  -7.070  -3.126 +0.00 -0.00    -0.274 OA 
DOCKED: ATOM      4  N5  UNL     1       9.361  -5.095  -3.211 +0.00 -0.00    -0.303 N  
DOCKED: ATOM      5  H39 UNL     1       8.502  -4.603  -2.956 +0.00 +0.00    +0.149 HD 
DOCKED: BRANCH   4   6
DOCKED: ATOM      6  C23 UNL     1      10.412  -4.419  -3.968 +0.00 +0.00    +0.156 C  
DOCKED: ATOM      7  C24 UNL     1       9.929  -3.067  -4.478 +0.00 +0.00    +0.038 C  
DOCKED: BRANCH   6   8
DOCKED: ATOM      8  C25 UNL     1      11.653  -4.219  -3.086 +0.00 +0.00    +0.234 C  
DOCKED: ATOM      9  O7  UNL     1      12.644  -3.594  -3.457 +0.00 -0.00    -0.274 OA 
DOCKED: ATOM     10  N6  UNL     1      11.534  -4.680  -1.796 +0.00 -0.00    -0.302 N  
DOCKED: ATOM     11  H44 UNL     1      10.698  -5.213  -1.574 +0.00 +0.00    +0.150 HD 
DOCKED: BRANCH  10  12
DOCKED: ATOM     12  C26 UNL     1      12.599  -4.514  -0.821 +0.00 +0.00    +0.159 C  
DOCKED: BRANCH  12  13
DOCKED: ATOM     13  C30 UNL     1      13.618  -5.686  -0.913 +0.00 +0.00    +0.234 C  
DOCKED: ATOM     14  O10 UNL     1      14.776  -5.609  -0.494 +0.00 -0.00    -0.274 OA 
DOCKED: ATOM     15  N7  UNL     1      13.136  -6.801  -1.544 +0.00 -0.00    -0.301 N  
DOCKED: ATOM     16  H51 UNL     1      12.130  -6.859  -1.736 +0.00 +0.00    +0.150 HD 
DOCKED: BRANCH  15  17
DOCKED: ATOM     17  C31 UNL     1      13.947  -7.985  -1.852 +0.00 +0.00    +0.186 C  
DOCKED: BRANCH  17  18
DOCKED: ATOM     18  C39 UNL     1      12.990  -9.098  -2.278 +0.00 +0.00    +0.326 C  
DOCKED: ATOM     19  O11 UNL     1      13.273 -10.075  -2.956 +0.00 -0.00    -0.249 OA 
DOCKED: BRANCH  18  20
DOCKED: ATOM     20  O12 UNL     1      11.747  -8.931  -1.789 +0.00 -0.00    -0.479 OA 
DOCKED: ATOM     21  H60 UNL     1      11.393  -8.122  -2.214 +0.00 +0.00    +0.295 HD 
DOCKED: ENDBRANCH  18  20
DOCKED: ENDBRANCH  17  18
DOCKED: BRANCH  17  22
DOCKED: ATOM     22  C32 UNL     1      14.772  -8.414  -0.638 +0.00 +0.00    +0.069 C  
DOCKED: BRANCH  22  23
DOCKED: ATOM     23  C33 UNL     1      13.951  -9.082   0.436 +0.00 -0.00    -0.045 A  
DOCKED: ATOM     24  C34 UNL     1      13.671 -10.456   0.363 +0.00 +0.00    +0.004 A  
DOCKED: ATOM     25  C35 UNL     1      12.912 -11.079   1.359 +0.00 +0.00    +0.000 A  
DOCKED: ATOM     26  C36 UNL     1      12.433 -10.339   2.439 +0.00 +0.00    +0.000 A  
DOCKED: ATOM     27  C37 UNL     1      12.707  -8.977   2.522 +0.00 +0.00    +0.000 A  
DOCKED: ATOM     28  C38 UNL     1      13.462  -8.348   1.527 +0.00 +0.00    +0.004 A  
DOCKED: ENDBRANCH  22  23
DOCKED: ENDBRANCH  17  22
DOCKED: ENDBRANCH  15  17
DOCKED: ENDBRANCH  12  13
DOCKED: BRANCH  12  29
DOCKED: ATOM     29  C27 UNL     1      12.067  -4.410   0.615 +0.00 +0.00    +0.043 C  
DOCKED: BRANCH  29  30
DOCKED: ATOM     30  C28 UNL     1      11.867  -5.770   1.275 +0.00 +0.00    +0.123 C  
DOCKED: BRANCH  30  31
DOCKED: ATOM     31  C29 UNL     1      10.623  -6.431   0.757 +0.00 +0.00    +0.305 C  
DOCKED: ATOM     32  O8  UNL     1       9.512  -6.405   1.264 +0.00 -0.00    -0.251 OA 
DOCKED: BRANCH  31  33
DOCKED: ATOM     33  O9  UNL     1      10.827  -7.038  -0.430 +0.00 -0.00    -0.481 OA 
DOCKED: ATOM     34  H50 UNL     1      11.190  -7.920  -0.197 +0.00 +0.00    +0.295 HD 
DOCKED: ENDBRANCH  31  33
DOCKED: ENDBRANCH  30  31
DOCKED: ENDBRANCH  29  30
DOCKED: ENDBRANCH  12  29
DOCKED: ENDBRANCH  10  12
DOCKED: ENDBRANCH   6   8
DOCKED: ENDBRANCH   4   6
DOCKED: ENDBRANCH   1   2
DOCKED: BRANCH   1  37
DOCKED: ATOM     35  C20 UNL     1       7.929  -9.116  -0.816 +0.00 +0.00    +0.216 C  
DOCKED: ATOM     36  O5  UNL     1       6.760  -8.823  -0.578 +0.00 -0.00    -0.276 OA 
DOCKED: ATOM     37  N4  UNL     1       8.792  -8.272  -1.462 +0.00 -0.00    -0.302 N  
DOCKED: ATOM     38  H37 UNL     1       9.769  -8.523  -1.557 +0.00 +0.00    +0.150 HD 
DOCKED: BRANCH  35  39
DOCKED: ATOM     39  C19 UNL     1       8.496 -10.470  -0.461 +0.00 +0.00    +0.129 C  
DOCKED: BRANCH  39  40
DOCKED: ATOM     40  C18 UNL     1       9.580 -10.373   0.626 +0.00 +0.00    +0.143 C  
DOCKED: BRANCH  40  41
DOCKED: ATOM     41  O4  UNL     1      10.509  -9.337   0.310 +0.00 -0.00    -0.389 OA 
DOCKED: ATOM     42  H34 UNL     1      10.559  -9.247  -0.659 +0.00 +0.00    +0.210 HD 
DOCKED: ENDBRANCH  40  41
DOCKED: BRANCH  40  43
DOCKED: ATOM     43  C13 UNL     1       8.989 -10.228   2.070 +0.00 +0.00    +0.102 C  
DOCKED: BRANCH  43  46
DOCKED: ATOM     44  C12 UNL     1       9.600  -8.823   4.062 +0.00 +0.00    +0.234 C  
DOCKED: ATOM     45  O3  UNL     1       9.373  -9.755   4.837 +0.00 -0.00    -0.274 OA 
DOCKED: ATOM     46  N3  UNL     1       9.443  -8.961   2.699 +0.00 -0.00    -0.308 N  
DOCKED: ATOM     47  H22 UNL     1       9.781  -8.210   2.097 +0.00 +0.00    +0.149 HD 
DOCKED: BRANCH  44  48
DOCKED: ATOM     48  C4  UNL     1       9.810  -7.398   4.602 +0.00 +0.00    +0.160 C  
DOCKED: BRANCH  48  49
DOCKED: ATOM     49  N1  UNL     1       9.294  -6.299   3.775 +0.00 -0.00    -0.302 N  
DOCKED: ATOM     50  C5  UNL     1       9.783  -5.023   3.957 +0.00 +0.00    +0.234 C  
DOCKED: ATOM     51  O1  UNL     1      10.787  -4.821   4.647 +0.00 -0.00    -0.274 OA 
DOCKED: ATOM     52  H9  UNL     1       8.520  -6.463   3.143 +0.00 +0.00    +0.150 HD 
DOCKED: BRANCH  50  53
DOCKED: ATOM     53  C6  UNL     1       9.026  -3.843   3.293 +0.00 +0.00    +0.161 C  
DOCKED: BRANCH  53  54
DOCKED: ATOM     54  N2  UNL     1       9.368  -3.601   1.890 +0.00 -0.00    -0.304 N  
DOCKED: ATOM     55  C7  UNL     1       9.533  -2.310   1.434 +0.00 +0.00    +0.211 C  
DOCKED: ATOM     56  C8  UNL     1       9.450  -2.159  -0.062 +0.00 +0.00    +0.109 C  
DOCKED: ATOM     57  O2  UNL     1       9.698  -1.338   2.169 +0.00 -0.00    -0.276 OA 
DOCKED: ATOM     58  H11 UNL     1       9.123  -4.325   1.227 +0.00 +0.00    +0.149 HD 
DOCKED: ENDBRANCH  53  54
DOCKED: BRANCH  53  59
DOCKED: ATOM     59  C9  UNL     1       7.490  -4.075   3.482 +0.00 +0.00    +0.012 C  
DOCKED: ATOM     60  C10 UNL     1       6.766  -2.832   4.006 +0.00 +0.00    +0.009 C  
DOCKED: ATOM     61  C11 UNL     1       6.799  -4.578   2.208 +0.00 +0.00    +0.009 C  
DOCKED: ENDBRANCH  53  59
DOCKED: ENDBRANCH  50  53
DOCKED: ENDBRANCH  48  49
DOCKED: BRANCH  48  62
DOCKED: ATOM     62  C3  UNL     1       9.217  -7.321   6.021 +0.00 +0.00    +0.042 C  
DOCKED: BRANCH  62  63
DOCKED: ATOM     63  C2  UNL     1       7.718  -7.591   6.014 +0.00 +0.00    +0.071 C  
DOCKED: BRANCH  63  65
DOCKED: ATOM     64  C1  UNL     1       5.396  -6.414   5.132 +0.00 +0.00    +0.084 C  
DOCKED: ATOM     65  S1  UNL     1       6.798  -6.034   6.220 +0.00 -0.00    -0.164 S  
DOCKED: ENDBRANCH  63  65
DOCKED: ENDBRANCH  62  63
DOCKED: ENDBRANCH  48  62
DOCKED: ENDBRANCH  44  48
DOCKED: ENDBRANCH  43  46
DOCKED: BRANCH  43  66
DOCKED: ATOM     66  C14 UNL     1       7.448 -10.361   2.149 +0.00 +0.00    +0.028 C  
DOCKED: BRANCH  66  67
DOCKED: ATOM     67  C15 UNL     1       6.684  -9.276   2.944 +0.00 -0.00    -0.015 C  
DOCKED: ATOM     68  C16 UNL     1       5.277  -9.783   3.275 +0.00 +0.00    +0.007 C  
DOCKED: ATOM     69  C17 UNL     1       6.584  -7.938   2.219 +0.00 +0.00    +0.007 C  
DOCKED: ENDBRANCH  66  67
DOCKED: ENDBRANCH  43  66
DOCKED: ENDBRANCH  40  43
DOCKED: ENDBRANCH  39  40
DOCKED: ENDBRANCH  35  39
DOCKED: ENDBRANCH   1  37
DOCKED: BRANCH   1  70
DOCKED: ATOM     70  C40 UNL     1       7.738  -6.035  -0.984 +0.00 +0.00    +0.141 C  
DOCKED: ATOM     71  C41 UNL     1       6.371  -5.501  -1.382 +0.00 +0.00    +0.040 C  
DOCKED: BRANCH  70  72
DOCKED: ATOM     72  O13 UNL     1       8.627  -4.928  -0.763 +0.00 -0.00    -0.390 OA 
DOCKED: ATOM     73  H65 UNL     1       9.512  -5.312  -0.605 +0.00 +0.00    +0.210 HD 
DOCKED: ENDBRANCH  70  72
DOCKED: ENDBRANCH   1  70
DOCKED: TORSDOF 32
DOCKED: TER
DOCKED: ENDMDL
________________________________________________________________________________


    FINAL DOCKED STATE:
    ________________________


Run:   13 / 20
Time taken for this run:   5.815s

DOCKED: MODEL        13
DOCKED: USER    Run = 13
DOCKED: USER
DOCKED: USER    Estimated Free Energy of Binding    =  +9.55 kcal/mol  [=(1)+(2)+(3)-(4)]
DOCKED: USER
DOCKED: USER    (1) Final Intermolecular Energy     =  +0.00 kcal/mol
DOCKED: USER        vdW + Hbond + desolv Energy     =  +0.00 kcal/mol
DOCKED: USER        Electrostatic Energy            =  +0.00 kcal/mol
DOCKED: USER        Moving Ligand-Fixed Receptor    =  +0.00 kcal/mol
DOCKED: USER        Moving Ligand-Moving Receptor   =  +0.00 kcal/mol
DOCKED: USER    (2) Final Total Internal Energy     = -24.61 kcal/mol
DOCKED: USER    (3) Torsional Free Energy           =  +9.55 kcal/mol
DOCKED: USER    (4) Unbound System's Energy         = -24.61 kcal/mol
DOCKED: USER
DOCKED: USER
DOCKED: REMARK  Name = ligands/ligand_27.pdb
DOCKED: REMARK  40 active torsions:
DOCKED: REMARK  status: ('A' for Active; 'I' for Inactive)
DOCKED: REMARK    1  A    between atoms: C1_1  and  S1_2
DOCKED: REMARK    2  A    between atoms: S1_2  and  C2_3
DOCKED: REMARK    3  A    between atoms: C2_3  and  C3_4
DOCKED: REMARK    4  A    between atoms: C3_4  and  C4_5
DOCKED: REMARK    5  A    between atoms: C4_5  and  N1_6
DOCKED: REMARK    6  A    between atoms: C4_5  and  C12_17
DOCKED: REMARK    7  A    between atoms: C5_7  and  C6_9
DOCKED: REMARK    8  A    between atoms: C6_9  and  N2_10
DOCKED: REMARK    9  A    between atoms: C6_9  and  C9_14
DOCKED: REMARK   10  A    between atoms: C7_11  and  C8_12
DOCKED: REMARK   11  A    between atoms: C9_14  and  C10_15
DOCKED: REMARK   12  A    between atoms: C9_14  and  C11_16
DOCKED: REMARK   13  A    between atoms: N3_19  and  C13_20
DOCKED: REMARK   14  A    between atoms: C13_20  and  C14_21
DOCKED: REMARK   15  A    between atoms: C13_20  and  C18_25
DOCKED: REMARK   16  A    between atoms: C14_21  and  C15_22
DOCKED: REMARK   17  A    between atoms: C15_22  and  C16_23
DOCKED: REMARK   18  A    between atoms: C15_22  and  C17_24
DOCKED: REMARK   19  A    between atoms: C18_25  and  O4_26
DOCKED: REMARK   20  A    between atoms: C18_25  and  C19_27
DOCKED: REMARK   21  A    between atoms: C19_27  and  C20_28
DOCKED: REMARK   22  A    between atoms: N4_30  and  C21_31
DOCKED: REMARK   23  A    between atoms: C21_31  and  C22_32
DOCKED: REMARK   24  A    between atoms: C21_31  and  C40_60
DOCKED: REMARK   25  A    between atoms: N5_34  and  C23_35
DOCKED: REMARK   26  A    between atoms: C23_35  and  C24_36
DOCKED: REMARK   27  A    between atoms: C23_35  and  C25_37
DOCKED: REMARK   28  A    between atoms: N6_39  and  C26_40
DOCKED: REMARK   29  A    between atoms: C26_40  and  C27_41
DOCKED: REMARK   30  A    between atoms: C26_40  and  C30_46
DOCKED: REMARK   31  A    between atoms: C27_41  and  C28_42
DOCKED: REMARK   32  A    between atoms: C28_42  and  C29_43
DOCKED: REMARK   33  A    between atoms: C29_43  and  O9_45
DOCKED: REMARK   34  A    between atoms: N7_48  and  C31_49
DOCKED: REMARK   35  A    between atoms: C31_49  and  C32_50
DOCKED: REMARK   36  A    between atoms: C31_49  and  C39_57
DOCKED: REMARK   37  A    between atoms: C32_50  and  C33_51
DOCKED: REMARK   38  A    between atoms: C39_57  and  O12_59
DOCKED: REMARK   39  A    between atoms: C40_60  and  C41_61
DOCKED: REMARK   40  A    between atoms: C40_60  and  O13_62
DOCKED: REMARK                            x       y       z     vdW  Elec       q    Type
DOCKED: REMARK                         _______ _______ _______ _____ _____    ______ ____
DOCKED: USER                              x       y       z     vdW  Elec       q    Type
DOCKED: USER                           _______ _______ _______ _____ _____    ______ ____
DOCKED: ROOT
DOCKED: ATOM      1  C21 UNL     1      11.562   2.298  -1.010 +0.00 +0.00    +0.187 C  
DOCKED: ENDROOT
DOCKED: BRANCH   1   2
DOCKED: ATOM      2  C22 UNL     1      10.987   1.541  -2.222 +0.00 +0.00    +0.236 C  
DOCKED: ATOM      3  O6  UNL     1      11.674   1.252  -3.209 +0.00 -0.00    -0.274 OA 
DOCKED: ATOM      4  N5  UNL     1       9.618   1.361  -2.230 +0.00 -0.00    -0.303 N  
DOCKED: ATOM      5  H39 UNL     1       9.091   1.653  -1.405 +0.00 +0.00    +0.149 HD 
DOCKED: BRANCH   4   6
DOCKED: ATOM      6  C23 UNL     1       8.950   0.701  -3.349 +0.00 +0.00    +0.156 C  
DOCKED: ATOM      7  C24 UNL     1       8.871   1.627  -4.557 +0.00 +0.00    +0.038 C  
DOCKED: BRANCH   6   8
DOCKED: ATOM      8  C25 UNL     1       9.706  -0.579  -3.735 +0.00 +0.00    +0.234 C  
DOCKED: ATOM      9  O7  UNL     1       9.430  -1.684  -3.274 +0.00 -0.00    -0.274 OA 
DOCKED: ATOM     10  N6  UNL     1      10.639  -0.429  -4.734 +0.00 -0.00    -0.302 N  
DOCKED: ATOM     11  H44 UNL     1      10.832   0.520  -5.044 +0.00 +0.00    +0.150 HD 
DOCKED: BRANCH  10  12
DOCKED: ATOM     12  C26 UNL     1      11.396  -1.556  -5.252 +0.00 +0.00    +0.159 C  
DOCKED: BRANCH  12  13
DOCKED: ATOM     13  C30 UNL     1      12.530  -1.958  -4.265 +0.00 +0.00    +0.234 C  
DOCKED: ATOM     14  O10 UNL     1      12.845  -3.129  -4.039 +0.00 -0.00    -0.274 OA 
DOCKED: ATOM     15  N7  UNL     1      13.120  -0.900  -3.628 +0.00 -0.00    -0.301 N  
DOCKED: ATOM     16  H51 UNL     1      12.920   0.049  -3.964 +0.00 +0.00    +0.150 HD 
DOCKED: BRANCH  15  17
DOCKED: ATOM     17  C31 UNL     1      14.130  -1.038  -2.571 +0.00 +0.00    +0.186 C  
DOCKED: BRANCH  17  18
DOCKED: ATOM     18  C39 UNL     1      14.419   0.361  -2.028 +0.00 +0.00    +0.326 C  
DOCKED: ATOM     19  O11 UNL     1      14.577   0.663  -0.855 +0.00 -0.00    -0.249 OA 
DOCKED: BRANCH  18  20
DOCKED: ATOM     20  O12 UNL     1      14.533   1.284  -3.002 +0.00 -0.00    -0.479 OA 
DOCKED: ATOM     21  H60 UNL     1      13.733   1.191  -3.560 +0.00 +0.00    +0.295 HD 
DOCKED: ENDBRANCH  18  20
DOCKED: ENDBRANCH  17  18
DOCKED: BRANCH  17  22
DOCKED: ATOM     22  C32 UNL     1      15.405  -1.685  -3.112 +0.00 +0.00    +0.069 C  
DOCKED: BRANCH  22  23
DOCKED: ATOM     23  C33 UNL     1      15.760  -2.976  -2.419 +0.00 -0.00    -0.045 A  
DOCKED: ATOM     24  C34 UNL     1      16.284  -2.960  -1.116 +0.00 +0.00    +0.004 A  
DOCKED: ATOM     25  C35 UNL     1      16.611  -4.156  -0.469 +0.00 +0.00    +0.000 A  
DOCKED: ATOM     26  C36 UNL     1      16.413  -5.377  -1.113 +0.00 +0.00    +0.000 A  
DOCKED: ATOM     27  C37 UNL     1      15.891  -5.404  -2.403 +0.00 +0.00    +0.000 A  
DOCKED: ATOM     28  C38 UNL     1      15.565  -4.211  -3.056 +0.00 +0.00    +0.004 A  
DOCKED: ENDBRANCH  22  23
DOCKED: ENDBRANCH  17  22
DOCKED: ENDBRANCH  15  17
DOCKED: ENDBRANCH  12  13
DOCKED: BRANCH  12  29
DOCKED: ATOM     29  C27 UNL     1      11.998  -1.271  -6.635 +0.00 +0.00    +0.043 C  
DOCKED: BRANCH  29  30
DOCKED: ATOM     30  C28 UNL     1      12.203   0.217  -6.898 +0.00 +0.00    +0.123 C  
DOCKED: BRANCH  30  31
DOCKED: ATOM     31  C29 UNL     1      13.115   0.815  -5.867 +0.00 +0.00    +0.305 C  
DOCKED: ATOM     32  O8  UNL     1      14.264   0.479  -5.619 +0.00 -0.00    -0.251 OA 
DOCKED: BRANCH  31  33
DOCKED: ATOM     33  O9  UNL     1      12.553   1.868  -5.242 +0.00 -0.00    -0.481 OA 
DOCKED: ATOM     34  H50 UNL     1      13.182   2.093  -4.522 +0.00 +0.00    +0.295 HD 
DOCKED: ENDBRANCH  31  33
DOCKED: ENDBRANCH  30  31
DOCKED: ENDBRANCH  29  30
DOCKED: ENDBRANCH  12  29
DOCKED: ENDBRANCH  10  12
DOCKED: ENDBRANCH   6   8
DOCKED: ENDBRANCH   4   6
DOCKED: ENDBRANCH   1   2
DOCKED: BRANCH   1  37
DOCKED: ATOM     35  C20 UNL     1      10.741   0.822   0.783 +0.00 +0.00    +0.216 C  
DOCKED: ATOM     36  O5  UNL     1       9.595   1.252   0.683 +0.00 -0.00    -0.276 OA 
DOCKED: ATOM     37  N4  UNL     1      11.788   1.313   0.051 +0.00 -0.00    -0.302 N  
DOCKED: ATOM     38  H37 UNL     1      12.730   0.986   0.231 +0.00 +0.00    +0.150 HD 
DOCKED: BRANCH  35  39
DOCKED: ATOM     39  C19 UNL     1      11.077  -0.339   1.689 +0.00 +0.00    +0.129 C  
DOCKED: BRANCH  39  40
DOCKED: ATOM     40  C18 UNL     1      10.068  -1.491   1.546 +0.00 +0.00    +0.143 C  
DOCKED: BRANCH  40  41
DOCKED: ATOM     41  O4  UNL     1       8.750  -0.978   1.370 +0.00 -0.00    -0.389 OA 
DOCKED: ATOM     42  H34 UNL     1       8.654  -0.671   0.450 +0.00 +0.00    +0.210 HD 
DOCKED: ENDBRANCH  40  41
DOCKED: BRANCH  40  43
DOCKED: ATOM     43  C13 UNL     1      10.465  -2.518   0.431 +0.00 +0.00    +0.102 C  
DOCKED: BRANCH  43  46
DOCKED: ATOM     44  C12 UNL     1       9.061  -4.115  -0.909 +0.00 +0.00    +0.234 C  
DOCKED: ATOM     45  O3  UNL     1       9.817  -5.054  -0.654 +0.00 -0.00    -0.274 OA 
DOCKED: ATOM     46  N3  UNL     1       9.294  -2.845  -0.423 +0.00 -0.00    -0.308 N  
DOCKED: ATOM     47  H22 UNL     1       8.566  -2.142  -0.543 +0.00 +0.00    +0.149 HD 
DOCKED: BRANCH  44  48
DOCKED: ATOM     48  C4  UNL     1       7.978  -4.261  -1.992 +0.00 +0.00    +0.160 C  
DOCKED: BRANCH  48  49
DOCKED: ATOM     49  N1  UNL     1       7.369  -3.019  -2.485 +0.00 -0.00    -0.302 N  
DOCKED: ATOM     50  C5  UNL     1       6.518  -2.307  -1.667 +0.00 +0.00    +0.234 C  
DOCKED: ATOM     51  O1  UNL     1       6.421  -2.575  -0.466 +0.00 -0.00    -0.274 OA 
DOCKED: ATOM     52  H9  UNL     1       7.501  -2.740  -3.450 +0.00 +0.00    +0.150 HD 
DOCKED: BRANCH  50  53
DOCKED: ATOM     53  C6  UNL     1       5.664  -1.176  -2.299 +0.00 +0.00    +0.161 C  
DOCKED: BRANCH  53  54
DOCKED: ATOM     54  N2  UNL     1       5.679   0.092  -1.566 +0.00 -0.00    -0.304 N  
DOCKED: ATOM     55  C7  UNL     1       6.776   0.432  -0.803 +0.00 +0.00    +0.211 C  
DOCKED: ATOM     56  C8  UNL     1       6.517   1.505   0.221 +0.00 +0.00    +0.109 C  
DOCKED: ATOM     57  O2  UNL     1       7.877  -0.107  -0.902 +0.00 -0.00    -0.276 OA 
DOCKED: ATOM     58  H11 UNL     1       4.783   0.504  -1.343 +0.00 +0.00    +0.149 HD 
DOCKED: ENDBRANCH  53  54
DOCKED: BRANCH  53  59
DOCKED: ATOM     59  C9  UNL     1       6.117  -0.989  -3.785 +0.00 +0.00    +0.012 C  
DOCKED: ATOM     60  C10 UNL     1       5.554  -2.070  -4.713 +0.00 +0.00    +0.009 C  
DOCKED: ATOM     61  C11 UNL     1       5.782   0.399  -4.345 +0.00 +0.00    +0.009 C  
DOCKED: ENDBRANCH  53  59
DOCKED: ENDBRANCH  50  53
DOCKED: ENDBRANCH  48  49
DOCKED: BRANCH  48  62
DOCKED: ATOM     62  C3  UNL     1       8.565  -5.070  -3.163 +0.00 +0.00    +0.042 C  
DOCKED: BRANCH  62  63
DOCKED: ATOM     63  C2  UNL     1       9.926  -4.530  -3.586 +0.00 +0.00    +0.071 C  
DOCKED: BRANCH  63  65
DOCKED: ATOM     64  C1  UNL     1       8.651  -3.528  -5.805 +0.00 +0.00    +0.084 C  
DOCKED: ATOM     65  S1  UNL     1      10.082  -4.567  -5.398 +0.00 -0.00    -0.164 S  
DOCKED: ENDBRANCH  63  65
DOCKED: ENDBRANCH  62  63
DOCKED: ENDBRANCH  48  62
DOCKED: ENDBRANCH  44  48
DOCKED: ENDBRANCH  43  46
DOCKED: BRANCH  43  66
DOCKED: ATOM     66  C14 UNL     1      11.676  -2.091  -0.435 +0.00 +0.00    +0.028 C  
DOCKED: BRANCH  66  67
DOCKED: ATOM     67  C15 UNL     1      12.926  -3.001  -0.403 +0.00 -0.00    -0.015 C  
DOCKED: ATOM     68  C16 UNL     1      12.648  -4.276  -1.205 +0.00 +0.00    +0.007 C  
DOCKED: ATOM     69  C17 UNL     1      13.379  -3.376   1.005 +0.00 +0.00    +0.007 C  
DOCKED: ENDBRANCH  66  67
DOCKED: ENDBRANCH  43  66
DOCKED: ENDBRANCH  40  43
DOCKED: ENDBRANCH  39  40
DOCKED: ENDBRANCH  35  39
DOCKED: ENDBRANCH   1  37
DOCKED: BRANCH   1  70
DOCKED: ATOM     70  C40 UNL     1      12.813   3.157  -1.325 +0.00 +0.00    +0.141 C  
DOCKED: ATOM     71  C41 UNL     1      12.713   4.555  -0.737 +0.00 +0.00    +0.040 C  
DOCKED: BRANCH  70  72
DOCKED: ATOM     72  O13 UNL     1      13.028   3.259  -2.743 +0.00 -0.00    -0.390 OA 
DOCKED: ATOM     73  H65 UNL     1      12.864   2.370  -3.112 +0.00 +0.00    +0.210 HD 
DOCKED: ENDBRANCH  70  72
DOCKED: ENDBRANCH   1  70
DOCKED: TORSDOF 32
DOCKED: TER
DOCKED: ENDMDL
________________________________________________________________________________


    FINAL DOCKED STATE:
    ________________________


Run:   14 / 20
Time taken for this run:   5.815s

DOCKED: MODEL        14
DOCKED: USER    Run = 14
DOCKED: USER
DOCKED: USER    Estimated Free Energy of Binding    =  +9.55 kcal/mol  [=(1)+(2)+(3)-(4)]
DOCKED: USER
DOCKED: USER    (1) Final Intermolecular Energy     =  +0.00 kcal/mol
DOCKED: USER        vdW + Hbond + desolv Energy     =  +0.00 kcal/mol
DOCKED: USER        Electrostatic Energy            =  +0.00 kcal/mol
DOCKED: USER        Moving Ligand-Fixed Receptor    =  +0.00 kcal/mol
DOCKED: USER        Moving Ligand-Moving Receptor   =  +0.00 kcal/mol
DOCKED: USER    (2) Final Total Internal Energy     = -24.51 kcal/mol
DOCKED: USER    (3) Torsional Free Energy           =  +9.55 kcal/mol
DOCKED: USER    (4) Unbound System's Energy         = -24.51 kcal/mol
DOCKED: USER
DOCKED: USER
DOCKED: REMARK  Name = ligands/ligand_27.pdb
DOCKED: REMARK  40 active torsions:
DOCKED: REMARK  status: ('A' for Active; 'I' for Inactive)
DOCKED: REMARK    1  A    between atoms: C1_1  and  S1_2
DOCKED: REMARK    2  A    between atoms: S1_2  and  C2_3
DOCKED: REMARK    3  A    between atoms: C2_3  and  C3_4
DOCKED: REMARK    4  A    between atoms: C3_4  and  C4_5
DOCKED: REMARK    5  A    between atoms: C4_5  and  N1_6
DOCKED: REMARK    6  A    between atoms: C4_5  and  C12_17
DOCKED: REMARK    7  A    between atoms: C5_7  and  C6_9
DOCKED: REMARK    8  A    between atoms: C6_9  and  N2_10
DOCKED: REMARK    9  A    between atoms: C6_9  and  C9_14
DOCKED: REMARK   10  A    between atoms: C7_11  and  C8_12
DOCKED: REMARK   11  A    between atoms: C9_14  and  C10_15
DOCKED: REMARK   12  A    between atoms: C9_14  and  C11_16
DOCKED: REMARK   13  A    between atoms: N3_19  and  C13_20
DOCKED: REMARK   14  A    between atoms: C13_20  and  C14_21
DOCKED: REMARK   15  A    between atoms: C13_20  and  C18_25
DOCKED: REMARK   16  A    between atoms: C14_21  and  C15_22
DOCKED: REMARK   17  A    between atoms: C15_22  and  C16_23
DOCKED: REMARK   18  A    between atoms: C15_22  and  C17_24
DOCKED: REMARK   19  A    between atoms: C18_25  and  O4_26
DOCKED: REMARK   20  A    between atoms: C18_25  and  C19_27
DOCKED: REMARK   21  A    between atoms: C19_27  and  C20_28
DOCKED: REMARK   22  A    between atoms: N4_30  and  C21_31
DOCKED: REMARK   23  A    between atoms: C21_31  and  C22_32
DOCKED: REMARK   24  A    between atoms: C21_31  and  C40_60
DOCKED: REMARK   25  A    between atoms: N5_34  and  C23_35
DOCKED: REMARK   26  A    between atoms: C23_35  and  C24_36
DOCKED: REMARK   27  A    between atoms: C23_35  and  C25_37
DOCKED: REMARK   28  A    between atoms: N6_39  and  C26_40
DOCKED: REMARK   29  A    between atoms: C26_40  and  C27_41
DOCKED: REMARK   30  A    between atoms: C26_40  and  C30_46
DOCKED: REMARK   31  A    between atoms: C27_41  and  C28_42
DOCKED: REMARK   32  A    between atoms: C28_42  and  C29_43
DOCKED: REMARK   33  A    between atoms: C29_43  and  O9_45
DOCKED: REMARK   34  A    between atoms: N7_48  and  C31_49
DOCKED: REMARK   35  A    between atoms: C31_49  and  C32_50
DOCKED: REMARK   36  A    between atoms: C31_49  and  C39_57
DOCKED: REMARK   37  A    between atoms: C32_50  and  C33_51
DOCKED: REMARK   38  A    between atoms: C39_57  and  O12_59
DOCKED: REMARK   39  A    between atoms: C40_60  and  C41_61
DOCKED: REMARK   40  A    between atoms: C40_60  and  O13_62
DOCKED: REMARK                            x       y       z     vdW  Elec       q    Type
DOCKED: REMARK                         _______ _______ _______ _____ _____    ______ ____
DOCKED: USER                              x       y       z     vdW  Elec       q    Type
DOCKED: USER                           _______ _______ _______ _____ _____    ______ ____
DOCKED: ROOT
DOCKED: ATOM      1  C21 UNL     1       8.015  -7.277  -2.422 +0.00 +0.00    +0.187 C  
DOCKED: ENDROOT
DOCKED: BRANCH   1   2
DOCKED: ATOM      2  C22 UNL     1       7.353  -7.692  -1.095 +0.00 +0.00    +0.236 C  
DOCKED: ATOM      3  O6  UNL     1       7.587  -7.110  -0.029 +0.00 -0.00    -0.274 OA 
DOCKED: ATOM      4  N5  UNL     1       6.623  -8.863  -1.121 +0.00 -0.00    -0.303 N  
DOCKED: ATOM      5  H39 UNL     1       6.491  -9.326  -2.023 +0.00 +0.00    +0.149 HD 
DOCKED: BRANCH   4   6
DOCKED: ATOM      6  C23 UNL     1       5.989  -9.385   0.087 +0.00 +0.00    +0.156 C  
DOCKED: ATOM      7  C24 UNL     1       7.024 -10.002   1.019 +0.00 +0.00    +0.038 C  
DOCKED: BRANCH   6   8
DOCKED: ATOM      8  C25 UNL     1       5.245  -8.259   0.822 +0.00 +0.00    +0.234 C  
DOCKED: ATOM      9  O7  UNL     1       4.050  -8.026   0.653 +0.00 -0.00    -0.274 OA 
DOCKED: ATOM     10  N6  UNL     1       5.978  -7.605   1.783 +0.00 -0.00    -0.302 N  
DOCKED: ATOM     11  H44 UNL     1       6.966  -7.833   1.842 +0.00 +0.00    +0.150 HD 
DOCKED: BRANCH  10  12
DOCKED: ATOM     12  C26 UNL     1       5.400  -6.555   2.605 +0.00 +0.00    +0.159 C  
DOCKED: BRANCH  12  13
DOCKED: ATOM     13  C30 UNL     1       5.014  -5.324   1.735 +0.00 +0.00    +0.234 C  
DOCKED: ATOM     14  O10 UNL     1       4.012  -4.636   1.946 +0.00 -0.00    -0.274 OA 
DOCKED: ATOM     15  N7  UNL     1       5.857  -5.094   0.682 +0.00 -0.00    -0.301 N  
DOCKED: ATOM     16  H51 UNL     1       6.747  -5.604   0.646 +0.00 +0.00    +0.150 HD 
DOCKED: BRANCH  15  17
DOCKED: ATOM     17  C31 UNL     1       5.631  -4.065  -0.340 +0.00 +0.00    +0.186 C  
DOCKED: BRANCH  17  18
DOCKED: ATOM     18  C39 UNL     1       5.780  -2.703   0.340 +0.00 +0.00    +0.326 C  
DOCKED: ATOM     19  O11 UNL     1       4.963  -1.795   0.324 +0.00 -0.00    -0.249 OA 
DOCKED: BRANCH  18  20
DOCKED: ATOM     20  O12 UNL     1       6.930  -2.590   1.030 +0.00 -0.00    -0.479 OA 
DOCKED: ATOM     21  H60 UNL     1       7.490  -3.345   0.754 +0.00 +0.00    +0.295 HD 
DOCKED: ENDBRANCH  18  20
DOCKED: ENDBRANCH  17  18
DOCKED: BRANCH  17  22
DOCKED: ATOM     22  C32 UNL     1       4.244  -4.210  -0.967 +0.00 +0.00    +0.069 C  
DOCKED: BRANCH  22  23
DOCKED: ATOM     23  C33 UNL     1       4.071  -5.490  -1.744 +0.00 -0.00    -0.045 A  
DOCKED: ATOM     24  C34 UNL     1       2.973  -6.328  -1.495 +0.00 +0.00    +0.004 A  
DOCKED: ATOM     25  C35 UNL     1       2.808  -7.515  -2.216 +0.00 +0.00    +0.000 A  
DOCKED: ATOM     26  C36 UNL     1       3.733  -7.871  -3.197 +0.00 +0.00    +0.000 A  
DOCKED: ATOM     27  C37 UNL     1       4.823  -7.046  -3.455 +0.00 +0.00    +0.000 A  
DOCKED: ATOM     28  C38 UNL     1       4.995  -5.860  -2.734 +0.00 +0.00    +0.004 A  
DOCKED: ENDBRANCH  22  23
DOCKED: ENDBRANCH  17  22
DOCKED: ENDBRANCH  15  17
DOCKED: ENDBRANCH  12  13
DOCKED: BRANCH  12  29
DOCKED: ATOM     29  C27 UNL     1       6.341  -6.110   3.734 +0.00 +0.00    +0.043 C  
DOCKED: BRANCH  29  30
DOCKED: ATOM     30  C28 UNL     1       7.002  -4.764   3.459 +0.00 +0.00    +0.123 C  
DOCKED: BRANCH  30  31
DOCKED: ATOM     31  C29 UNL     1       8.156  -4.925   2.512 +0.00 +0.00    +0.305 C  
DOCKED: ATOM     32  O8  UNL     1       8.945  -4.061   2.162 +0.00 -0.00    -0.251 OA 
DOCKED: BRANCH  31  33
DOCKED: ATOM     33  O9  UNL     1       8.305  -6.202   2.107 +0.00 -0.00    -0.481 OA 
DOCKED: ATOM     34  H50 UNL     1       8.255  -6.158   1.127 +0.00 +0.00    +0.295 HD 
DOCKED: ENDBRANCH  31  33
DOCKED: ENDBRANCH  30  31
DOCKED: ENDBRANCH  29  30
DOCKED: ENDBRANCH  12  29
DOCKED: ENDBRANCH  10  12
DOCKED: ENDBRANCH   6   8
DOCKED: ENDBRANCH   4   6
DOCKED: ENDBRANCH   1   2
DOCKED: BRANCH   1  37
DOCKED: ATOM     35  C20 UNL     1       8.487  -4.906  -2.895 +0.00 +0.00    +0.216 C  
DOCKED: ATOM     36  O5  UNL     1       7.720  -4.892  -3.855 +0.00 -0.00    -0.276 OA 
DOCKED: ATOM     37  N4  UNL     1       8.754  -6.037  -2.172 +0.00 -0.00    -0.302 N  
DOCKED: ATOM     38  H37 UNL     1       9.459  -6.019  -1.445 +0.00 +0.00    +0.150 HD 
DOCKED: BRANCH  35  39
DOCKED: ATOM     39  C19 UNL     1       9.158  -3.648  -2.396 +0.00 +0.00    +0.129 C  
DOCKED: BRANCH  39  40
DOCKED: ATOM     40  C18 UNL     1       9.340  -3.662  -0.869 +0.00 +0.00    +0.143 C  
DOCKED: BRANCH  40  41
DOCKED: ATOM     41  O4  UNL     1       8.399  -4.545  -0.264 +0.00 -0.00    -0.389 OA 
DOCKED: ATOM     42  H34 UNL     1       8.886  -5.242   0.213 +0.00 +0.00    +0.210 HD 
DOCKED: ENDBRANCH  40  41
DOCKED: BRANCH  40  43
DOCKED: ATOM     43  C13 UNL     1      10.814  -3.963  -0.430 +0.00 +0.00    +0.102 C  
DOCKED: BRANCH  43  46
DOCKED: ATOM     44  C12 UNL     1      12.007  -5.402   1.250 +0.00 +0.00    +0.234 C  
DOCKED: ATOM     45  O3  UNL     1      13.092  -4.880   0.984 +0.00 -0.00    -0.274 OA 
DOCKED: ATOM     46  N3  UNL     1      10.844  -5.019   0.615 +0.00 -0.00    -0.308 N  
DOCKED: ATOM     47  H22 UNL     1       9.960  -5.378   0.973 +0.00 +0.00    +0.149 HD 
DOCKED: BRANCH  44  48
DOCKED: ATOM     48  C4  UNL     1      11.950  -6.680   2.106 +0.00 +0.00    +0.160 C  
DOCKED: BRANCH  48  49
DOCKED: ATOM     49  N1  UNL     1      11.800  -7.949   1.383 +0.00 -0.00    -0.302 N  
DOCKED: ATOM     50  C5  UNL     1      10.694  -8.150   0.584 +0.00 +0.00    +0.234 C  
DOCKED: ATOM     51  O1  UNL     1       9.940  -7.216   0.298 +0.00 -0.00    -0.274 OA 
DOCKED: ATOM     52  H9  UNL     1      12.455  -8.704   1.546 +0.00 +0.00    +0.150 HD 
DOCKED: BRANCH  50  53
DOCKED: ATOM     53  C6  UNL     1      10.407  -9.587   0.073 +0.00 +0.00    +0.161 C  
DOCKED: BRANCH  53  54
DOCKED: ATOM     54  N2  UNL     1      11.113  -9.958  -1.156 +0.00 -0.00    -0.304 N  
DOCKED: ATOM     55  C7  UNL     1      12.471  -9.740  -1.261 +0.00 +0.00    +0.211 C  
DOCKED: ATOM     56  C8  UNL     1      12.998  -9.747  -2.672 +0.00 +0.00    +0.109 C  
DOCKED: ATOM     57  O2  UNL     1      13.208  -9.519  -0.302 +0.00 -0.00    -0.276 OA 
DOCKED: ATOM     58  H11 UNL     1      10.561 -10.018  -2.001 +0.00 +0.00    +0.149 HD 
DOCKED: ENDBRANCH  53  54
DOCKED: BRANCH  53  59
DOCKED: ATOM     59  C9  UNL     1      10.704 -10.591   1.235 +0.00 +0.00    +0.012 C  
DOCKED: ATOM     60  C10 UNL     1       9.992 -10.213   2.537 +0.00 +0.00    +0.009 C  
DOCKED: ATOM     61  C11 UNL     1      10.377 -12.045   0.869 +0.00 +0.00    +0.009 C  
DOCKED: ENDBRANCH  53  59
DOCKED: ENDBRANCH  50  53
DOCKED: ENDBRANCH  48  49
DOCKED: BRANCH  48  62
DOCKED: ATOM     62  C3  UNL     1      13.199  -6.722   3.005 +0.00 +0.00    +0.042 C  
DOCKED: BRANCH  62  63
DOCKED: ATOM     63  C2  UNL     1      12.828  -6.626   4.480 +0.00 +0.00    +0.071 C  
DOCKED: BRANCH  63  65
DOCKED: ATOM     64  C1  UNL     1      10.247  -7.497   4.843 +0.00 +0.00    +0.084 C  
DOCKED: ATOM     65  S1  UNL     1      11.154  -5.936   4.663 +0.00 -0.00    -0.164 S  
DOCKED: ENDBRANCH  63  65
DOCKED: ENDBRANCH  62  63
DOCKED: ENDBRANCH  48  62
DOCKED: ENDBRANCH  44  48
DOCKED: ENDBRANCH  43  46
DOCKED: BRANCH  43  66
DOCKED: ATOM     66  C14 UNL     1      11.773  -4.314  -1.595 +0.00 +0.00    +0.028 C  
DOCKED: BRANCH  66  67
DOCKED: ATOM     67  C15 UNL     1      11.887  -5.804  -1.993 +0.00 -0.00    -0.015 C  
DOCKED: ATOM     68  C16 UNL     1      13.288  -6.318  -1.646 +0.00 +0.00    +0.007 C  
DOCKED: ATOM     69  C17 UNL     1      11.599  -6.071  -3.467 +0.00 +0.00    +0.007 C  
DOCKED: ENDBRANCH  66  67
DOCKED: ENDBRANCH  43  66
DOCKED: ENDBRANCH  40  43
DOCKED: ENDBRANCH  39  40
DOCKED: ENDBRANCH  35  39
DOCKED: ENDBRANCH   1  37
DOCKED: BRANCH   1  70
DOCKED: ATOM     70  C40 UNL     1       8.878  -8.382  -3.082 +0.00 +0.00    +0.141 C  
DOCKED: ATOM     71  C41 UNL     1       8.700  -8.427  -4.591 +0.00 +0.00    +0.040 C  
DOCKED: BRANCH  70  72
DOCKED: ATOM     72  O13 UNL     1       8.569  -9.675  -2.535 +0.00 -0.00    -0.390 OA 
DOCKED: ATOM     73  H65 UNL     1       8.654  -9.593  -1.566 +0.00 +0.00    +0.210 HD 
DOCKED: ENDBRANCH  70  72
DOCKED: ENDBRANCH   1  70
DOCKED: TORSDOF 32
DOCKED: TER
DOCKED: ENDMDL
________________________________________________________________________________


    FINAL DOCKED STATE:
    ________________________


Run:   15 / 20
Time taken for this run:   5.815s

DOCKED: MODEL        15
DOCKED: USER    Run = 15
DOCKED: USER
DOCKED: USER    Estimated Free Energy of Binding    =  +9.55 kcal/mol  [=(1)+(2)+(3)-(4)]
DOCKED: USER
DOCKED: USER    (1) Final Intermolecular Energy     =  +0.00 kcal/mol
DOCKED: USER        vdW + Hbond + desolv Energy     =  +0.00 kcal/mol
DOCKED: USER        Electrostatic Energy            =  +0.00 kcal/mol
DOCKED: USER        Moving Ligand-Fixed Receptor    =  +0.00 kcal/mol
DOCKED: USER        Moving Ligand-Moving Receptor   =  +0.00 kcal/mol
DOCKED: USER    (2) Final Total Internal Energy     = -24.81 kcal/mol
DOCKED: USER    (3) Torsional Free Energy           =  +9.55 kcal/mol
DOCKED: USER    (4) Unbound System's Energy         = -24.81 kcal/mol
DOCKED: USER
DOCKED: USER
DOCKED: REMARK  Name = ligands/ligand_27.pdb
DOCKED: REMARK  40 active torsions:
DOCKED: REMARK  status: ('A' for Active; 'I' for Inactive)
DOCKED: REMARK    1  A    between atoms: C1_1  and  S1_2
DOCKED: REMARK    2  A    between atoms: S1_2  and  C2_3
DOCKED: REMARK    3  A    between atoms: C2_3  and  C3_4
DOCKED: REMARK    4  A    between atoms: C3_4  and  C4_5
DOCKED: REMARK    5  A    between atoms: C4_5  and  N1_6
DOCKED: REMARK    6  A    between atoms: C4_5  and  C12_17
DOCKED: REMARK    7  A    between atoms: C5_7  and  C6_9
DOCKED: REMARK    8  A    between atoms: C6_9  and  N2_10
DOCKED: REMARK    9  A    between atoms: C6_9  and  C9_14
DOCKED: REMARK   10  A    between atoms: C7_11  and  C8_12
DOCKED: REMARK   11  A    between atoms: C9_14  and  C10_15
DOCKED: REMARK   12  A    between atoms: C9_14  and  C11_16
DOCKED: REMARK   13  A    between atoms: N3_19  and  C13_20
DOCKED: REMARK   14  A    between atoms: C13_20  and  C14_21
DOCKED: REMARK   15  A    between atoms: C13_20  and  C18_25
DOCKED: REMARK   16  A    between atoms: C14_21  and  C15_22
DOCKED: REMARK   17  A    between atoms: C15_22  and  C16_23
DOCKED: REMARK   18  A    between atoms: C15_22  and  C17_24
DOCKED: REMARK   19  A    between atoms: C18_25  and  O4_26
DOCKED: REMARK   20  A    between atoms: C18_25  and  C19_27
DOCKED: REMARK   21  A    between atoms: C19_27  and  C20_28
DOCKED: REMARK   22  A    between atoms: N4_30  and  C21_31
DOCKED: REMARK   23  A    between atoms: C21_31  and  C22_32
DOCKED: REMARK   24  A    between atoms: C21_31  and  C40_60
DOCKED: REMARK   25  A    between atoms: N5_34  and  C23_35
DOCKED: REMARK   26  A    between atoms: C23_35  and  C24_36
DOCKED: REMARK   27  A    between atoms: C23_35  and  C25_37
DOCKED: REMARK   28  A    between atoms: N6_39  and  C26_40
DOCKED: REMARK   29  A    between atoms: C26_40  and  C27_41
DOCKED: REMARK   30  A    between atoms: C26_40  and  C30_46
DOCKED: REMARK   31  A    between atoms: C27_41  and  C28_42
DOCKED: REMARK   32  A    between atoms: C28_42  and  C29_43
DOCKED: REMARK   33  A    between atoms: C29_43  and  O9_45
DOCKED: REMARK   34  A    between atoms: N7_48  and  C31_49
DOCKED: REMARK   35  A    between atoms: C31_49  and  C32_50
DOCKED: REMARK   36  A    between atoms: C31_49  and  C39_57
DOCKED: REMARK   37  A    between atoms: C32_50  and  C33_51
DOCKED: REMARK   38  A    between atoms: C39_57  and  O12_59
DOCKED: REMARK   39  A    between atoms: C40_60  and  C41_61
DOCKED: REMARK   40  A    between atoms: C40_60  and  O13_62
DOCKED: REMARK                            x       y       z     vdW  Elec       q    Type
DOCKED: REMARK                         _______ _______ _______ _____ _____    ______ ____
DOCKED: USER                              x       y       z     vdW  Elec       q    Type
DOCKED: USER                           _______ _______ _______ _____ _____    ______ ____
DOCKED: ROOT
DOCKED: ATOM      1  C21 UNL     1       7.164  -4.088   0.911 +0.00 +0.00    +0.187 C  
DOCKED: ENDROOT
DOCKED: BRANCH   1   2
DOCKED: ATOM      2  C22 UNL     1       7.039  -3.895  -0.612 +0.00 +0.00    +0.236 C  
DOCKED: ATOM      3  O6  UNL     1       6.951  -4.848  -1.395 +0.00 -0.00    -0.274 OA 
DOCKED: ATOM      4  N5  UNL     1       7.214  -2.607  -1.076 +0.00 -0.00    -0.303 N  
DOCKED: ATOM      5  H39 UNL     1       7.321  -1.859  -0.388 +0.00 +0.00    +0.149 HD 
DOCKED: BRANCH   4   6
DOCKED: ATOM      6  C23 UNL     1       7.167  -2.306  -2.505 +0.00 +0.00    +0.156 C  
DOCKED: ATOM      7  C24 UNL     1       5.773  -1.849  -2.918 +0.00 +0.00    +0.038 C  
DOCKED: BRANCH   6   8
DOCKED: ATOM      8  C25 UNL     1       8.187  -1.209  -2.848 +0.00 +0.00    +0.234 C  
DOCKED: ATOM      9  O7  UNL     1       8.247  -0.673  -3.952 +0.00 -0.00    -0.274 OA 
DOCKED: ATOM     10  N6  UNL     1       8.952  -0.772  -1.793 +0.00 -0.00    -0.302 N  
DOCKED: ATOM     11  H44 UNL     1       8.866  -1.285  -0.919 +0.00 +0.00    +0.150 HD 
DOCKED: BRANCH  10  12
DOCKED: ATOM     12  C26 UNL     1       9.921   0.300  -1.940 +0.00 +0.00    +0.159 C  
DOCKED: BRANCH  12  13
DOCKED: ATOM     13  C30 UNL     1      10.977   0.249  -0.799 +0.00 +0.00    +0.234 C  
DOCKED: ATOM     14  O10 UNL     1      12.186   0.402  -0.991 +0.00 -0.00    -0.274 OA 
DOCKED: ATOM     15  N7  UNL     1      10.457  -0.029   0.435 +0.00 -0.00    -0.301 N  
DOCKED: ATOM     16  H51 UNL     1       9.438   0.002   0.557 +0.00 +0.00    +0.150 HD 
DOCKED: BRANCH  15  17
DOCKED: ATOM     17  C31 UNL     1      11.269  -0.242   1.639 +0.00 +0.00    +0.186 C  
DOCKED: BRANCH  17  18
DOCKED: ATOM     18  C39 UNL     1      10.311  -0.560   2.788 +0.00 +0.00    +0.326 C  
DOCKED: ATOM     19  O11 UNL     1      10.598  -1.126   3.832 +0.00 -0.00    -0.249 OA 
DOCKED: BRANCH  18  20
DOCKED: ATOM     20  O12 UNL     1       9.064  -0.107   2.565 +0.00 -0.00    -0.479 OA 
DOCKED: ATOM     21  H60 UNL     1       8.850  -0.341   1.638 +0.00 +0.00    +0.295 HD 
DOCKED: ENDBRANCH  18  20
DOCKED: ENDBRANCH  17  18
DOCKED: BRANCH  17  22
DOCKED: ATOM     22  C32 UNL     1      12.110   0.994   1.960 +0.00 +0.00    +0.069 C  
DOCKED: BRANCH  22  23
DOCKED: ATOM     23  C33 UNL     1      11.342   2.286   1.837 +0.00 -0.00    -0.045 A  
DOCKED: ATOM     24  C34 UNL     1      10.494   2.708   2.874 +0.00 +0.00    +0.004 A  
DOCKED: ATOM     25  C35 UNL     1       9.783   3.908   2.764 +0.00 +0.00    +0.000 A  
DOCKED: ATOM     26  C36 UNL     1       9.916   4.698   1.623 +0.00 +0.00    +0.000 A  
DOCKED: ATOM     27  C37 UNL     1      10.755   4.290   0.591 +0.00 +0.00    +0.000 A  
DOCKED: ATOM     28  C38 UNL     1      11.467   3.090   0.693 +0.00 +0.00    +0.004 A  
DOCKED: ENDBRANCH  22  23
DOCKED: ENDBRANCH  17  22
DOCKED: ENDBRANCH  15  17
DOCKED: ENDBRANCH  12  13
DOCKED: BRANCH  12  29
DOCKED: ATOM     29  C27 UNL     1       9.261   1.686  -1.966 +0.00 +0.00    +0.043 C  
DOCKED: BRANCH  29  30
DOCKED: ATOM     30  C28 UNL     1       7.850   1.683  -1.391 +0.00 +0.00    +0.123 C  
DOCKED: BRANCH  30  31
DOCKED: ATOM     31  C29 UNL     1       7.851   1.137   0.008 +0.00 +0.00    +0.305 C  
DOCKED: ATOM     32  O8  UNL     1       8.204   1.719   1.023 +0.00 -0.00    -0.251 OA 
DOCKED: BRANCH  31  33
DOCKED: ATOM     33  O9  UNL     1       7.330  -0.105   0.070 +0.00 -0.00    -0.481 OA 
DOCKED: ATOM     34  H50 UNL     1       7.760  -0.514   0.851 +0.00 +0.00    +0.295 HD 
DOCKED: ENDBRANCH  31  33
DOCKED: ENDBRANCH  30  31
DOCKED: ENDBRANCH  29  30
DOCKED: ENDBRANCH  12  29
DOCKED: ENDBRANCH  10  12
DOCKED: ENDBRANCH   6   8
DOCKED: ENDBRANCH   4   6
DOCKED: ENDBRANCH   1   2
DOCKED: BRANCH   1  37
DOCKED: ATOM     35  C20 UNL     1       9.463  -3.207   1.017 +0.00 +0.00    +0.216 C  
DOCKED: ATOM     36  O5  UNL     1       9.139  -2.154   0.473 +0.00 -0.00    -0.276 OA 
DOCKED: ATOM     37  N4  UNL     1       8.589  -4.243   1.215 +0.00 -0.00    -0.302 N  
DOCKED: ATOM     38  H37 UNL     1       8.924  -5.123   1.587 +0.00 +0.00    +0.150 HD 
DOCKED: BRANCH  35  39
DOCKED: ATOM     39  C19 UNL     1      10.852  -3.421   1.570 +0.00 +0.00    +0.129 C  
DOCKED: BRANCH  39  40
DOCKED: ATOM     40  C18 UNL     1      11.506  -4.694   1.004 +0.00 +0.00    +0.143 C  
DOCKED: BRANCH  40  41
DOCKED: ATOM     41  O4  UNL     1      10.869  -5.856   1.530 +0.00 -0.00    -0.389 OA 
DOCKED: ATOM     42  H34 UNL     1      10.075  -6.045   0.999 +0.00 +0.00    +0.210 HD 
DOCKED: ENDBRANCH  40  41
DOCKED: BRANCH  40  43
DOCKED: ATOM     43  C13 UNL     1      11.573  -4.704  -0.562 +0.00 +0.00    +0.102 C  
DOCKED: BRANCH  43  46
DOCKED: ATOM     44  C12 UNL     1      10.686  -6.151  -2.416 +0.00 +0.00    +0.234 C  
DOCKED: ATOM     45  O3  UNL     1      11.582  -5.787  -3.180 +0.00 -0.00    -0.274 OA 
DOCKED: ATOM     46  N3  UNL     1      10.602  -5.679  -1.122 +0.00 -0.00    -0.308 N  
DOCKED: ATOM     47  H22 UNL     1       9.932  -6.119  -0.492 +0.00 +0.00    +0.149 HD 
DOCKED: BRANCH  44  48
DOCKED: ATOM     48  C4  UNL     1       9.477  -6.937  -2.954 +0.00 +0.00    +0.160 C  
DOCKED: BRANCH  48  49
DOCKED: ATOM     49  N1  UNL     1       8.359  -7.140  -2.024 +0.00 -0.00    -0.302 N  
DOCKED: ATOM     50  C5  UNL     1       7.893  -8.417  -1.789 +0.00 +0.00    +0.234 C  
DOCKED: ATOM     51  O1  UNL     1       8.526  -9.404  -2.176 +0.00 -0.00    -0.274 OA 
DOCKED: ATOM     52  H9  UNL     1       7.874  -6.341  -1.634 +0.00 +0.00    +0.150 HD 
DOCKED: BRANCH  50  53
DOCKED: ATOM     53  C6  UNL     1       6.541  -8.582  -1.047 +0.00 +0.00    +0.161 C  
DOCKED: BRANCH  53  54
DOCKED: ATOM     54  N2  UNL     1       6.632  -8.566   0.414 +0.00 -0.00    -0.304 N  
DOCKED: ATOM     55  C7  UNL     1       7.558  -7.755   1.037 +0.00 +0.00    +0.211 C  
DOCKED: ATOM     56  C8  UNL     1       7.858  -8.130   2.464 +0.00 +0.00    +0.109 C  
DOCKED: ATOM     57  O2  UNL     1       8.134  -6.819   0.484 +0.00 -0.00    -0.276 OA 
DOCKED: ATOM     58  H11 UNL     1       6.291  -9.382   0.904 +0.00 +0.00    +0.149 HD 
DOCKED: ENDBRANCH  53  54
DOCKED: BRANCH  53  59
DOCKED: ATOM     59  C9  UNL     1       5.553  -7.490  -1.576 +0.00 +0.00    +0.012 C  
DOCKED: ATOM     60  C10 UNL     1       5.008  -7.814  -2.970 +0.00 +0.00    +0.009 C  
DOCKED: ATOM     61  C11 UNL     1       4.388  -7.219  -0.615 +0.00 +0.00    +0.009 C  
DOCKED: ENDBRANCH  53  59
DOCKED: ENDBRANCH  50  53
DOCKED: ENDBRANCH  48  49
DOCKED: BRANCH  48  62
DOCKED: ATOM     62  C3  UNL     1       8.983  -6.251  -4.241 +0.00 +0.00    +0.042 C  
DOCKED: BRANCH  62  63
DOCKED: ATOM     63  C2  UNL     1       8.843  -4.746  -4.052 +0.00 +0.00    +0.071 C  
DOCKED: BRANCH  63  65
DOCKED: ATOM     64  C1  UNL     1       6.162  -4.957  -4.616 +0.00 +0.00    +0.084 C  
DOCKED: ATOM     65  S1  UNL     1       7.625  -4.076  -5.227 +0.00 -0.00    -0.164 S  
DOCKED: ENDBRANCH  63  65
DOCKED: ENDBRANCH  62  63
DOCKED: ENDBRANCH  48  62
DOCKED: ENDBRANCH  44  48
DOCKED: ENDBRANCH  43  46
DOCKED: BRANCH  43  66
DOCKED: ATOM     66  C14 UNL     1      11.399  -3.313  -1.222 +0.00 +0.00    +0.028 C  
DOCKED: BRANCH  66  67
DOCKED: ATOM     67  C15 UNL     1      12.256  -3.012  -2.473 +0.00 -0.00    -0.015 C  
DOCKED: ATOM     68  C16 UNL     1      13.456  -2.148  -2.074 +0.00 +0.00    +0.007 C  
DOCKED: ATOM     69  C17 UNL     1      11.486  -2.323  -3.595 +0.00 +0.00    +0.007 C  
DOCKED: ENDBRANCH  66  67
DOCKED: ENDBRANCH  43  66
DOCKED: ENDBRANCH  40  43
DOCKED: ENDBRANCH  39  40
DOCKED: ENDBRANCH  35  39
DOCKED: ENDBRANCH   1  37
DOCKED: BRANCH   1  70
DOCKED: ATOM     70  C40 UNL     1       6.474  -2.987   1.756 +0.00 +0.00    +0.141 C  
DOCKED: ATOM     71  C41 UNL     1       5.077  -2.667   1.250 +0.00 +0.00    +0.040 C  
DOCKED: BRANCH  70  72
DOCKED: ATOM     72  O13 UNL     1       7.255  -1.781   1.772 +0.00 -0.00    -0.390 OA 
DOCKED: ATOM     73  H65 UNL     1       8.041  -1.968   2.321 +0.00 +0.00    +0.210 HD 
DOCKED: ENDBRANCH  70  72
DOCKED: ENDBRANCH   1  70
DOCKED: TORSDOF 32
DOCKED: TER
DOCKED: ENDMDL
________________________________________________________________________________


    FINAL DOCKED STATE:
    ________________________


Run:   16 / 20
Time taken for this run:   5.815s

DOCKED: MODEL        16
DOCKED: USER    Run = 16
DOCKED: USER
DOCKED: USER    Estimated Free Energy of Binding    =  +9.55 kcal/mol  [=(1)+(2)+(3)-(4)]
DOCKED: USER
DOCKED: USER    (1) Final Intermolecular Energy     =  +0.00 kcal/mol
DOCKED: USER        vdW + Hbond + desolv Energy     =  +0.00 kcal/mol
DOCKED: USER        Electrostatic Energy            =  +0.00 kcal/mol
DOCKED: USER        Moving Ligand-Fixed Receptor    =  +0.00 kcal/mol
DOCKED: USER        Moving Ligand-Moving Receptor   =  +0.00 kcal/mol
DOCKED: USER    (2) Final Total Internal Energy     = -25.08 kcal/mol
DOCKED: USER    (3) Torsional Free Energy           =  +9.55 kcal/mol
DOCKED: USER    (4) Unbound System's Energy         = -25.08 kcal/mol
DOCKED: USER
DOCKED: USER
DOCKED: REMARK  Name = ligands/ligand_27.pdb
DOCKED: REMARK  40 active torsions:
DOCKED: REMARK  status: ('A' for Active; 'I' for Inactive)
DOCKED: REMARK    1  A    between atoms: C1_1  and  S1_2
DOCKED: REMARK    2  A    between atoms: S1_2  and  C2_3
DOCKED: REMARK    3  A    between atoms: C2_3  and  C3_4
DOCKED: REMARK    4  A    between atoms: C3_4  and  C4_5
DOCKED: REMARK    5  A    between atoms: C4_5  and  N1_6
DOCKED: REMARK    6  A    between atoms: C4_5  and  C12_17
DOCKED: REMARK    7  A    between atoms: C5_7  and  C6_9
DOCKED: REMARK    8  A    between atoms: C6_9  and  N2_10
DOCKED: REMARK    9  A    between atoms: C6_9  and  C9_14
DOCKED: REMARK   10  A    between atoms: C7_11  and  C8_12
DOCKED: REMARK   11  A    between atoms: C9_14  and  C10_15
DOCKED: REMARK   12  A    between atoms: C9_14  and  C11_16
DOCKED: REMARK   13  A    between atoms: N3_19  and  C13_20
DOCKED: REMARK   14  A    between atoms: C13_20  and  C14_21
DOCKED: REMARK   15  A    between atoms: C13_20  and  C18_25
DOCKED: REMARK   16  A    between atoms: C14_21  and  C15_22
DOCKED: REMARK   17  A    between atoms: C15_22  and  C16_23
DOCKED: REMARK   18  A    between atoms: C15_22  and  C17_24
DOCKED: REMARK   19  A    between atoms: C18_25  and  O4_26
DOCKED: REMARK   20  A    between atoms: C18_25  and  C19_27
DOCKED: REMARK   21  A    between atoms: C19_27  and  C20_28
DOCKED: REMARK   22  A    between atoms: N4_30  and  C21_31
DOCKED: REMARK   23  A    between atoms: C21_31  and  C22_32
DOCKED: REMARK   24  A    between atoms: C21_31  and  C40_60
DOCKED: REMARK   25  A    between atoms: N5_34  and  C23_35
DOCKED: REMARK   26  A    between atoms: C23_35  and  C24_36
DOCKED: REMARK   27  A    between atoms: C23_35  and  C25_37
DOCKED: REMARK   28  A    between atoms: N6_39  and  C26_40
DOCKED: REMARK   29  A    between atoms: C26_40  and  C27_41
DOCKED: REMARK   30  A    between atoms: C26_40  and  C30_46
DOCKED: REMARK   31  A    between atoms: C27_41  and  C28_42
DOCKED: REMARK   32  A    between atoms: C28_42  and  C29_43
DOCKED: REMARK   33  A    between atoms: C29_43  and  O9_45
DOCKED: REMARK   34  A    between atoms: N7_48  and  C31_49
DOCKED: REMARK   35  A    between atoms: C31_49  and  C32_50
DOCKED: REMARK   36  A    between atoms: C31_49  and  C39_57
DOCKED: REMARK   37  A    between atoms: C32_50  and  C33_51
DOCKED: REMARK   38  A    between atoms: C39_57  and  O12_59
DOCKED: REMARK   39  A    between atoms: C40_60  and  C41_61
DOCKED: REMARK   40  A    between atoms: C40_60  and  O13_62
DOCKED: REMARK                            x       y       z     vdW  Elec       q    Type
DOCKED: REMARK                         _______ _______ _______ _____ _____    ______ ____
DOCKED: USER                              x       y       z     vdW  Elec       q    Type
DOCKED: USER                           _______ _______ _______ _____ _____    ______ ____
DOCKED: ROOT
DOCKED: ATOM      1  C21 UNL     1      10.269   1.640  -0.363 +0.00 +0.00    +0.187 C  
DOCKED: ENDROOT
DOCKED: BRANCH   1   2
DOCKED: ATOM      2  C22 UNL     1      10.881   1.425  -1.760 +0.00 +0.00    +0.236 C  
DOCKED: ATOM      3  O6  UNL     1      10.217   1.005  -2.716 +0.00 -0.00    -0.274 OA 
DOCKED: ATOM      4  N5  UNL     1      12.253   1.552  -1.848 +0.00 -0.00    -0.303 N  
DOCKED: ATOM      5  H39 UNL     1      12.760   1.865  -1.018 +0.00 +0.00    +0.149 HD 
DOCKED: BRANCH   4   6
DOCKED: ATOM      6  C23 UNL     1      12.953   1.323  -3.110 +0.00 +0.00    +0.156 C  
DOCKED: ATOM      7  C24 UNL     1      12.080   1.717  -4.294 +0.00 +0.00    +0.038 C  
DOCKED: BRANCH   6   8
DOCKED: ATOM      8  C25 UNL     1      14.257   2.135  -3.144 +0.00 +0.00    +0.234 C  
DOCKED: ATOM      9  O7  UNL     1      15.228   1.812  -3.824 +0.00 -0.00    -0.274 OA 
DOCKED: ATOM     10  N6  UNL     1      14.223   3.325  -2.457 +0.00 -0.00    -0.302 N  
DOCKED: ATOM     11  H44 UNL     1      13.396   3.508  -1.894 +0.00 +0.00    +0.150 HD 
DOCKED: BRANCH  10  12
DOCKED: ATOM     12  C26 UNL     1      15.356   4.234  -2.441 +0.00 +0.00    +0.159 C  
DOCKED: BRANCH  12  13
DOCKED: ATOM     13  C30 UNL     1      16.670   3.472  -2.103 +0.00 +0.00    +0.234 C  
DOCKED: ATOM     14  O10 UNL     1      17.689   3.544  -2.794 +0.00 -0.00    -0.274 OA 
DOCKED: ATOM     15  N7  UNL     1      16.585   2.672  -0.996 +0.00 -0.00    -0.301 N  
DOCKED: ATOM     16  H51 UNL     1      15.767   2.767  -0.384 +0.00 +0.00    +0.150 HD 
DOCKED: BRANCH  15  17
DOCKED: ATOM     17  C31 UNL     1      17.655   1.771  -0.551 +0.00 +0.00    +0.186 C  
DOCKED: BRANCH  17  18
DOCKED: ATOM     18  C39 UNL     1      16.999   0.458  -0.122 +0.00 +0.00    +0.326 C  
DOCKED: ATOM     19  O11 UNL     1      17.579  -0.555   0.239 +0.00 -0.00    -0.249 OA 
DOCKED: BRANCH  18  20
DOCKED: ATOM     20  O12 UNL     1      15.655   0.520  -0.134 +0.00 -0.00    -0.479 OA 
DOCKED: ATOM     21  H60 UNL     1      15.420   1.414   0.190 +0.00 +0.00    +0.295 HD 
DOCKED: ENDBRANCH  18  20
DOCKED: ENDBRANCH  17  18
DOCKED: BRANCH  17  22
DOCKED: ATOM     22  C32 UNL     1      18.445   2.386   0.604 +0.00 +0.00    +0.069 C  
DOCKED: BRANCH  22  23
DOCKED: ATOM     23  C33 UNL     1      18.651   3.873   0.460 +0.00 -0.00    -0.045 A  
DOCKED: ATOM     24  C34 UNL     1      18.024   4.765   1.345 +0.00 +0.00    +0.004 A  
DOCKED: ATOM     25  C35 UNL     1      18.216   6.144   1.217 +0.00 +0.00    +0.000 A  
DOCKED: ATOM     26  C36 UNL     1      19.040   6.645   0.210 +0.00 +0.00    +0.000 A  
DOCKED: ATOM     27  C37 UNL     1      19.669   5.770  -0.671 +0.00 +0.00    +0.000 A  
DOCKED: ATOM     28  C38 UNL     1      19.478   4.389  -0.549 +0.00 +0.00    +0.004 A  
DOCKED: ENDBRANCH  22  23
DOCKED: ENDBRANCH  17  22
DOCKED: ENDBRANCH  15  17
DOCKED: ENDBRANCH  12  13
DOCKED: BRANCH  12  29
DOCKED: ATOM     29  C27 UNL     1      15.166   5.391  -1.450 +0.00 +0.00    +0.043 C  
DOCKED: BRANCH  29  30
DOCKED: ATOM     30  C28 UNL     1      15.111   4.927   0.001 +0.00 +0.00    +0.123 C  
DOCKED: BRANCH  30  31
DOCKED: ATOM     31  C29 UNL     1      13.777   4.309   0.308 +0.00 +0.00    +0.305 C  
DOCKED: ATOM     32  O8  UNL     1      12.740   4.896   0.578 +0.00 -0.00    -0.251 OA 
DOCKED: BRANCH  31  33
DOCKED: ATOM     33  O9  UNL     1      13.799   2.967   0.184 +0.00 -0.00    -0.481 OA 
DOCKED: ATOM     34  H50 UNL     1      13.588   2.632   1.082 +0.00 +0.00    +0.295 HD 
DOCKED: ENDBRANCH  31  33
DOCKED: ENDBRANCH  30  31
DOCKED: ENDBRANCH  29  30
DOCKED: ENDBRANCH  12  29
DOCKED: ENDBRANCH  10  12
DOCKED: ENDBRANCH   6   8
DOCKED: ENDBRANCH   4   6
DOCKED: ENDBRANCH   1   2
DOCKED: BRANCH   1  37
DOCKED: ATOM     35  C20 UNL     1      10.960  -0.467   0.712 +0.00 +0.00    +0.216 C  
DOCKED: ATOM     36  O5  UNL     1      10.087  -1.108   0.132 +0.00 -0.00    -0.276 OA 
DOCKED: ATOM     37  N4  UNL     1      11.091   0.891   0.591 +0.00 -0.00    -0.302 N  
DOCKED: ATOM     38  H37 UNL     1      11.770   1.386   1.156 +0.00 +0.00    +0.150 HD 
DOCKED: BRANCH  35  39
DOCKED: ATOM     39  C19 UNL     1      12.007  -1.142   1.565 +0.00 +0.00    +0.129 C  
DOCKED: BRANCH  39  40
DOCKED: ATOM     40  C18 UNL     1      13.433  -0.814   1.091 +0.00 +0.00    +0.143 C  
DOCKED: BRANCH  40  41
DOCKED: ATOM     41  O4  UNL     1      13.514   0.542   0.660 +0.00 -0.00    -0.389 OA 
DOCKED: ATOM     42  H34 UNL     1      14.066   1.039   1.291 +0.00 +0.00    +0.210 HD 
DOCKED: ENDBRANCH  40  41
DOCKED: BRANCH  40  43
DOCKED: ATOM     43  C13 UNL     1      14.530  -1.172   2.152 +0.00 +0.00    +0.102 C  
DOCKED: BRANCH  43  46
DOCKED: ATOM     44  C12 UNL     1      16.613  -0.118   3.081 +0.00 +0.00    +0.234 C  
DOCKED: ATOM     45  O3  UNL     1      17.015  -1.201   3.511 +0.00 -0.00    -0.274 OA 
DOCKED: ATOM     46  N3  UNL     1      15.416  -0.008   2.405 +0.00 -0.00    -0.308 N  
DOCKED: ATOM     47  H22 UNL     1      15.202   0.878   1.947 +0.00 +0.00    +0.149 HD 
DOCKED: BRANCH  44  48
DOCKED: ATOM     48  C4  UNL     1      17.299   1.191   3.510 +0.00 +0.00    +0.160 C  
DOCKED: BRANCH  48  49
DOCKED: ATOM     49  N1  UNL     1      16.415   2.309   3.867 +0.00 -0.00    -0.302 N  
DOCKED: ATOM     50  C5  UNL     1      15.700   2.953   2.879 +0.00 +0.00    +0.234 C  
DOCKED: ATOM     51  O1  UNL     1      15.624   2.481   1.741 +0.00 -0.00    -0.274 OA 
DOCKED: ATOM     52  H9  UNL     1      16.405   2.662   4.816 +0.00 +0.00    +0.150 HD 
DOCKED: BRANCH  50  53
DOCKED: ATOM     53  C6  UNL     1      15.014   4.301   3.227 +0.00 +0.00    +0.161 C  
DOCKED: BRANCH  53  54
DOCKED: ATOM     54  N2  UNL     1      13.721   4.178   3.904 +0.00 -0.00    -0.304 N  
DOCKED: ATOM     55  C7  UNL     1      12.767   3.312   3.413 +0.00 +0.00    +0.211 C  
DOCKED: ATOM     56  C8  UNL     1      11.368   3.579   3.903 +0.00 +0.00    +0.109 C  
DOCKED: ATOM     57  O2  UNL     1      13.004   2.411   2.610 +0.00 -0.00    -0.276 OA 
DOCKED: ATOM     58  H11 UNL     1      13.424   4.961   4.470 +0.00 +0.00    +0.149 HD 
DOCKED: ENDBRANCH  53  54
DOCKED: BRANCH  53  59
DOCKED: ATOM     59  C9  UNL     1      16.020   5.166   4.055 +0.00 +0.00    +0.012 C  
DOCKED: ATOM     60  C10 UNL     1      15.970   6.649   3.679 +0.00 +0.00    +0.009 C  
DOCKED: ATOM     61  C11 UNL     1      15.840   5.009   5.571 +0.00 +0.00    +0.009 C  
DOCKED: ENDBRANCH  53  59
DOCKED: ENDBRANCH  50  53
DOCKED: ENDBRANCH  48  49
DOCKED: BRANCH  48  62
DOCKED: ATOM     62  C3  UNL     1      18.261   0.880   4.671 +0.00 +0.00    +0.042 C  
DOCKED: BRANCH  62  63
DOCKED: ATOM     63  C2  UNL     1      17.507   0.414   5.910 +0.00 +0.00    +0.071 C  
DOCKED: BRANCH  63  65
DOCKED: ATOM     64  C1  UNL     1      15.265   1.696   6.849 +0.00 +0.00    +0.084 C  
DOCKED: ATOM     65  S1  UNL     1      17.071   1.840   6.954 +0.00 -0.00    -0.164 S  
DOCKED: ENDBRANCH  63  65
DOCKED: ENDBRANCH  62  63
DOCKED: ENDBRANCH  48  62
DOCKED: ENDBRANCH  44  48
DOCKED: ENDBRANCH  43  46
DOCKED: BRANCH  43  66
DOCKED: ATOM     66  C14 UNL     1      13.975  -1.741   3.482 +0.00 +0.00    +0.028 C  
DOCKED: BRANCH  66  67
DOCKED: ATOM     67  C15 UNL     1      13.899  -0.775   4.687 +0.00 -0.00    -0.015 C  
DOCKED: ATOM     68  C16 UNL     1      13.953  -1.580   5.990 +0.00 +0.00    +0.007 C  
DOCKED: ATOM     69  C17 UNL     1      12.658   0.111   4.690 +0.00 +0.00    +0.007 C  
DOCKED: ENDBRANCH  66  67
DOCKED: ENDBRANCH  43  66
DOCKED: ENDBRANCH  40  43
DOCKED: ENDBRANCH  39  40
DOCKED: ENDBRANCH  35  39
DOCKED: ENDBRANCH   1  37
DOCKED: BRANCH   1  70
DOCKED: ATOM     70  C40 UNL     1      10.075   3.126   0.030 +0.00 +0.00    +0.141 C  
DOCKED: ATOM     71  C41 UNL     1      10.353   4.069  -1.130 +0.00 +0.00    +0.040 C  
DOCKED: BRANCH  70  72
DOCKED: ATOM     72  O13 UNL     1      10.919   3.483   1.137 +0.00 -0.00    -0.390 OA 
DOCKED: ATOM     73  H65 UNL     1      11.775   3.035   0.988 +0.00 +0.00    +0.210 HD 
DOCKED: ENDBRANCH  70  72
DOCKED: ENDBRANCH   1  70
DOCKED: TORSDOF 32
DOCKED: TER
DOCKED: ENDMDL
________________________________________________________________________________


    FINAL DOCKED STATE:
    ________________________


Run:   17 / 20
Time taken for this run:   5.815s

DOCKED: MODEL        17
DOCKED: USER    Run = 17
DOCKED: USER
DOCKED: USER    Estimated Free Energy of Binding    =  +9.55 kcal/mol  [=(1)+(2)+(3)-(4)]
DOCKED: USER
DOCKED: USER    (1) Final Intermolecular Energy     =  +0.00 kcal/mol
DOCKED: USER        vdW + Hbond + desolv Energy     =  +0.00 kcal/mol
DOCKED: USER        Electrostatic Energy            =  +0.00 kcal/mol
DOCKED: USER        Moving Ligand-Fixed Receptor    =  +0.00 kcal/mol
DOCKED: USER        Moving Ligand-Moving Receptor   =  +0.00 kcal/mol
DOCKED: USER    (2) Final Total Internal Energy     = -25.30 kcal/mol
DOCKED: USER    (3) Torsional Free Energy           =  +9.55 kcal/mol
DOCKED: USER    (4) Unbound System's Energy         = -25.30 kcal/mol
DOCKED: USER
DOCKED: USER
DOCKED: REMARK  Name = ligands/ligand_27.pdb
DOCKED: REMARK  40 active torsions:
DOCKED: REMARK  status: ('A' for Active; 'I' for Inactive)
DOCKED: REMARK    1  A    between atoms: C1_1  and  S1_2
DOCKED: REMARK    2  A    between atoms: S1_2  and  C2_3
DOCKED: REMARK    3  A    between atoms: C2_3  and  C3_4
DOCKED: REMARK    4  A    between atoms: C3_4  and  C4_5
DOCKED: REMARK    5  A    between atoms: C4_5  and  N1_6
DOCKED: REMARK    6  A    between atoms: C4_5  and  C12_17
DOCKED: REMARK    7  A    between atoms: C5_7  and  C6_9
DOCKED: REMARK    8  A    between atoms: C6_9  and  N2_10
DOCKED: REMARK    9  A    between atoms: C6_9  and  C9_14
DOCKED: REMARK   10  A    between atoms: C7_11  and  C8_12
DOCKED: REMARK   11  A    between atoms: C9_14  and  C10_15
DOCKED: REMARK   12  A    between atoms: C9_14  and  C11_16
DOCKED: REMARK   13  A    between atoms: N3_19  and  C13_20
DOCKED: REMARK   14  A    between atoms: C13_20  and  C14_21
DOCKED: REMARK   15  A    between atoms: C13_20  and  C18_25
DOCKED: REMARK   16  A    between atoms: C14_21  and  C15_22
DOCKED: REMARK   17  A    between atoms: C15_22  and  C16_23
DOCKED: REMARK   18  A    between atoms: C15_22  and  C17_24
DOCKED: REMARK   19  A    between atoms: C18_25  and  O4_26
DOCKED: REMARK   20  A    between atoms: C18_25  and  C19_27
DOCKED: REMARK   21  A    between atoms: C19_27  and  C20_28
DOCKED: REMARK   22  A    between atoms: N4_30  and  C21_31
DOCKED: REMARK   23  A    between atoms: C21_31  and  C22_32
DOCKED: REMARK   24  A    between atoms: C21_31  and  C40_60
DOCKED: REMARK   25  A    between atoms: N5_34  and  C23_35
DOCKED: REMARK   26  A    between atoms: C23_35  and  C24_36
DOCKED: REMARK   27  A    between atoms: C23_35  and  C25_37
DOCKED: REMARK   28  A    between atoms: N6_39  and  C26_40
DOCKED: REMARK   29  A    between atoms: C26_40  and  C27_41
DOCKED: REMARK   30  A    between atoms: C26_40  and  C30_46
DOCKED: REMARK   31  A    between atoms: C27_41  and  C28_42
DOCKED: REMARK   32  A    between atoms: C28_42  and  C29_43
DOCKED: REMARK   33  A    between atoms: C29_43  and  O9_45
DOCKED: REMARK   34  A    between atoms: N7_48  and  C31_49
DOCKED: REMARK   35  A    between atoms: C31_49  and  C32_50
DOCKED: REMARK   36  A    between atoms: C31_49  and  C39_57
DOCKED: REMARK   37  A    between atoms: C32_50  and  C33_51
DOCKED: REMARK   38  A    between atoms: C39_57  and  O12_59
DOCKED: REMARK   39  A    between atoms: C40_60  and  C41_61
DOCKED: REMARK   40  A    between atoms: C40_60  and  O13_62
DOCKED: REMARK                            x       y       z     vdW  Elec       q    Type
DOCKED: REMARK                         _______ _______ _______ _____ _____    ______ ____
DOCKED: USER                              x       y       z     vdW  Elec       q    Type
DOCKED: USER                           _______ _______ _______ _____ _____    ______ ____
DOCKED: ROOT
DOCKED: ATOM      1  C21 UNL     1       2.102  -2.837   0.101 +0.00 +0.00    +0.187 C  
DOCKED: ENDROOT
DOCKED: BRANCH   1   2
DOCKED: ATOM      2  C22 UNL     1       1.783  -2.288  -1.302 +0.00 +0.00    +0.236 C  
DOCKED: ATOM      3  O6  UNL     1       1.378  -1.135  -1.485 +0.00 -0.00    -0.274 OA 
DOCKED: ATOM      4  N5  UNL     1       1.799  -3.208  -2.331 +0.00 -0.00    -0.303 N  
DOCKED: ATOM      5  H39 UNL     1       2.106  -4.161  -2.119 +0.00 +0.00    +0.149 HD 
DOCKED: BRANCH   4   6
DOCKED: ATOM      6  C23 UNL     1       1.465  -2.818  -3.699 +0.00 +0.00    +0.156 C  
DOCKED: ATOM      7  C24 UNL     1       2.140  -1.503  -4.067 +0.00 +0.00    +0.038 C  
DOCKED: BRANCH   6   8
DOCKED: ATOM      8  C25 UNL     1       1.907  -3.912  -4.682 +0.00 +0.00    +0.234 C  
DOCKED: ATOM      9  O7  UNL     1       1.990  -3.727  -5.895 +0.00 -0.00    -0.274 OA 
DOCKED: ATOM     10  N6  UNL     1       2.328  -5.085  -4.102 +0.00 -0.00    -0.302 N  
DOCKED: ATOM     11  H44 UNL     1       2.200  -5.173  -3.098 +0.00 +0.00    +0.150 HD 
DOCKED: BRANCH  10  12
DOCKED: ATOM     12  C26 UNL     1       2.830  -6.195  -4.894 +0.00 +0.00    +0.159 C  
DOCKED: BRANCH  12  13
DOCKED: ATOM     13  C30 UNL     1       2.914  -7.490  -4.036 +0.00 +0.00    +0.234 C  
DOCKED: ATOM     14  O10 UNL     1       2.213  -8.484  -4.244 +0.00 -0.00    -0.274 OA 
DOCKED: ATOM     15  N7  UNL     1       3.800  -7.418  -2.996 +0.00 -0.00    -0.301 N  
DOCKED: ATOM     16  H51 UNL     1       4.456  -6.629  -2.963 +0.00 +0.00    +0.150 HD 
DOCKED: BRANCH  15  17
DOCKED: ATOM     17  C31 UNL     1       3.966  -8.469  -1.984 +0.00 +0.00    +0.186 C  
DOCKED: BRANCH  17  18
DOCKED: ATOM     18  C39 UNL     1       4.279  -7.781  -0.655 +0.00 +0.00    +0.326 C  
DOCKED: ATOM     19  O11 UNL     1       4.511  -8.336   0.408 +0.00 -0.00    -0.249 OA 
DOCKED: BRANCH  18  20
DOCKED: ATOM     20  O12 UNL     1       4.322  -6.440  -0.762 +0.00 -0.00    -0.479 OA 
DOCKED: ATOM     21  H60 UNL     1       4.960  -6.244  -1.479 +0.00 +0.00    +0.295 HD 
DOCKED: ENDBRANCH  18  20
DOCKED: ENDBRANCH  17  18
DOCKED: BRANCH  17  22
DOCKED: ATOM     22  C32 UNL     1       5.086  -9.433  -2.374 +0.00 +0.00    +0.069 C  
DOCKED: BRANCH  22  23
DOCKED: ATOM     23  C33 UNL     1       6.375  -8.737  -2.732 +0.00 -0.00    -0.045 A  
DOCKED: ATOM     24  C34 UNL     1       6.674  -8.443  -4.072 +0.00 +0.00    +0.004 A  
DOCKED: ATOM     25  C35 UNL     1       7.867  -7.794  -4.406 +0.00 +0.00    +0.000 A  
DOCKED: ATOM     26  C36 UNL     1       8.768  -7.427  -3.407 +0.00 +0.00    +0.000 A  
DOCKED: ATOM     27  C37 UNL     1       8.480  -7.710  -2.076 +0.00 +0.00    +0.000 A  
DOCKED: ATOM     28  C38 UNL     1       7.290  -8.362  -1.735 +0.00 +0.00    +0.004 A  
DOCKED: ENDBRANCH  22  23
DOCKED: ENDBRANCH  17  22
DOCKED: ENDBRANCH  15  17
DOCKED: ENDBRANCH  12  13
DOCKED: BRANCH  12  29
DOCKED: ATOM     29  C27 UNL     1       4.205  -5.900  -5.511 +0.00 +0.00    +0.043 C  
DOCKED: BRANCH  29  30
DOCKED: ATOM     30  C28 UNL     1       4.883  -4.681  -4.893 +0.00 +0.00    +0.123 C  
DOCKED: BRANCH  30  31
DOCKED: ATOM     31  C29 UNL     1       5.219  -4.937  -3.453 +0.00 +0.00    +0.305 C  
DOCKED: ATOM     32  O8  UNL     1       6.260  -5.404  -3.013 +0.00 -0.00    -0.251 OA 
DOCKED: BRANCH  31  33
DOCKED: ATOM     33  O9  UNL     1       4.245  -4.518  -2.621 +0.00 -0.00    -0.481 OA 
DOCKED: ATOM     34  H50 UNL     1       4.653  -4.545  -1.729 +0.00 +0.00    +0.295 HD 
DOCKED: ENDBRANCH  31  33
DOCKED: ENDBRANCH  30  31
DOCKED: ENDBRANCH  29  30
DOCKED: ENDBRANCH  12  29
DOCKED: ENDBRANCH  10  12
DOCKED: ENDBRANCH   6   8
DOCKED: ENDBRANCH   4   6
DOCKED: ENDBRANCH   1   2
DOCKED: BRANCH   1  37
DOCKED: ATOM     35  C20 UNL     1       0.098  -4.241  -0.182 +0.00 +0.00    +0.216 C  
DOCKED: ATOM     36  O5  UNL     1      -0.572  -3.293  -0.584 +0.00 -0.00    -0.276 OA 
DOCKED: ATOM     37  N4  UNL     1       1.393  -4.112   0.242 +0.00 -0.00    -0.302 N  
DOCKED: ATOM     38  H37 UNL     1       1.875  -4.905   0.646 +0.00 +0.00    +0.150 HD 
DOCKED: BRANCH  35  39
DOCKED: ATOM     39  C19 UNL     1      -0.442  -5.652  -0.182 +0.00 +0.00    +0.129 C  
DOCKED: BRANCH  39  40
DOCKED: ATOM     40  C18 UNL     1       0.682  -6.697  -0.279 +0.00 +0.00    +0.143 C  
DOCKED: BRANCH  40  41
DOCKED: ATOM     41  O4  UNL     1       1.753  -6.202  -1.080 +0.00 -0.00    -0.389 OA 
DOCKED: ATOM     42  H34 UNL     1       2.405  -5.771  -0.498 +0.00 +0.00    +0.210 HD 
DOCKED: ENDBRANCH  40  41
DOCKED: BRANCH  40  43
DOCKED: ATOM     43  C13 UNL     1       1.167  -7.209   1.120 +0.00 +0.00    +0.102 C  
DOCKED: BRANCH  43  46
DOCKED: ATOM     44  C12 UNL     1       3.233  -7.093   2.546 +0.00 +0.00    +0.234 C  
DOCKED: ATOM     45  O3  UNL     1       2.720  -7.801   3.414 +0.00 -0.00    -0.274 OA 
DOCKED: ATOM     46  N3  UNL     1       2.554  -6.754   1.394 +0.00 -0.00    -0.308 N  
DOCKED: ATOM     47  H22 UNL     1       3.072  -6.290   0.648 +0.00 +0.00    +0.149 HD 
DOCKED: BRANCH  44  48
DOCKED: ATOM     48  C4  UNL     1       4.547  -6.343   2.830 +0.00 +0.00    +0.160 C  
DOCKED: BRANCH  48  49
DOCKED: ATOM     49  N1  UNL     1       5.551  -6.346   1.759 +0.00 -0.00    -0.302 N  
DOCKED: ATOM     50  C5  UNL     1       6.867  -6.625   2.060 +0.00 +0.00    +0.234 C  
DOCKED: ATOM     51  O1  UNL     1       7.183  -7.075   3.165 +0.00 -0.00    -0.274 OA 
DOCKED: ATOM     52  H9  UNL     1       5.293  -6.053   0.824 +0.00 +0.00    +0.150 HD 
DOCKED: BRANCH  50  53
DOCKED: ATOM     53  C6  UNL     1       7.946  -6.334   0.984 +0.00 +0.00    +0.161 C  
DOCKED: BRANCH  53  54
DOCKED: ATOM     54  N2  UNL     1       8.136  -4.917   0.666 +0.00 -0.00    -0.304 N  
DOCKED: ATOM     55  C7  UNL     1       7.307  -4.300  -0.247 +0.00 +0.00    +0.211 C  
DOCKED: ATOM     56  C8  UNL     1       7.845  -3.011  -0.809 +0.00 +0.00    +0.109 C  
DOCKED: ATOM     57  O2  UNL     1       6.229  -4.761  -0.618 +0.00 -0.00    -0.276 OA 
DOCKED: ATOM     58  H11 UNL     1       9.055  -4.529   0.831 +0.00 +0.00    +0.149 HD 
DOCKED: ENDBRANCH  53  54
DOCKED: BRANCH  53  59
DOCKED: ATOM     59  C9  UNL     1       9.284  -7.009   1.434 +0.00 +0.00    +0.012 C  
DOCKED: ATOM     60  C10 UNL     1       9.244  -8.535   1.311 +0.00 +0.00    +0.009 C  
DOCKED: ATOM     61  C11 UNL     1      10.511  -6.462   0.693 +0.00 +0.00    +0.009 C  
DOCKED: ENDBRANCH  53  59
DOCKED: ENDBRANCH  50  53
DOCKED: ENDBRANCH  48  49
DOCKED: BRANCH  48  62
DOCKED: ATOM     62  C3  UNL     1       4.205  -4.898   3.237 +0.00 +0.00    +0.042 C  
DOCKED: BRANCH  62  63
DOCKED: ATOM     63  C2  UNL     1       5.352  -4.248   4.002 +0.00 +0.00    +0.071 C  
DOCKED: BRANCH  63  65
DOCKED: ATOM     64  C1  UNL     1       7.945  -3.464   3.539 +0.00 +0.00    +0.084 C  
DOCKED: ATOM     65  S1  UNL     1       6.277  -3.123   2.910 +0.00 -0.00    -0.164 S  
DOCKED: ENDBRANCH  63  65
DOCKED: ENDBRANCH  62  63
DOCKED: ENDBRANCH  48  62
DOCKED: ENDBRANCH  44  48
DOCKED: ENDBRANCH  43  46
DOCKED: BRANCH  43  66
DOCKED: ATOM     66  C14 UNL     1       0.226  -6.848   2.297 +0.00 +0.00    +0.028 C  
DOCKED: BRANCH  66  67
DOCKED: ATOM     67  C15 UNL     1       0.465  -5.493   3.003 +0.00 -0.00    -0.015 C  
DOCKED: ATOM     68  C16 UNL     1       0.868  -5.742   4.460 +0.00 +0.00    +0.007 C  
DOCKED: ATOM     69  C17 UNL     1      -0.739  -4.557   2.962 +0.00 +0.00    +0.007 C  
DOCKED: ENDBRANCH  66  67
DOCKED: ENDBRANCH  43  66
DOCKED: ENDBRANCH  40  43
DOCKED: ENDBRANCH  39  40
DOCKED: ENDBRANCH  35  39
DOCKED: ENDBRANCH   1  37
DOCKED: BRANCH   1  70
DOCKED: ATOM     70  C40 UNL     1       3.615  -2.940   0.422 +0.00 +0.00    +0.141 C  
DOCKED: ATOM     71  C41 UNL     1       4.466  -2.160  -0.568 +0.00 +0.00    +0.040 C  
DOCKED: BRANCH  70  72
DOCKED: ATOM     72  O13 UNL     1       4.050  -4.309   0.436 +0.00 -0.00    -0.390 OA 
DOCKED: ATOM     73  H65 UNL     1       4.058  -4.606  -0.495 +0.00 +0.00    +0.210 HD 
DOCKED: ENDBRANCH  70  72
DOCKED: ENDBRANCH   1  70
DOCKED: TORSDOF 32
DOCKED: TER
DOCKED: ENDMDL
________________________________________________________________________________


    FINAL DOCKED STATE:
    ________________________


Run:   18 / 20
Time taken for this run:   5.815s

DOCKED: MODEL        18
DOCKED: USER    Run = 18
DOCKED: USER
DOCKED: USER    Estimated Free Energy of Binding    =  +9.55 kcal/mol  [=(1)+(2)+(3)-(4)]
DOCKED: USER
DOCKED: USER    (1) Final Intermolecular Energy     =  +0.00 kcal/mol
DOCKED: USER        vdW + Hbond + desolv Energy     =  +0.00 kcal/mol
DOCKED: USER        Electrostatic Energy            =  +0.00 kcal/mol
DOCKED: USER        Moving Ligand-Fixed Receptor    =  +0.00 kcal/mol
DOCKED: USER        Moving Ligand-Moving Receptor   =  +0.00 kcal/mol
DOCKED: USER    (2) Final Total Internal Energy     = -25.09 kcal/mol
DOCKED: USER    (3) Torsional Free Energy           =  +9.55 kcal/mol
DOCKED: USER    (4) Unbound System's Energy         = -25.09 kcal/mol
DOCKED: USER
DOCKED: USER
DOCKED: REMARK  Name = ligands/ligand_27.pdb
DOCKED: REMARK  40 active torsions:
DOCKED: REMARK  status: ('A' for Active; 'I' for Inactive)
DOCKED: REMARK    1  A    between atoms: C1_1  and  S1_2
DOCKED: REMARK    2  A    between atoms: S1_2  and  C2_3
DOCKED: REMARK    3  A    between atoms: C2_3  and  C3_4
DOCKED: REMARK    4  A    between atoms: C3_4  and  C4_5
DOCKED: REMARK    5  A    between atoms: C4_5  and  N1_6
DOCKED: REMARK    6  A    between atoms: C4_5  and  C12_17
DOCKED: REMARK    7  A    between atoms: C5_7  and  C6_9
DOCKED: REMARK    8  A    between atoms: C6_9  and  N2_10
DOCKED: REMARK    9  A    between atoms: C6_9  and  C9_14
DOCKED: REMARK   10  A    between atoms: C7_11  and  C8_12
DOCKED: REMARK   11  A    between atoms: C9_14  and  C10_15
DOCKED: REMARK   12  A    between atoms: C9_14  and  C11_16
DOCKED: REMARK   13  A    between atoms: N3_19  and  C13_20
DOCKED: REMARK   14  A    between atoms: C13_20  and  C14_21
DOCKED: REMARK   15  A    between atoms: C13_20  and  C18_25
DOCKED: REMARK   16  A    between atoms: C14_21  and  C15_22
DOCKED: REMARK   17  A    between atoms: C15_22  and  C16_23
DOCKED: REMARK   18  A    between atoms: C15_22  and  C17_24
DOCKED: REMARK   19  A    between atoms: C18_25  and  O4_26
DOCKED: REMARK   20  A    between atoms: C18_25  and  C19_27
DOCKED: REMARK   21  A    between atoms: C19_27  and  C20_28
DOCKED: REMARK   22  A    between atoms: N4_30  and  C21_31
DOCKED: REMARK   23  A    between atoms: C21_31  and  C22_32
DOCKED: REMARK   24  A    between atoms: C21_31  and  C40_60
DOCKED: REMARK   25  A    between atoms: N5_34  and  C23_35
DOCKED: REMARK   26  A    between atoms: C23_35  and  C24_36
DOCKED: REMARK   27  A    between atoms: C23_35  and  C25_37
DOCKED: REMARK   28  A    between atoms: N6_39  and  C26_40
DOCKED: REMARK   29  A    between atoms: C26_40  and  C27_41
DOCKED: REMARK   30  A    between atoms: C26_40  and  C30_46
DOCKED: REMARK   31  A    between atoms: C27_41  and  C28_42
DOCKED: REMARK   32  A    between atoms: C28_42  and  C29_43
DOCKED: REMARK   33  A    between atoms: C29_43  and  O9_45
DOCKED: REMARK   34  A    between atoms: N7_48  and  C31_49
DOCKED: REMARK   35  A    between atoms: C31_49  and  C32_50
DOCKED: REMARK   36  A    between atoms: C31_49  and  C39_57
DOCKED: REMARK   37  A    between atoms: C32_50  and  C33_51
DOCKED: REMARK   38  A    between atoms: C39_57  and  O12_59
DOCKED: REMARK   39  A    between atoms: C40_60  and  C41_61
DOCKED: REMARK   40  A    between atoms: C40_60  and  O13_62
DOCKED: REMARK                            x       y       z     vdW  Elec       q    Type
DOCKED: REMARK                         _______ _______ _______ _____ _____    ______ ____
DOCKED: USER                              x       y       z     vdW  Elec       q    Type
DOCKED: USER                           _______ _______ _______ _____ _____    ______ ____
DOCKED: ROOT
DOCKED: ATOM      1  C21 UNL     1      10.174  -2.609  -4.012 +0.00 +0.00    +0.187 C  
DOCKED: ENDROOT
DOCKED: BRANCH   1   2
DOCKED: ATOM      2  C22 UNL     1       9.991  -4.095  -4.375 +0.00 +0.00    +0.236 C  
DOCKED: ATOM      3  O6  UNL     1       9.038  -4.499  -5.052 +0.00 -0.00    -0.274 OA 
DOCKED: ATOM      4  N5  UNL     1      10.848  -4.981  -3.753 +0.00 -0.00    -0.303 N  
DOCKED: ATOM      5  H39 UNL     1      11.596  -4.597  -3.172 +0.00 +0.00    +0.149 HD 
DOCKED: BRANCH   4   6
DOCKED: ATOM      6  C23 UNL     1      10.740  -6.420  -3.978 +0.00 +0.00    +0.156 C  
DOCKED: ATOM      7  C24 UNL     1      10.275  -6.713  -5.399 +0.00 +0.00    +0.038 C  
DOCKED: BRANCH   6   8
DOCKED: ATOM      8  C25 UNL     1      12.099  -7.095  -3.736 +0.00 +0.00    +0.234 C  
DOCKED: ATOM      9  O7  UNL     1      12.209  -8.246  -3.320 +0.00 -0.00    -0.274 OA 
DOCKED: ATOM     10  N6  UNL     1      13.193  -6.367  -4.137 +0.00 -0.00    -0.302 N  
DOCKED: ATOM     11  H44 UNL     1      13.024  -5.412  -4.442 +0.00 +0.00    +0.150 HD 
DOCKED: BRANCH  10  12
DOCKED: ATOM     12  C26 UNL     1      14.545  -6.890  -4.029 +0.00 +0.00    +0.159 C  
DOCKED: BRANCH  12  13
DOCKED: ATOM     13  C30 UNL     1      14.960  -7.040  -2.538 +0.00 +0.00    +0.234 C  
DOCKED: ATOM     14  O10 UNL     1      15.479  -8.062  -2.081 +0.00 -0.00    -0.274 OA 
DOCKED: ATOM     15  N7  UNL     1      14.656  -5.957  -1.759 +0.00 -0.00    -0.301 N  
DOCKED: ATOM     16  H51 UNL     1      14.364  -5.088  -2.220 +0.00 +0.00    +0.150 HD 
DOCKED: BRANCH  15  17
DOCKED: ATOM     17  C31 UNL     1      14.845  -5.913  -0.304 +0.00 +0.00    +0.186 C  
DOCKED: BRANCH  17  18
DOCKED: ATOM     18  C39 UNL     1      14.276  -4.583   0.193 +0.00 +0.00    +0.326 C  
DOCKED: ATOM     19  O11 UNL     1      13.714  -4.392   1.260 +0.00 -0.00    -0.249 OA 
DOCKED: BRANCH  18  20
DOCKED: ATOM     20  O12 UNL     1      14.490  -3.572  -0.670 +0.00 -0.00    -0.479 OA 
DOCKED: ATOM     21  H60 UNL     1      14.101  -3.855  -1.523 +0.00 +0.00    +0.295 HD 
DOCKED: ENDBRANCH  18  20
DOCKED: ENDBRANCH  17  18
DOCKED: BRANCH  17  22
DOCKED: ATOM     22  C32 UNL     1      16.325  -6.040   0.060 +0.00 +0.00    +0.069 C  
DOCKED: BRANCH  22  23
DOCKED: ATOM     23  C33 UNL     1      17.197  -5.016  -0.621 +0.00 -0.00    -0.045 A  
DOCKED: ATOM     24  C34 UNL     1      17.857  -5.333  -1.820 +0.00 +0.00    +0.004 A  
DOCKED: ATOM     25  C35 UNL     1      18.665  -4.384  -2.456 +0.00 +0.00    +0.000 A  
DOCKED: ATOM     26  C36 UNL     1      18.814  -3.111  -1.907 +0.00 +0.00    +0.000 A  
DOCKED: ATOM     27  C37 UNL     1      18.162  -2.786  -0.722 +0.00 +0.00    +0.000 A  
DOCKED: ATOM     28  C38 UNL     1      17.356  -3.732  -0.079 +0.00 +0.00    +0.004 A  
DOCKED: ENDBRANCH  22  23
DOCKED: ENDBRANCH  17  22
DOCKED: ENDBRANCH  15  17
DOCKED: ENDBRANCH  12  13
DOCKED: BRANCH  12  29
DOCKED: ATOM     29  C27 UNL     1      15.572  -6.016  -4.762 +0.00 +0.00    +0.043 C  
DOCKED: BRANCH  29  30
DOCKED: ATOM     30  C28 UNL     1      15.080  -4.592  -4.997 +0.00 +0.00    +0.123 C  
DOCKED: BRANCH  30  31
DOCKED: ATOM     31  C29 UNL     1      14.852  -3.889  -3.690 +0.00 +0.00    +0.305 C  
DOCKED: ATOM     32  O8  UNL     1      15.705  -3.448  -2.934 +0.00 -0.00    -0.251 OA 
DOCKED: BRANCH  31  33
DOCKED: ATOM     33  O9  UNL     1      13.541  -3.708  -3.433 +0.00 -0.00    -0.481 OA 
DOCKED: ATOM     34  H50 UNL     1      13.521  -3.049  -2.706 +0.00 +0.00    +0.295 HD 
DOCKED: ENDBRANCH  31  33
DOCKED: ENDBRANCH  30  31
DOCKED: ENDBRANCH  29  30
DOCKED: ENDBRANCH  12  29
DOCKED: ENDBRANCH  10  12
DOCKED: ENDBRANCH   6   8
DOCKED: ENDBRANCH   4   6
DOCKED: ENDBRANCH   1   2
DOCKED: BRANCH   1  37
DOCKED: ATOM     35  C20 UNL     1       9.425  -3.222  -1.747 +0.00 +0.00    +0.216 C  
DOCKED: ATOM     36  O5  UNL     1       8.456  -3.842  -2.179 +0.00 -0.00    -0.276 OA 
DOCKED: ATOM     37  N4  UNL     1      10.285  -2.527  -2.554 +0.00 -0.00    -0.302 N  
DOCKED: ATOM     38  H37 UNL     1      11.017  -1.960  -2.144 +0.00 +0.00    +0.150 HD 
DOCKED: BRANCH  35  39
DOCKED: ATOM     39  C19 UNL     1       9.780  -3.226  -0.279 +0.00 +0.00    +0.129 C  
DOCKED: BRANCH  39  40
DOCKED: ATOM     40  C18 UNL     1      11.301  -3.184  -0.055 +0.00 +0.00    +0.143 C  
DOCKED: BRANCH  40  41
DOCKED: ATOM     41  O4  UNL     1      11.988  -3.564  -1.246 +0.00 -0.00    -0.389 OA 
DOCKED: ATOM     42  H34 UNL     1      12.602  -2.848  -1.494 +0.00 +0.00    +0.210 HD 
DOCKED: ENDBRANCH  40  41
DOCKED: BRANCH  40  43
DOCKED: ATOM     43  C13 UNL     1      11.800  -1.812   0.513 +0.00 +0.00    +0.102 C  
DOCKED: BRANCH  43  46
DOCKED: ATOM     44  C12 UNL     1      13.985  -0.582   0.681 +0.00 +0.00    +0.234 C  
DOCKED: ATOM     45  O3  UNL     1      13.571   0.104   1.618 +0.00 -0.00    -0.274 OA 
DOCKED: ATOM     46  N3  UNL     1      13.195  -1.541   0.081 +0.00 -0.00    -0.308 N  
DOCKED: ATOM     47  H22 UNL     1      13.631  -2.174  -0.588 +0.00 +0.00    +0.149 HD 
DOCKED: BRANCH  44  48
DOCKED: ATOM     48  C4  UNL     1      15.300  -0.214  -0.029 +0.00 +0.00    +0.160 C  
DOCKED: BRANCH  48  49
DOCKED: ATOM     49  N1  UNL     1      15.190   0.245  -1.420 +0.00 -0.00    -0.302 N  
DOCKED: ATOM     50  C5  UNL     1      14.743  -0.625  -2.391 +0.00 +0.00    +0.234 C  
DOCKED: ATOM     51  O1  UNL     1      14.236  -1.709  -2.086 +0.00 -0.00    -0.274 OA 
DOCKED: ATOM     52  H9  UNL     1      15.530   1.164  -1.677 +0.00 +0.00    +0.150 HD 
DOCKED: BRANCH  50  53
DOCKED: ATOM     53  C6  UNL     1      14.914  -0.220  -3.879 +0.00 +0.00    +0.161 C  
DOCKED: BRANCH  53  54
DOCKED: ATOM     54  N2  UNL     1      13.852   0.635  -4.412 +0.00 -0.00    -0.304 N  
DOCKED: ATOM     55  C7  UNL     1      13.566   1.838  -3.801 +0.00 +0.00    +0.211 C  
DOCKED: ATOM     56  C8  UNL     1      12.217   2.410  -4.148 +0.00 +0.00    +0.109 C  
DOCKED: ATOM     57  O2  UNL     1      14.317   2.401  -3.006 +0.00 -0.00    -0.276 OA 
DOCKED: ATOM     58  H11 UNL     1      13.134   0.185  -4.963 +0.00 +0.00    +0.149 HD 
DOCKED: ENDBRANCH  53  54
DOCKED: BRANCH  53  59
DOCKED: ATOM     59  C9  UNL     1      16.325   0.435  -4.051 +0.00 +0.00    +0.012 C  
DOCKED: ATOM     60  C10 UNL     1      17.466  -0.526  -3.707 +0.00 +0.00    +0.009 C  
DOCKED: ATOM     61  C11 UNL     1      16.546   1.023  -5.450 +0.00 +0.00    +0.009 C  
DOCKED: ENDBRANCH  53  59
DOCKED: ENDBRANCH  50  53
DOCKED: ENDBRANCH  48  49
DOCKED: BRANCH  48  62
DOCKED: ATOM     62  C3  UNL     1      16.038   0.834   0.823 +0.00 +0.00    +0.042 C  
DOCKED: BRANCH  62  63
DOCKED: ATOM     63  C2  UNL     1      17.510   0.479   0.992 +0.00 +0.00    +0.071 C  
DOCKED: BRANCH  63  65
DOCKED: ATOM     64  C1  UNL     1      17.682   2.306  -1.055 +0.00 +0.00    +0.084 C  
DOCKED: ATOM     65  S1  UNL     1      18.395   0.706  -0.583 +0.00 -0.00    -0.164 S  
DOCKED: ENDBRANCH  63  65
DOCKED: ENDBRANCH  62  63
DOCKED: ENDBRANCH  48  62
DOCKED: ENDBRANCH  44  48
DOCKED: ENDBRANCH  43  46
DOCKED: BRANCH  43  66
DOCKED: ATOM     66  C14 UNL     1      10.879  -0.609   0.189 +0.00 +0.00    +0.028 C  
DOCKED: BRANCH  66  67
DOCKED: ATOM     67  C15 UNL     1      11.224   0.228  -1.064 +0.00 -0.00    -0.015 C  
DOCKED: ATOM     68  C16 UNL     1      11.833   1.565  -0.632 +0.00 +0.00    +0.007 C  
DOCKED: ATOM     69  C17 UNL     1      10.031   0.485  -1.980 +0.00 +0.00    +0.007 C  
DOCKED: ENDBRANCH  66  67
DOCKED: ENDBRANCH  43  66
DOCKED: ENDBRANCH  40  43
DOCKED: ENDBRANCH  39  40
DOCKED: ENDBRANCH  35  39
DOCKED: ENDBRANCH   1  37
DOCKED: BRANCH   1  70
DOCKED: ATOM     70  C40 UNL     1      11.337  -1.905  -4.756 +0.00 +0.00    +0.141 C  
DOCKED: ATOM     71  C41 UNL     1      11.919  -2.771  -5.863 +0.00 +0.00    +0.040 C  
DOCKED: BRANCH  70  72
DOCKED: ATOM     72  O13 UNL     1      12.388  -1.541  -3.846 +0.00 -0.00    -0.390 OA 
DOCKED: ATOM     73  H65 UNL     1      12.350  -2.181  -3.109 +0.00 +0.00    +0.210 HD 
DOCKED: ENDBRANCH  70  72
DOCKED: ENDBRANCH   1  70
DOCKED: TORSDOF 32
DOCKED: TER
DOCKED: ENDMDL
________________________________________________________________________________


    FINAL DOCKED STATE:
    ________________________


Run:   19 / 20
Time taken for this run:   5.815s

DOCKED: MODEL        19
DOCKED: USER    Run = 19
DOCKED: USER
DOCKED: USER    Estimated Free Energy of Binding    =  +9.55 kcal/mol  [=(1)+(2)+(3)-(4)]
DOCKED: USER
DOCKED: USER    (1) Final Intermolecular Energy     =  +0.00 kcal/mol
DOCKED: USER        vdW + Hbond + desolv Energy     =  +0.00 kcal/mol
DOCKED: USER        Electrostatic Energy            =  +0.00 kcal/mol
DOCKED: USER        Moving Ligand-Fixed Receptor    =  +0.00 kcal/mol
DOCKED: USER        Moving Ligand-Moving Receptor   =  +0.00 kcal/mol
DOCKED: USER    (2) Final Total Internal Energy     = -25.50 kcal/mol
DOCKED: USER    (3) Torsional Free Energy           =  +9.55 kcal/mol
DOCKED: USER    (4) Unbound System's Energy         = -25.50 kcal/mol
DOCKED: USER
DOCKED: USER
DOCKED: REMARK  Name = ligands/ligand_27.pdb
DOCKED: REMARK  40 active torsions:
DOCKED: REMARK  status: ('A' for Active; 'I' for Inactive)
DOCKED: REMARK    1  A    between atoms: C1_1  and  S1_2
DOCKED: REMARK    2  A    between atoms: S1_2  and  C2_3
DOCKED: REMARK    3  A    between atoms: C2_3  and  C3_4
DOCKED: REMARK    4  A    between atoms: C3_4  and  C4_5
DOCKED: REMARK    5  A    between atoms: C4_5  and  N1_6
DOCKED: REMARK    6  A    between atoms: C4_5  and  C12_17
DOCKED: REMARK    7  A    between atoms: C5_7  and  C6_9
DOCKED: REMARK    8  A    between atoms: C6_9  and  N2_10
DOCKED: REMARK    9  A    between atoms: C6_9  and  C9_14
DOCKED: REMARK   10  A    between atoms: C7_11  and  C8_12
DOCKED: REMARK   11  A    between atoms: C9_14  and  C10_15
DOCKED: REMARK   12  A    between atoms: C9_14  and  C11_16
DOCKED: REMARK   13  A    between atoms: N3_19  and  C13_20
DOCKED: REMARK   14  A    between atoms: C13_20  and  C14_21
DOCKED: REMARK   15  A    between atoms: C13_20  and  C18_25
DOCKED: REMARK   16  A    between atoms: C14_21  and  C15_22
DOCKED: REMARK   17  A    between atoms: C15_22  and  C16_23
DOCKED: REMARK   18  A    between atoms: C15_22  and  C17_24
DOCKED: REMARK   19  A    between atoms: C18_25  and  O4_26
DOCKED: REMARK   20  A    between atoms: C18_25  and  C19_27
DOCKED: REMARK   21  A    between atoms: C19_27  and  C20_28
DOCKED: REMARK   22  A    between atoms: N4_30  and  C21_31
DOCKED: REMARK   23  A    between atoms: C21_31  and  C22_32
DOCKED: REMARK   24  A    between atoms: C21_31  and  C40_60
DOCKED: REMARK   25  A    between atoms: N5_34  and  C23_35
DOCKED: REMARK   26  A    between atoms: C23_35  and  C24_36
DOCKED: REMARK   27  A    between atoms: C23_35  and  C25_37
DOCKED: REMARK   28  A    between atoms: N6_39  and  C26_40
DOCKED: REMARK   29  A    between atoms: C26_40  and  C27_41
DOCKED: REMARK   30  A    between atoms: C26_40  and  C30_46
DOCKED: REMARK   31  A    between atoms: C27_41  and  C28_42
DOCKED: REMARK   32  A    between atoms: C28_42  and  C29_43
DOCKED: REMARK   33  A    between atoms: C29_43  and  O9_45
DOCKED: REMARK   34  A    between atoms: N7_48  and  C31_49
DOCKED: REMARK   35  A    between atoms: C31_49  and  C32_50
DOCKED: REMARK   36  A    between atoms: C31_49  and  C39_57
DOCKED: REMARK   37  A    between atoms: C32_50  and  C33_51
DOCKED: REMARK   38  A    between atoms: C39_57  and  O12_59
DOCKED: REMARK   39  A    between atoms: C40_60  and  C41_61
DOCKED: REMARK   40  A    between atoms: C40_60  and  O13_62
DOCKED: REMARK                            x       y       z     vdW  Elec       q    Type
DOCKED: REMARK                         _______ _______ _______ _____ _____    ______ ____
DOCKED: USER                              x       y       z     vdW  Elec       q    Type
DOCKED: USER                           _______ _______ _______ _____ _____    ______ ____
DOCKED: ROOT
DOCKED: ATOM      1  C21 UNL     1       8.896  -6.527  -4.063 +0.00 +0.00    +0.187 C  
DOCKED: ENDROOT
DOCKED: BRANCH   1   2
DOCKED: ATOM      2  C22 UNL     1       9.847  -5.396  -4.500 +0.00 +0.00    +0.236 C  
DOCKED: ATOM      3  O6  UNL     1       9.609  -4.205  -4.269 +0.00 -0.00    -0.274 OA 
DOCKED: ATOM      4  N5  UNL     1      10.891  -5.766  -5.324 +0.00 -0.00    -0.303 N  
DOCKED: ATOM      5  H39 UNL     1      11.022  -6.762  -5.515 +0.00 +0.00    +0.149 HD 
DOCKED: BRANCH   4   6
DOCKED: ATOM      6  C23 UNL     1      11.831  -4.776  -5.844 +0.00 +0.00    +0.156 C  
DOCKED: ATOM      7  C24 UNL     1      11.101  -3.508  -6.269 +0.00 +0.00    +0.038 C  
DOCKED: BRANCH   6   8
DOCKED: ATOM      8  C25 UNL     1      12.877  -4.429  -4.774 +0.00 +0.00    +0.234 C  
DOCKED: ATOM      9  O7  UNL     1      13.977  -3.951  -5.045 +0.00 -0.00    -0.274 OA 
DOCKED: ATOM     10  N6  UNL     1      12.454  -4.571  -3.474 +0.00 -0.00    -0.302 N  
DOCKED: ATOM     11  H44 UNL     1      11.543  -5.000  -3.331 +0.00 +0.00    +0.150 HD 
DOCKED: BRANCH  10  12
DOCKED: ATOM     12  C26 UNL     1      13.306  -4.228  -2.348 +0.00 +0.00    +0.159 C  
DOCKED: BRANCH  12  13
DOCKED: ATOM     13  C30 UNL     1      14.707  -4.889  -2.496 +0.00 +0.00    +0.234 C  
DOCKED: ATOM     14  O10 UNL     1      15.756  -4.328  -2.170 +0.00 -0.00    -0.274 OA 
DOCKED: ATOM     15  N7  UNL     1      14.683  -6.133  -3.064 +0.00 -0.00    -0.301 N  
DOCKED: ATOM     16  H51 UNL     1      13.778  -6.604  -3.176 +0.00 +0.00    +0.150 HD 
DOCKED: BRANCH  15  17
DOCKED: ATOM     17  C31 UNL     1      15.885  -6.901  -3.410 +0.00 +0.00    +0.186 C  
DOCKED: BRANCH  17  18
DOCKED: ATOM     18  C39 UNL     1      15.425  -8.256  -3.948 +0.00 +0.00    +0.326 C  
DOCKED: ATOM     19  O11 UNL     1      16.104  -9.268  -4.034 +0.00 -0.00    -0.249 OA 
DOCKED: BRANCH  18  20
DOCKED: ATOM     20  O12 UNL     1      14.127  -8.261  -4.303 +0.00 -0.00    -0.479 OA 
DOCKED: ATOM     21  H60 UNL     1      13.615  -8.190  -3.471 +0.00 +0.00    +0.295 HD 
DOCKED: ENDBRANCH  18  20
DOCKED: ENDBRANCH  17  18
DOCKED: BRANCH  17  22
DOCKED: ATOM     22  C32 UNL     1      16.791  -7.080  -2.192 +0.00 +0.00    +0.069 C  
DOCKED: BRANCH  22  23
DOCKED: ATOM     23  C33 UNL     1      16.071  -7.637  -0.990 +0.00 -0.00    -0.045 A  
DOCKED: ATOM     24  C34 UNL     1      15.859  -9.019  -0.868 +0.00 +0.00    +0.004 A  
DOCKED: ATOM     25  C35 UNL     1      15.194  -9.540   0.247 +0.00 +0.00    +0.000 A  
DOCKED: ATOM     26  C36 UNL     1      14.742  -8.686   1.252 +0.00 +0.00    +0.000 A  
DOCKED: ATOM     27  C37 UNL     1      14.949  -7.315   1.144 +0.00 +0.00    +0.000 A  
DOCKED: ATOM     28  C38 UNL     1      15.610  -6.788   0.029 +0.00 +0.00    +0.004 A  
DOCKED: ENDBRANCH  22  23
DOCKED: ENDBRANCH  17  22
DOCKED: ENDBRANCH  15  17
DOCKED: ENDBRANCH  12  13
DOCKED: BRANCH  12  29
DOCKED: ATOM     29  C27 UNL     1      12.689  -4.631  -1.002 +0.00 +0.00    +0.043 C  
DOCKED: BRANCH  29  30
DOCKED: ATOM     30  C28 UNL     1      11.670  -5.758  -1.129 +0.00 +0.00    +0.123 C  
DOCKED: BRANCH  30  31
DOCKED: ATOM     31  C29 UNL     1      12.281  -6.946  -1.815 +0.00 +0.00    +0.305 C  
DOCKED: ATOM     32  O8  UNL     1      13.142  -7.690  -1.368 +0.00 -0.00    -0.251 OA 
DOCKED: BRANCH  31  33
DOCKED: ATOM     33  O9  UNL     1      11.717  -7.186  -3.015 +0.00 -0.00    -0.481 OA 
DOCKED: ATOM     34  H50 UNL     1      12.129  -8.024  -3.319 +0.00 +0.00    +0.295 HD 
DOCKED: ENDBRANCH  31  33
DOCKED: ENDBRANCH  30  31
DOCKED: ENDBRANCH  29  30
DOCKED: ENDBRANCH  12  29
DOCKED: ENDBRANCH  10  12
DOCKED: ENDBRANCH   6   8
DOCKED: ENDBRANCH   4   6
DOCKED: ENDBRANCH   1   2
DOCKED: BRANCH   1  37
DOCKED: ATOM     35  C20 UNL     1       9.228  -8.261  -5.781 +0.00 +0.00    +0.216 C  
DOCKED: ATOM     36  O5  UNL     1       8.420  -7.734  -6.542 +0.00 -0.00    -0.276 OA 
DOCKED: ATOM     37  N4  UNL     1       9.482  -7.789  -4.521 +0.00 -0.00    -0.302 N  
DOCKED: ATOM     38  H37 UNL     1      10.090  -8.308  -3.900 +0.00 +0.00    +0.150 HD 
DOCKED: BRANCH  35  39
DOCKED: ATOM     39  C19 UNL     1      10.059  -9.449  -6.204 +0.00 +0.00    +0.129 C  
DOCKED: BRANCH  39  40
DOCKED: ATOM     40  C18 UNL     1      11.562  -9.124  -6.219 +0.00 +0.00    +0.143 C  
DOCKED: BRANCH  40  41
DOCKED: ATOM     41  O4  UNL     1      11.909  -8.326  -5.089 +0.00 -0.00    -0.389 OA 
DOCKED: ATOM     42  H34 UNL     1      12.054  -8.913  -4.324 +0.00 +0.00    +0.210 HD 
DOCKED: ENDBRANCH  40  41
DOCKED: BRANCH  40  43
DOCKED: ATOM     43  C13 UNL     1      12.464 -10.398  -6.352 +0.00 +0.00    +0.102 C  
DOCKED: BRANCH  43  46
DOCKED: ATOM     44  C12 UNL     1      14.206 -11.595  -4.992 +0.00 +0.00    +0.234 C  
DOCKED: ATOM     45  O3  UNL     1      14.552 -12.273  -5.962 +0.00 -0.00    -0.274 OA 
DOCKED: ATOM     46  N3  UNL     1      13.201 -10.655  -5.088 +0.00 -0.00    -0.308 N  
DOCKED: ATOM     47  H22 UNL     1      13.054 -10.025  -4.300 +0.00 +0.00    +0.149 HD 
DOCKED: BRANCH  44  48
DOCKED: ATOM     48  C4  UNL     1      14.698 -11.952  -3.579 +0.00 +0.00    +0.160 C  
DOCKED: BRANCH  48  49
DOCKED: ATOM     49  N1  UNL     1      13.674 -12.033  -2.528 +0.00 -0.00    -0.302 N  
DOCKED: ATOM     50  C5  UNL     1      13.064 -10.879  -2.083 +0.00 +0.00    +0.234 C  
DOCKED: ATOM     51  O1  UNL     1      13.204  -9.813  -2.690 +0.00 -0.00    -0.274 OA 
DOCKED: ATOM     52  H9  UNL     1      13.488 -12.917  -2.070 +0.00 +0.00    +0.150 HD 
DOCKED: BRANCH  50  53
DOCKED: ATOM     53  C6  UNL     1      12.215 -10.949  -0.786 +0.00 +0.00    +0.161 C  
DOCKED: BRANCH  53  54
DOCKED: ATOM     54  N2  UNL     1      10.774 -11.094  -0.998 +0.00 -0.00    -0.304 N  
DOCKED: ATOM     55  C7  UNL     1      10.129 -10.291  -1.915 +0.00 +0.00    +0.211 C  
DOCKED: ATOM     56  C8  UNL     1       8.635 -10.219  -1.742 +0.00 +0.00    +0.109 C  
DOCKED: ATOM     57  O2  UNL     1      10.706  -9.645  -2.789 +0.00 -0.00    -0.276 OA 
DOCKED: ATOM     58  H11 UNL     1      10.238 -11.500  -0.242 +0.00 +0.00    +0.149 HD 
DOCKED: ENDBRANCH  53  54
DOCKED: BRANCH  53  59
DOCKED: ATOM     59  C9  UNL     1      12.785 -12.095   0.114 +0.00 +0.00    +0.012 C  
DOCKED: ATOM     60  C10 UNL     1      12.802 -11.724   1.600 +0.00 +0.00    +0.009 C  
DOCKED: ATOM     61  C11 UNL     1      12.053 -13.429  -0.079 +0.00 +0.00    +0.009 C  
DOCKED: ENDBRANCH  53  59
DOCKED: ENDBRANCH  50  53
DOCKED: ENDBRANCH  48  49
DOCKED: BRANCH  48  62
DOCKED: ATOM     62  C3  UNL     1      15.488 -13.271  -3.656 +0.00 +0.00    +0.042 C  
DOCKED: BRANCH  62  63
DOCKED: ATOM     63  C2  UNL     1      16.946 -13.071  -3.263 +0.00 +0.00    +0.071 C  
DOCKED: BRANCH  63  65
DOCKED: ATOM     64  C1  UNL     1      16.219 -13.015  -0.613 +0.00 +0.00    +0.084 C  
DOCKED: ATOM     65  S1  UNL     1      17.063 -11.961  -1.825 +0.00 -0.00    -0.164 S  
DOCKED: ENDBRANCH  63  65
DOCKED: ENDBRANCH  62  63
DOCKED: ENDBRANCH  48  62
DOCKED: ENDBRANCH  44  48
DOCKED: ENDBRANCH  43  46
DOCKED: BRANCH  43  66
DOCKED: ATOM     66  C14 UNL     1      11.714 -11.670  -6.821 +0.00 +0.00    +0.028 C  
DOCKED: BRANCH  66  67
DOCKED: ATOM     67  C15 UNL     1      11.427 -12.755  -5.757 +0.00 -0.00    -0.015 C  
DOCKED: ATOM     68  C16 UNL     1      10.818 -13.986  -6.435 +0.00 +0.00    +0.007 C  
DOCKED: ATOM     69  C17 UNL     1      10.507 -12.287  -4.634 +0.00 +0.00    +0.007 C  
DOCKED: ENDBRANCH  66  67
DOCKED: ENDBRANCH  43  66
DOCKED: ENDBRANCH  40  43
DOCKED: ENDBRANCH  39  40
DOCKED: ENDBRANCH  35  39
DOCKED: ENDBRANCH   1  37
DOCKED: BRANCH   1  70
DOCKED: ATOM     70  C40 UNL     1       8.549  -6.525  -2.552 +0.00 +0.00    +0.141 C  
DOCKED: ATOM     71  C41 UNL     1       8.678  -5.142  -1.934 +0.00 +0.00    +0.040 C  
DOCKED: BRANCH  70  72
DOCKED: ATOM     72  O13 UNL     1       9.385  -7.442  -1.828 +0.00 -0.00    -0.390 OA 
DOCKED: ATOM     73  H65 UNL     1      10.146  -7.640  -2.408 +0.00 +0.00    +0.210 HD 
DOCKED: ENDBRANCH  70  72
DOCKED: ENDBRANCH   1  70
DOCKED: TORSDOF 32
DOCKED: TER
DOCKED: ENDMDL
________________________________________________________________________________


    FINAL DOCKED STATE:
    ________________________


Run:   20 / 20
Time taken for this run:   5.815s

DOCKED: MODEL        20
DOCKED: USER    Run = 20
DOCKED: USER
DOCKED: USER    Estimated Free Energy of Binding    =  +9.55 kcal/mol  [=(1)+(2)+(3)-(4)]
DOCKED: USER
DOCKED: USER    (1) Final Intermolecular Energy     =  +0.00 kcal/mol
DOCKED: USER        vdW + Hbond + desolv Energy     =  +0.00 kcal/mol
DOCKED: USER        Electrostatic Energy            =  +0.00 kcal/mol
DOCKED: USER        Moving Ligand-Fixed Receptor    =  +0.00 kcal/mol
DOCKED: USER        Moving Ligand-Moving Receptor   =  +0.00 kcal/mol
DOCKED: USER    (2) Final Total Internal Energy     = -27.05 kcal/mol
DOCKED: USER    (3) Torsional Free Energy           =  +9.55 kcal/mol
DOCKED: USER    (4) Unbound System's Energy         = -27.05 kcal/mol
DOCKED: USER
DOCKED: USER
DOCKED: REMARK  Name = ligands/ligand_27.pdb
DOCKED: REMARK  40 active torsions:
DOCKED: REMARK  status: ('A' for Active; 'I' for Inactive)
DOCKED: REMARK    1  A    between atoms: C1_1  and  S1_2
DOCKED: REMARK    2  A    between atoms: S1_2  and  C2_3
DOCKED: REMARK    3  A    between atoms: C2_3  and  C3_4
DOCKED: REMARK    4  A    between atoms: C3_4  and  C4_5
DOCKED: REMARK    5  A    between atoms: C4_5  and  N1_6
DOCKED: REMARK    6  A    between atoms: C4_5  and  C12_17
DOCKED: REMARK    7  A    between atoms: C5_7  and  C6_9
DOCKED: REMARK    8  A    between atoms: C6_9  and  N2_10
DOCKED: REMARK    9  A    between atoms: C6_9  and  C9_14
DOCKED: REMARK   10  A    between atoms: C7_11  and  C8_12
DOCKED: REMARK   11  A    between atoms: C9_14  and  C10_15
DOCKED: REMARK   12  A    between atoms: C9_14  and  C11_16
DOCKED: REMARK   13  A    between atoms: N3_19  and  C13_20
DOCKED: REMARK   14  A    between atoms: C13_20  and  C14_21
DOCKED: REMARK   15  A    between atoms: C13_20  and  C18_25
DOCKED: REMARK   16  A    between atoms: C14_21  and  C15_22
DOCKED: REMARK   17  A    between atoms: C15_22  and  C16_23
DOCKED: REMARK   18  A    between atoms: C15_22  and  C17_24
DOCKED: REMARK   19  A    between atoms: C18_25  and  O4_26
DOCKED: REMARK   20  A    between atoms: C18_25  and  C19_27
DOCKED: REMARK   21  A    between atoms: C19_27  and  C20_28
DOCKED: REMARK   22  A    between atoms: N4_30  and  C21_31
DOCKED: REMARK   23  A    between atoms: C21_31  and  C22_32
DOCKED: REMARK   24  A    between atoms: C21_31  and  C40_60
DOCKED: REMARK   25  A    between atoms: N5_34  and  C23_35
DOCKED: REMARK   26  A    between atoms: C23_35  and  C24_36
DOCKED: REMARK   27  A    between atoms: C23_35  and  C25_37
DOCKED: REMARK   28  A    between atoms: N6_39  and  C26_40
DOCKED: REMARK   29  A    between atoms: C26_40  and  C27_41
DOCKED: REMARK   30  A    between atoms: C26_40  and  C30_46
DOCKED: REMARK   31  A    between atoms: C27_41  and  C28_42
DOCKED: REMARK   32  A    between atoms: C28_42  and  C29_43
DOCKED: REMARK   33  A    between atoms: C29_43  and  O9_45
DOCKED: REMARK   34  A    between atoms: N7_48  and  C31_49
DOCKED: REMARK   35  A    between atoms: C31_49  and  C32_50
DOCKED: REMARK   36  A    between atoms: C31_49  and  C39_57
DOCKED: REMARK   37  A    between atoms: C32_50  and  C33_51
DOCKED: REMARK   38  A    between atoms: C39_57  and  O12_59
DOCKED: REMARK   39  A    between atoms: C40_60  and  C41_61
DOCKED: REMARK   40  A    between atoms: C40_60  and  O13_62
DOCKED: REMARK                            x       y       z     vdW  Elec       q    Type
DOCKED: REMARK                         _______ _______ _______ _____ _____    ______ ____
DOCKED: USER                              x       y       z     vdW  Elec       q    Type
DOCKED: USER                           _______ _______ _______ _____ _____    ______ ____
DOCKED: ROOT
DOCKED: ATOM      1  C21 UNL     1       9.331  -7.366  -0.926 +0.00 +0.00    +0.187 C  
DOCKED: ENDROOT
DOCKED: BRANCH   1   2
DOCKED: ATOM      2  C22 UNL     1       8.011  -6.900  -1.569 +0.00 +0.00    +0.236 C  
DOCKED: ATOM      3  O6  UNL     1       7.288  -7.660  -2.223 +0.00 -0.00    -0.274 OA 
DOCKED: ATOM      4  N5  UNL     1       7.765  -5.542  -1.531 +0.00 -0.00    -0.303 N  
DOCKED: ATOM      5  H39 UNL     1       8.414  -4.950  -1.008 +0.00 +0.00    +0.149 HD 
DOCKED: BRANCH   4   6
DOCKED: ATOM      6  C23 UNL     1       6.570  -4.973  -2.150 +0.00 +0.00    +0.156 C  
DOCKED: ATOM      7  C24 UNL     1       5.397  -4.986  -1.177 +0.00 +0.00    +0.038 C  
DOCKED: BRANCH   6   8
DOCKED: ATOM      8  C25 UNL     1       6.844  -3.531  -2.601 +0.00 +0.00    +0.234 C  
DOCKED: ATOM      9  O7  UNL     1       6.062  -2.887  -3.297 +0.00 -0.00    -0.274 OA 
DOCKED: ATOM     10  N6  UNL     1       7.973  -2.956  -2.067 +0.00 -0.00    -0.302 N  
DOCKED: ATOM     11  H44 UNL     1       8.585  -3.561  -1.525 +0.00 +0.00    +0.150 HD 
DOCKED: BRANCH  10  12
DOCKED: ATOM     12  C26 UNL     1       8.340  -1.579  -2.350 +0.00 +0.00    +0.159 C  
DOCKED: BRANCH  12  13
DOCKED: ATOM     13  C30 UNL     1       9.251  -1.498  -3.608 +0.00 +0.00    +0.234 C  
DOCKED: ATOM     14  O10 UNL     1       9.162  -0.601  -4.450 +0.00 -0.00    -0.274 OA 
DOCKED: ATOM     15  N7  UNL     1      10.134  -2.537  -3.729 +0.00 -0.00    -0.301 N  
DOCKED: ATOM     16  H51 UNL     1      10.263  -3.167  -2.929 +0.00 +0.00    +0.150 HD 
DOCKED: BRANCH  15  17
DOCKED: ATOM     17  C31 UNL     1      11.011  -2.738  -4.888 +0.00 +0.00    +0.186 C  
DOCKED: BRANCH  17  18
DOCKED: ATOM     18  C39 UNL     1      11.947  -1.532  -4.969 +0.00 +0.00    +0.326 C  
DOCKED: ATOM     19  O11 UNL     1      12.204  -0.882  -5.971 +0.00 -0.00    -0.249 OA 
DOCKED: BRANCH  18  20
DOCKED: ATOM     20  O12 UNL     1      12.467  -1.196  -3.773 +0.00 -0.00    -0.479 OA 
DOCKED: ATOM     21  H60 UNL     1      12.407  -1.998  -3.214 +0.00 +0.00    +0.295 HD 
DOCKED: ENDBRANCH  18  20
DOCKED: ENDBRANCH  17  18
DOCKED: BRANCH  17  22
DOCKED: ATOM     22  C32 UNL     1      10.197  -2.879  -6.174 +0.00 +0.00    +0.069 C  
DOCKED: BRANCH  22  23
DOCKED: ATOM     23  C33 UNL     1       8.973  -3.746  -6.013 +0.00 -0.00    -0.045 A  
DOCKED: ATOM     24  C34 UNL     1       7.718  -3.286  -6.441 +0.00 +0.00    +0.004 A  
DOCKED: ATOM     25  C35 UNL     1       6.581  -4.089  -6.297 +0.00 +0.00    +0.000 A  
DOCKED: ATOM     26  C36 UNL     1       6.690  -5.359  -5.730 +0.00 +0.00    +0.000 A  
DOCKED: ATOM     27  C37 UNL     1       7.930  -5.825  -5.305 +0.00 +0.00    +0.000 A  
DOCKED: ATOM     28  C38 UNL     1       9.069  -5.025  -5.445 +0.00 +0.00    +0.004 A  
DOCKED: ENDBRANCH  22  23
DOCKED: ENDBRANCH  17  22
DOCKED: ENDBRANCH  15  17
DOCKED: ENDBRANCH  12  13
DOCKED: BRANCH  12  29
DOCKED: ATOM     29  C27 UNL     1       9.043  -0.904  -1.163 +0.00 +0.00    +0.043 C  
DOCKED: BRANCH  29  30
DOCKED: ATOM     30  C28 UNL     1      10.542  -0.736  -1.380 +0.00 +0.00    +0.123 C  
DOCKED: BRANCH  30  31
DOCKED: ATOM     31  C29 UNL     1      11.262  -2.027  -1.115 +0.00 +0.00    +0.305 C  
DOCKED: ATOM     32  O8  UNL     1      12.470  -2.188  -1.021 +0.00 -0.00    -0.251 OA 
DOCKED: BRANCH  31  33
DOCKED: ATOM     33  O9  UNL     1      10.410  -3.050  -0.906 +0.00 -0.00    -0.481 OA 
DOCKED: ATOM     34  H50 UNL     1      10.830  -3.817  -1.352 +0.00 +0.00    +0.295 HD 
DOCKED: ENDBRANCH  31  33
DOCKED: ENDBRANCH  30  31
DOCKED: ENDBRANCH  29  30
DOCKED: ENDBRANCH  12  29
DOCKED: ENDBRANCH  10  12
DOCKED: ENDBRANCH   6   8
DOCKED: ENDBRANCH   4   6
DOCKED: ENDBRANCH   1   2
DOCKED: BRANCH   1  37
DOCKED: ATOM     35  C20 UNL     1      10.714  -6.069  -2.499 +0.00 +0.00    +0.216 C  
DOCKED: ATOM     36  O5  UNL     1      10.105  -5.029  -2.257 +0.00 -0.00    -0.276 OA 
DOCKED: ATOM     37  N4  UNL     1      10.371  -7.277  -1.954 +0.00 -0.00    -0.302 N  
DOCKED: ATOM     38  H37 UNL     1      10.847  -8.120  -2.252 +0.00 +0.00    +0.150 HD 
DOCKED: BRANCH  35  39
DOCKED: ATOM     39  C19 UNL     1      11.940  -6.085  -3.381 +0.00 +0.00    +0.129 C  
DOCKED: BRANCH  39  40
DOCKED: ATOM     40  C18 UNL     1      13.005  -5.083  -2.903 +0.00 +0.00    +0.143 C  
DOCKED: BRANCH  40  41
DOCKED: ATOM     41  O4  UNL     1      12.484  -3.756  -2.925 +0.00 -0.00    -0.389 OA 
DOCKED: ATOM     42  H34 UNL     1      11.747  -3.699  -2.290 +0.00 +0.00    +0.210 HD 
DOCKED: ENDBRANCH  40  41
DOCKED: BRANCH  40  43
DOCKED: ATOM     43  C13 UNL     1      13.622  -5.462  -1.513 +0.00 +0.00    +0.102 C  
DOCKED: BRANCH  43  46
DOCKED: ATOM     44  C12 UNL     1      13.432  -4.566   0.828 +0.00 +0.00    +0.234 C  
DOCKED: ATOM     45  O3  UNL     1      14.597  -4.878   1.082 +0.00 -0.00    -0.274 OA 
DOCKED: ATOM     46  N3  UNL     1      12.872  -4.808  -0.410 +0.00 -0.00    -0.308 N  
DOCKED: ATOM     47  H22 UNL     1      11.959  -4.403  -0.613 +0.00 +0.00    +0.149 HD 
DOCKED: BRANCH  44  48
DOCKED: ATOM     48  C4  UNL     1      12.477  -4.137   1.956 +0.00 +0.00    +0.160 C  
DOCKED: BRANCH  48  49
DOCKED: ATOM     49  N1  UNL     1      11.329  -3.308   1.566 +0.00 -0.00    -0.302 N  
DOCKED: ATOM     50  C5  UNL     1      11.093  -2.119   2.224 +0.00 +0.00    +0.234 C  
DOCKED: ATOM     51  O1  UNL     1      11.938  -1.637   2.984 +0.00 -0.00    -0.274 OA 
DOCKED: ATOM     52  H9  UNL     1      10.665  -3.654   0.885 +0.00 +0.00    +0.150 HD 
DOCKED: BRANCH  50  53
DOCKED: ATOM     53  C6  UNL     1       9.728  -1.415   2.005 +0.00 +0.00    +0.161 C  
DOCKED: BRANCH  53  54
DOCKED: ATOM     54  N2  UNL     1       8.562  -2.172   2.464 +0.00 -0.00    -0.304 N  
DOCKED: ATOM     55  C7  UNL     1       7.976  -3.104   1.633 +0.00 +0.00    +0.211 C  
DOCKED: ATOM     56  C8  UNL     1       6.573  -3.492   2.019 +0.00 +0.00    +0.109 C  
DOCKED: ATOM     57  O2  UNL     1       8.517  -3.567   0.630 +0.00 -0.00    -0.276 OA 
DOCKED: ATOM     58  H11 UNL     1       8.007  -1.758   3.201 +0.00 +0.00    +0.149 HD 
DOCKED: ENDBRANCH  53  54
DOCKED: BRANCH  53  59
DOCKED: ATOM     59  C9  UNL     1       9.794   0.001   2.666 +0.00 +0.00    +0.012 C  
DOCKED: ATOM     60  C10 UNL     1      10.620   0.996   1.846 +0.00 +0.00    +0.009 C  
DOCKED: ATOM     61  C11 UNL     1       8.408   0.593   2.955 +0.00 +0.00    +0.009 C  
DOCKED: ENDBRANCH  53  59
DOCKED: ENDBRANCH  50  53
DOCKED: ENDBRANCH  48  49
DOCKED: BRANCH  48  62
DOCKED: ATOM     62  C3  UNL     1      11.998  -5.399   2.696 +0.00 +0.00    +0.042 C  
DOCKED: BRANCH  62  63
DOCKED: ATOM     63  C2  UNL     1      11.540  -5.075   4.113 +0.00 +0.00    +0.071 C  
DOCKED: BRANCH  63  65
DOCKED: ATOM     64  C1  UNL     1       9.698  -3.400   5.276 +0.00 +0.00    +0.084 C  
DOCKED: ATOM     65  S1  UNL     1       9.739  -4.821   4.149 +0.00 -0.00    -0.164 S  
DOCKED: ENDBRANCH  63  65
DOCKED: ENDBRANCH  62  63
DOCKED: ENDBRANCH  48  62
DOCKED: ENDBRANCH  44  48
DOCKED: ENDBRANCH  43  46
DOCKED: BRANCH  43  66
DOCKED: ATOM     66  C14 UNL     1      13.755  -6.985  -1.262 +0.00 +0.00    +0.028 C  
DOCKED: BRANCH  66  67
DOCKED: ATOM     67  C15 UNL     1      13.087  -7.553   0.011 +0.00 -0.00    -0.015 C  
DOCKED: ATOM     68  C16 UNL     1      14.156  -7.795   1.082 +0.00 +0.00    +0.007 C  
DOCKED: ATOM     69  C17 UNL     1      12.305  -8.841  -0.225 +0.00 +0.00    +0.007 C  
DOCKED: ENDBRANCH  66  67
DOCKED: ENDBRANCH  43  66
DOCKED: ENDBRANCH  40  43
DOCKED: ENDBRANCH  39  40
DOCKED: ENDBRANCH  35  39
DOCKED: ENDBRANCH   1  37
DOCKED: BRANCH   1  70
DOCKED: ATOM     70  C40 UNL     1       9.701  -6.628   0.386 +0.00 +0.00    +0.141 C  
DOCKED: ATOM     71  C41 UNL     1       8.510  -6.480   1.318 +0.00 +0.00    +0.040 C  
DOCKED: BRANCH  70  72
DOCKED: ATOM     72  O13 UNL     1      10.246  -5.327   0.112 +0.00 -0.00    -0.390 OA 
DOCKED: ATOM     73  H65 UNL     1       9.501  -4.775  -0.196 +0.00 +0.00    +0.210 HD 
DOCKED: ENDBRANCH  70  72
DOCKED: ENDBRANCH   1  70
DOCKED: TORSDOF 32
DOCKED: TER
DOCKED: ENDMDL
________________________________________________________________________________


    CLUSTERING HISTOGRAM
    ____________________


________________________________________________________________________________
     |           |     |           |     |
Clus | Lowest    | Run | Mean      | Num | Histogram
-ter | Binding   |     | Binding   | in  |
Rank | Energy    |     | Energy    | Clus|    5    10   15   20   25   30   35
_____|___________|_____|___________|_____|____:____|____:____|____:____|____:___
   1 |     +9.55 |   1 |     +9.55 |   1 |#
   2 |     +9.55 |   2 |     +9.55 |   1 |#
   3 |     +9.55 |   3 |     +9.55 |   1 |#
   4 |     +9.55 |   4 |     +9.55 |   1 |#
   5 |     +9.55 |   5 |     +9.55 |   1 |#
   6 |     +9.55 |   6 |     +9.55 |   1 |#
   7 |     +9.55 |   7 |     +9.55 |   1 |#
   8 |     +9.55 |   8 |     +9.55 |   1 |#
   9 |     +9.55 |   9 |     +9.55 |   1 |#
  10 |     +9.55 |  10 |     +9.55 |   1 |#
  11 |     +9.55 |  11 |     +9.55 |   1 |#
  12 |     +9.55 |  12 |     +9.55 |   1 |#
  13 |     +9.55 |  13 |     +9.55 |   1 |#
  14 |     +9.55 |  14 |     +9.55 |   1 |#
  15 |     +9.55 |  15 |     +9.55 |   1 |#
  16 |     +9.55 |  16 |     +9.55 |   1 |#
  17 |     +9.55 |  17 |     +9.55 |   1 |#
  18 |     +9.55 |  18 |     +9.55 |   1 |#
  19 |     +9.55 |  19 |     +9.55 |   1 |#
  20 |     +9.55 |  20 |     +9.55 |   1 |#
_____|___________|_____|___________|_____|______________________________________


    RMSD TABLE
    __________


_______________________________________________________________________
     |      |      |           |         |                 |
Rank | Sub- | Run  | Binding   | Cluster | Reference       | Grep
     | Rank |      | Energy    | RMSD    | RMSD            | Pattern
_____|______|______|___________|_________|_________________|___________
   1      1      1       +9.55      0.00      5.27           RANKING
   2      1      2       +9.55      0.00      8.11           RANKING
   3      1      3       +9.55      0.00      9.44           RANKING
   4      1      4       +9.55      0.00     10.24           RANKING
   5      1      5       +9.55      0.00      9.41           RANKING
   6      1      6       +9.55      0.00      7.18           RANKING
   7      1      7       +9.55      0.00     12.61           RANKING
   8      1      8       +9.55      0.00      8.89           RANKING
   9      1      9       +9.55      0.00      5.31           RANKING
  10      1     10       +9.55      0.00      8.81           RANKING
  11      1     11       +9.55      0.00     10.16           RANKING
  12      1     12       +9.55      0.00      8.74           RANKING
  13      1     13       +9.55      0.00      8.06           RANKING
  14      1     14       +9.55      0.00      7.16           RANKING
  15      1     15       +9.55      0.00      6.83           RANKING
  16      1     16       +9.55      0.00     11.71           RANKING
  17      1     17       +9.55      0.00      4.86           RANKING
  18      1     18       +9.55      0.00     10.34           RANKING
  19      1     19       +9.55      0.00     11.74           RANKING
  20      1     20       +9.55      0.00      6.90           RANKING

Run time 117.281 sec
Idle time 0.299 sec
