REMARK  Name = ligands/ligand_20.pdb
REMARK  30 active torsions:
REMARK  status: ('A' for Active; 'I' for Inactive)
REMARK    1  A    between atoms: C1_1  and  C2_2
REMARK    2  A    between atoms: C2_2  and  C3_3
REMARK    3  A    between atoms: C2_2  and  C4_4
REMARK    4  A    between atoms: C4_4  and  C5_5
REMARK    5  A    between atoms: C5_5  and  N1_6
REMARK    6  A    between atoms: C5_5  and  C11_14
REMARK    7  A    between atoms: C6_7  and  O2_9
REMARK    8  A    between atoms: O2_9  and  C7_10
REMARK    9  A    between atoms: C7_10  and  C8_11
REMARK   10  A    between atoms: C7_10  and  C9_12
REMARK   11  A    between atoms: C7_10  and  C10_13
REMARK   12  A    between atoms: N2_16  and  C12_17
REMARK   13  A    between atoms: C12_17  and  C13_18
REMARK   14  A    between atoms: C12_17  and  C14_19
REMARK   15  A    between atoms: N3_21  and  C15_22
REMARK   16  A    between atoms: C15_22  and  C16_23
REMARK   17  A    between atoms: C15_22  and  C23_30
REMARK   18  A    between atoms: C16_23  and  C17_24
REMARK   19  A    between atoms: C23_30  and  O5_31
REMARK   20  A    between atoms: C23_30  and  C24_32
REMARK   21  A    between atoms: C24_32  and  C25_33
REMARK   22  A    between atoms: C25_33  and  C26_34
REMARK   23  A    between atoms: C25_33  and  C27_35
REMARK   24  A    between atoms: N4_37  and  C28_38
REMARK   25  A    between atoms: C28_38  and  C29_39
REMARK   26  A    between atoms: C28_38  and  C36_49
REMARK   27  A    between atoms: N5_41  and  C30_42
REMARK   28  A    between atoms: C30_42  and  C31_43
REMARK   29  A    between atoms: C36_49  and  C37_50
REMARK   30  A    between atoms: C36_49  and  C38_51
REMARK                            x       y       z     vdW  Elec       q    Type
REMARK                         _______ _______ _______ _____ _____    ______ ____
ROOT
ATOM      1  C15 UNL     1      -1.832   0.545  -2.996  0.00  0.00    +0.106 C 
ENDROOT
BRANCH   1   4
ATOM      2  C14 UNL     1      -0.655  -0.943  -1.363  0.00  0.00    +0.233 C 
ATOM      3  O4  UNL     1       0.072  -0.057  -0.923  0.00  0.00    -0.274 OA
ATOM      4  N3  UNL     1      -1.657  -0.709  -2.271  0.00  0.00    -0.308 N 
ATOM      5  H26 UNL     1      -2.287  -1.456  -2.545  0.00  0.00    +0.149 HD
BRANCH   2   6
ATOM      6  C12 UNL     1      -0.553  -2.414  -0.910  0.00  0.00    +0.156 C 
ATOM      7  C13 UNL     1      -1.589  -2.690   0.174  0.00  0.00    +0.038 C 
BRANCH   6  10
ATOM      8  C11 UNL     1       1.818  -2.857  -1.334  0.00  0.00    +0.234 C 
ATOM      9  O3  UNL     1       1.595  -2.874  -2.547  0.00  0.00    -0.274 OA
ATOM     10  N2  UNL     1       0.795  -2.684  -0.417  0.00  0.00    -0.303 N 
ATOM     11  H21 UNL     1       1.038  -2.177   0.425  0.00  0.00    +0.149 HD
BRANCH   8  12
ATOM     12  C5  UNL     1       3.234  -3.117  -0.752  0.00  0.00    +0.162 C 
BRANCH  12  13
ATOM     13  N1  UNL     1       4.199  -2.715  -1.775  0.00  0.00    -0.270 N 
ATOM     14  C6  UNL     1       5.115  -3.559  -2.315  0.00  0.00    +0.401 C 
ATOM     15  O1  UNL     1       5.317  -4.707  -1.947  0.00  0.00    -0.226 OA
ATOM     16  H11 UNL     1       4.043  -1.856  -2.291  0.00  0.00    +0.153 HD
BRANCH  14  17
ATOM     17  O2  UNL     1       5.765  -2.912  -3.309  0.00  0.00    -0.445 OA
BRANCH  17  18
ATOM     18  C7  UNL     1       6.828  -3.574  -4.040  0.00  0.00    +0.107 C 
ATOM     19  C8  UNL     1       6.293  -4.789  -4.809  0.00  0.00    +0.055 C 
ATOM     20  C9  UNL     1       8.002  -3.941  -3.119  0.00  0.00    +0.055 C 
ATOM     21  C10 UNL     1       7.315  -2.523  -5.047  0.00  0.00    +0.055 C 
ENDBRANCH  17  18
ENDBRANCH  14  17
ENDBRANCH  12  13
BRANCH  12  22
ATOM     22  C4  UNL     1       3.571  -2.390   0.561  0.00  0.00    +0.035 C 
BRANCH  22  24
ATOM     23  C1  UNL     1       4.011  -4.439   2.021  0.00  0.00    +0.007 C 
ATOM     24  C2  UNL     1       3.186  -3.161   1.845  0.00  0.00    -0.015 C 
ATOM     25  C3  UNL     1       3.381  -2.264   3.074  0.00  0.00    +0.007 C 
ENDBRANCH  22  24
ENDBRANCH  12  22
ENDBRANCH   8  12
ENDBRANCH   6  10
ENDBRANCH   2   6
ENDBRANCH   1   4
BRANCH   1  26
ATOM     26  C16 UNL     1      -1.549   0.357  -4.508  0.00  0.00    +0.060 C 
BRANCH  26  27
ATOM     27  C17 UNL     1      -2.360  -0.693  -5.232  0.00  0.00    -0.046 A 
ATOM     28  C18 UNL     1      -3.556  -0.345  -5.881  0.00  0.00    +0.004 A 
ATOM     29  C19 UNL     1      -4.312  -1.315  -6.539  0.00  0.00    +0.000 A 
ATOM     30  C20 UNL     1      -3.875  -2.639  -6.571  0.00  0.00    +0.000 A 
ATOM     31  C21 UNL     1      -2.680  -2.991  -5.947  0.00  0.00    +0.000 A 
ATOM     32  C22 UNL     1      -1.926  -2.025  -5.275  0.00  0.00    +0.004 A 
ENDBRANCH  26  27
ENDBRANCH   1  26
BRANCH   1  33
ATOM     33  C23 UNL     1      -3.229   1.152  -2.709  0.00  0.00    +0.136 C 
BRANCH  33  34
ATOM     34  O5  UNL     1      -4.222   0.115  -2.742  0.00  0.00    -0.390 OA
ATOM     35  H36 UNL     1      -5.091   0.537  -2.638  0.00  0.00    +0.210 HD
ENDBRANCH  33  34
BRANCH  33  36
ATOM     36  C24 UNL     1      -3.316   1.834  -1.333  0.00  0.00    +0.045 C 
BRANCH  36  37
ATOM     37  C25 UNL     1      -2.362   3.027  -1.098  0.00  0.00    +0.074 C 
ATOM     38  C26 UNL     1      -2.344   4.023  -2.262  0.00  0.00    +0.017 C 
BRANCH  37  39
ATOM     39  C27 UNL     1      -2.770   3.743   0.187  0.00  0.00    +0.217 C 
ATOM     40  O6  UNL     1      -3.305   4.849   0.195  0.00  0.00    -0.276 OA
ATOM     41  N4  UNL     1      -2.536   3.023   1.333  0.00  0.00    -0.304 N 
ATOM     42  H43 UNL     1      -1.984   2.170   1.305  0.00  0.00    +0.149 HD
BRANCH  41  43
ATOM     43  C28 UNL     1      -2.910   3.522   2.657  0.00  0.00    +0.161 C 
BRANCH  43  44
ATOM     44  C29 UNL     1      -1.992   2.832   3.693  0.00  0.00    +0.234 C 
ATOM     45  O7  UNL     1      -1.436   1.759   3.457  0.00  0.00    -0.274 OA
ATOM     46  N5  UNL     1      -1.871   3.500   4.892  0.00  0.00    -0.310 N 
ATOM     47  H45 UNL     1      -2.422   4.335   5.051  0.00  0.00    +0.149 HD
BRANCH  46  48
ATOM     48  C30 UNL     1      -1.221   2.905   6.039  0.00  0.00    +0.139 C 
BRANCH  48  49
ATOM     49  C31 UNL     1      -2.213   2.122   6.856  0.00  0.00    -0.027 A 
ATOM     50  C32 UNL     1      -2.451   0.775   6.565  0.00  0.00    +0.025 A 
ATOM     51  C33 UNL     1      -3.412   0.093   7.296  0.00  0.00    +0.111 A 
ATOM     52  N6  UNL     1      -4.141   0.655   8.290  0.00  0.00    -0.263 NA
ATOM     53  C34 UNL     1      -3.905   1.960   8.548  0.00  0.00    +0.111 A 
ATOM     54  C35 UNL     1      -2.966   2.725   7.869  0.00  0.00    +0.025 A 
ENDBRANCH  48  49
ENDBRANCH  46  48
ENDBRANCH  43  44
BRANCH  43  55
ATOM     55  C36 UNL     1      -4.423   3.313   2.922  0.00  0.00    +0.012 C 
ATOM     56  C37 UNL     1      -4.811   1.834   3.034  0.00  0.00    +0.009 C 
ATOM     57  C38 UNL     1      -4.923   4.098   4.138  0.00  0.00    +0.009 C 
ENDBRANCH  43  55
ENDBRANCH  41  43
ENDBRANCH  37  39
ENDBRANCH  36  37
ENDBRANCH  33  36
ENDBRANCH   1  33
TORSDOF 21
