REMARK  Name = ligands/ligand_3.pdb
REMARK  39 active torsions:
REMARK  status: ('A' for Active; 'I' for Inactive)
REMARK    1  A    between atoms: C1_1  and  S1_2
REMARK    2  A    between atoms: S1_2  and  C2_3
REMARK    3  A    between atoms: C2_3  and  C3_4
REMARK    4  A    between atoms: C3_4  and  C4_5
REMARK    5  A    between atoms: C4_5  and  N1_6
REMARK    6  A    between atoms: C4_5  and  C12_17
REMARK    7  A    between atoms: C5_7  and  C6_9
REMARK    8  A    between atoms: C6_9  and  N2_10
REMARK    9  A    between atoms: C6_9  and  C9_14
REMARK   10  A    between atoms: C7_11  and  C8_12
REMARK   11  A    between atoms: C9_14  and  C10_15
REMARK   12  A    between atoms: C9_14  and  C11_16
REMARK   13  A    between atoms: N3_19  and  C13_20
REMARK   14  A    between atoms: C13_20  and  C14_21
REMARK   15  A    between atoms: C13_20  and  C18_25
REMARK   16  A    between atoms: C14_21  and  C15_22
REMARK   17  A    between atoms: C15_22  and  C16_23
REMARK   18  A    between atoms: C15_22  and  C17_24
REMARK   19  A    between atoms: C18_25  and  O4_26
REMARK   20  A    between atoms: C18_25  and  C19_27
REMARK   21  A    between atoms: C19_27  and  C20_28
REMARK   22  A    between atoms: C20_28  and  C21_29
REMARK   23  A    between atoms: C20_28  and  C39_57
REMARK   24  A    between atoms: N4_31  and  C22_32
REMARK   25  A    between atoms: C22_32  and  C23_33
REMARK   26  A    between atoms: C22_32  and  C24_34
REMARK   27  A    between atoms: N5_36  and  C25_37
REMARK   28  A    between atoms: C25_37  and  C26_38
REMARK   29  A    between atoms: C25_37  and  C29_43
REMARK   30  A    between atoms: C26_38  and  C27_39
REMARK   31  A    between atoms: C27_39  and  C28_40
REMARK   32  A    between atoms: C28_40  and  O8_42
REMARK   33  A    between atoms: N6_45  and  C30_46
REMARK   34  A    between atoms: C30_46  and  C31_47
REMARK   35  A    between atoms: C30_46  and  C38_54
REMARK   36  A    between atoms: C31_47  and  C32_48
REMARK   37  A    between atoms: C38_54  and  O11_56
REMARK   38  A    between atoms: C39_57  and  C40_58
REMARK   39  A    between atoms: C39_57  and  C41_59
REMARK                            x       y       z     vdW  Elec       q    Type
REMARK                         _______ _______ _______ _____ _____    ______ ____
ROOT
ATOM      1  C20 UNL     1      -0.653  -3.947   1.360  0.00  0.00    +0.080 C 
ENDROOT
BRANCH   1   2
ATOM      2  C21 UNL     1      -0.305  -2.532   1.845  0.00  0.00    +0.217 C 
ATOM      3  O5  UNL     1       0.244  -2.306   2.917  0.00  0.00    -0.275 OA
ATOM      4  N4  UNL     1      -0.700  -1.527   0.983  0.00  0.00    -0.304 N 
ATOM      5  H38 UNL     1      -1.434  -1.777   0.327  0.00  0.00    +0.149 HD
BRANCH   4   6
ATOM      6  C22 UNL     1      -0.833  -0.164   1.496  0.00  0.00    +0.156 C 
ATOM      7  C23 UNL     1      -0.553   0.861   0.407  0.00  0.00    +0.038 C 
BRANCH   6   8
ATOM      8  C24 UNL     1      -2.287  -0.027   1.993  0.00  0.00    +0.234 C 
ATOM      9  O6  UNL     1      -3.195  -0.743   1.565  0.00  0.00    -0.274 OA
ATOM     10  N5  UNL     1      -2.496   0.963   2.920  0.00  0.00    -0.302 N 
ATOM     11  H43 UNL     1      -1.774   1.678   3.034  0.00  0.00    +0.150 HD
BRANCH  10  12
ATOM     12  C25 UNL     1      -3.832   1.293   3.389  0.00  0.00    +0.159 C 
BRANCH  12  13
ATOM     13  C29 UNL     1      -4.487   2.327   2.451  0.00  0.00    +0.234 C 
ATOM     14  O9  UNL     1      -3.836   3.165   1.830  0.00  0.00    -0.274 OA
ATOM     15  N6  UNL     1      -5.866   2.299   2.451  0.00  0.00    -0.301 N 
ATOM     16  H50 UNL     1      -6.328   1.762   3.176  0.00  0.00    +0.150 HD
BRANCH  15  17
ATOM     17  C30 UNL     1      -6.641   3.372   1.821  0.00  0.00    +0.186 C 
BRANCH  17  18
ATOM     18  C38 UNL     1      -6.857   4.465   2.868  0.00  0.00    +0.326 C 
ATOM     19  O10 UNL     1      -6.776   4.330   4.083  0.00  0.00    -0.249 OA
BRANCH  18  20
ATOM     20  O11 UNL     1      -7.213   5.651   2.336  0.00  0.00    -0.479 OA
ATOM     21  H59 UNL     1      -7.292   6.252   3.108  0.00  0.00    +0.295 HD
ENDBRANCH  18  20
ENDBRANCH  17  18
BRANCH  17  22
ATOM     22  C31 UNL     1      -8.013   2.882   1.334  0.00  0.00    +0.069 C 
BRANCH  22  23
ATOM     23  C32 UNL     1      -7.929   1.895   0.188  0.00  0.00    -0.045 A 
ATOM     24  C33 UNL     1      -8.338   0.567   0.365  0.00  0.00    +0.004 A 
ATOM     25  C34 UNL     1      -8.259  -0.338  -0.695  0.00  0.00    +0.000 A 
ATOM     26  C35 UNL     1      -7.774   0.072  -1.935  0.00  0.00    +0.000 A 
ATOM     27  C36 UNL     1      -7.374   1.390  -2.121  0.00  0.00    +0.000 A 
ATOM     28  C37 UNL     1      -7.455   2.300  -1.069  0.00  0.00    +0.004 A 
ENDBRANCH  22  23
ENDBRANCH  17  22
ENDBRANCH  15  17
ENDBRANCH  12  13
BRANCH  12  29
ATOM     29  C26 UNL     1      -3.824   1.775   4.854  0.00  0.00    +0.043 C 
BRANCH  29  30
ATOM     30  C27 UNL     1      -3.388   3.222   5.110  0.00  0.00    +0.123 C 
BRANCH  30  31
ATOM     31  C28 UNL     1      -1.919   3.488   4.898  0.00  0.00    +0.305 C 
ATOM     32  O7  UNL     1      -1.167   2.918   4.128  0.00  0.00    -0.251 OA
BRANCH  31  33
ATOM     33  O8  UNL     1      -1.485   4.522   5.644  0.00  0.00    -0.481 OA
ATOM     34  H49 UNL     1      -0.540   4.622   5.406  0.00  0.00    +0.295 HD
ENDBRANCH  31  33
ENDBRANCH  30  31
ENDBRANCH  29  30
ENDBRANCH  12  29
ENDBRANCH  10  12
ENDBRANCH   6   8
ENDBRANCH   4   6
ENDBRANCH   1   2
BRANCH   1  35
ATOM     35  C39 UNL     1      -0.404  -5.012   2.464  0.00  0.00    -0.005 C 
ATOM     36  C40 UNL     1      -1.221  -6.287   2.219  0.00  0.00    +0.008 C 
ATOM     37  C41 UNL     1       1.059  -5.381   2.704  0.00  0.00    +0.008 C 
ENDBRANCH   1  35
BRANCH   1  38
ATOM     38  C19 UNL     1      -0.132  -4.267  -0.066  0.00  0.00    +0.046 C 
BRANCH  38  39
ATOM     39  C18 UNL     1       1.326  -3.890  -0.386  0.00  0.00    +0.135 C 
BRANCH  39  40
ATOM     40  O4  UNL     1       2.219  -4.957  -0.052  0.00  0.00    -0.390 OA
ATOM     41  H34 UNL     1       1.849  -5.790  -0.395  0.00  0.00    +0.210 HD
ENDBRANCH  39  40
BRANCH  39  42
ATOM     42  C13 UNL     1       1.569  -3.484  -1.876  0.00  0.00    +0.102 C 
BRANCH  42  45
ATOM     43  C12 UNL     1       3.115  -1.533  -1.780  0.00  0.00    +0.234 C 
ATOM     44  O3  UNL     1       2.204  -0.716  -1.681  0.00  0.00    -0.274 OA
ATOM     45  N3  UNL     1       2.910  -2.884  -1.954  0.00  0.00    -0.308 N 
ATOM     46  H22 UNL     1       3.686  -3.513  -1.781  0.00  0.00    +0.149 HD
BRANCH  43  47
ATOM     47  C4  UNL     1       4.597  -1.135  -1.630  0.00  0.00    +0.160 C 
BRANCH  47  48
ATOM     48  N1  UNL     1       4.772   0.257  -2.037  0.00  0.00    -0.302 N 
ATOM     49  C5  UNL     1       4.887   0.570  -3.376  0.00  0.00    +0.234 C 
ATOM     50  O1  UNL     1       4.951  -0.290  -4.256  0.00  0.00    -0.274 OA
ATOM     51  H9  UNL     1       4.319   0.950  -1.455  0.00  0.00    +0.150 HD
BRANCH  49  52
ATOM     52  C6  UNL     1       4.937   2.084  -3.704  0.00  0.00    +0.161 C 
BRANCH  52  53
ATOM     53  N2  UNL     1       5.276   2.175  -5.122  0.00  0.00    -0.304 N 
ATOM     54  C7  UNL     1       6.244   3.034  -5.581  0.00  0.00    +0.211 C 
ATOM     55  C8  UNL     1       6.582   2.858  -7.038  0.00  0.00    +0.109 C 
ATOM     56  O2  UNL     1       6.774   3.895  -4.885  0.00  0.00    -0.276 OA
ATOM     57  H11 UNL     1       5.042   1.359  -5.680  0.00  0.00    +0.149 HD
ENDBRANCH  52  53
BRANCH  52  58
ATOM     58  C9  UNL     1       3.605   2.790  -3.335  0.00  0.00    +0.012 C 
ATOM     59  C10 UNL     1       3.793   3.665  -2.087  0.00  0.00    +0.009 C 
ATOM     60  C11 UNL     1       3.000   3.650  -4.453  0.00  0.00    +0.009 C 
ENDBRANCH  52  58
ENDBRANCH  49  52
ENDBRANCH  47  48
BRANCH  47  61
ATOM     61  C3  UNL     1       5.084  -1.372  -0.193  0.00  0.00    +0.042 C 
BRANCH  61  62
ATOM     62  C2  UNL     1       4.196  -0.723   0.874  0.00  0.00    +0.071 C 
BRANCH  62  64
ATOM     63  C1  UNL     1       3.460  -0.627   3.518  0.00  0.00    +0.084 C 
ATOM     64  S1  UNL     1       4.932  -0.953   2.522  0.00  0.00    -0.164 S 
ENDBRANCH  62  64
ENDBRANCH  61  62
ENDBRANCH  47  61
ENDBRANCH  43  47
ENDBRANCH  42  45
BRANCH  42  65
ATOM     65  C14 UNL     1       1.530  -4.625  -2.917  0.00  0.00    +0.028 C 
BRANCH  65  66
ATOM     66  C15 UNL     1       0.156  -5.223  -3.268  0.00  0.00    -0.015 C 
ATOM     67  C16 UNL     1       0.334  -6.357  -4.284  0.00  0.00    +0.007 C 
ATOM     68  C17 UNL     1      -0.815  -4.185  -3.832  0.00  0.00    +0.007 C 
ENDBRANCH  65  66
ENDBRANCH  42  65
ENDBRANCH  39  42
ENDBRANCH  38  39
ENDBRANCH   1  38
TORSDOF 30
