REMARK  Name = ligands/ligand_6.pdb
REMARK  79 active torsions:
REMARK  status: ('A' for Active; 'I' for Inactive)
REMARK    1  A    between atoms: C1_1  and  C2_2
REMARK    2  A    between atoms: C2_2  and  C3_3
REMARK    3  A    between atoms: C3_3  and  O1_4
REMARK    4  A    between atoms: C3_3  and  C4_5
REMARK    5  A    between atoms: C4_5  and  N1_6
REMARK    6  A    between atoms: C4_5  and  C10_15
REMARK    7  A    between atoms: C5_7  and  C6_9
REMARK    8  A    between atoms: C6_9  and  N2_10
REMARK    9  A    between atoms: C6_9  and  C7_11
REMARK   10  A    between atoms: C7_11  and  C8_12
REMARK   11  A    between atoms: C8_12  and  C9_13
REMARK   12  A    between atoms: C9_13  and  N3_14
REMARK   13  A    between atoms: N4_17  and  C11_18
REMARK   14  A    between atoms: C11_18  and  C12_19
REMARK   15  A    between atoms: C11_18  and  C15_24
REMARK   16  A    between atoms: C12_19  and  C13_20
REMARK   17  A    between atoms: C13_20  and  C14_21
REMARK   18  A    between atoms: C14_21  and  O5_23
REMARK   19  A    between atoms: N5_26  and  C16_27
REMARK   20  A    between atoms: C16_27  and  C17_28
REMARK   21  A    between atoms: C16_27  and  C20_33
REMARK   22  A    between atoms: C17_28  and  C18_29
REMARK   23  A    between atoms: C18_29  and  C19_30
REMARK   24  A    between atoms: C19_30  and  O8_32
REMARK   25  A    between atoms: N6_35  and  C21_36
REMARK   26  A    between atoms: C21_36  and  C22_37
REMARK   27  A    between atoms: C21_36  and  C71_113
REMARK   28  A    between atoms: N7_39  and  C23_40
REMARK   29  A    between atoms: C23_40  and  C24_41
REMARK   30  A    between atoms: C23_40  and  C25_43
REMARK   31  A    between atoms: C24_41  and  O11_42
REMARK   32  A    between atoms: N8_45  and  C26_46
REMARK   33  A    between atoms: C26_46  and  C27_47
REMARK   34  A    between atoms: C26_46  and  C30_52
REMARK   35  A    between atoms: C27_47  and  C28_48
REMARK   36  A    between atoms: C28_48  and  C29_49
REMARK   37  A    between atoms: C29_49  and  O14_51
REMARK   38  A    between atoms: N9_54  and  C31_55
REMARK   39  A    between atoms: C31_55  and  C32_56
REMARK   40  A    between atoms: C31_55  and  C68_110
REMARK   41  A    between atoms: N10_58  and  C33_59
REMARK   42  A    between atoms: C33_59  and  C34_60
REMARK   43  A    between atoms: C33_59  and  C37_64
REMARK   44  A    between atoms: C34_60  and  C35_61
REMARK   45  A    between atoms: C35_61  and  S1_62
REMARK   46  A    between atoms: S1_62  and  C36_63
REMARK   47  A    between atoms: N11_66  and  C38_67
REMARK   48  A    between atoms: C38_67  and  C39_68
REMARK   49  A    between atoms: C38_67  and  C43_72
REMARK   50  A    between atoms: C39_68  and  C40_69
REMARK   51  A    between atoms: C40_69  and  C41_70
REMARK   52  A    between atoms: C40_69  and  C42_71
REMARK   53  A    between atoms: C43_72  and  O18_73
REMARK   54  A    between atoms: C43_72  and  C44_74
REMARK   55  A    between atoms: C44_74  and  C45_75
REMARK   56  A    between atoms: N12_77  and  C46_78
REMARK   57  A    between atoms: C46_78  and  C47_79
REMARK   58  A    between atoms: C46_78  and  C65_107
REMARK   59  A    between atoms: N13_81  and  C48_82
REMARK   60  A    between atoms: C48_82  and  C49_83
REMARK   61  A    between atoms: C48_82  and  C50_84
REMARK   62  A    between atoms: N14_86  and  C51_87
REMARK   63  A    between atoms: C51_87  and  C52_88
REMARK   64  A    between atoms: C51_87  and  C55_93
REMARK   65  A    between atoms: C52_88  and  C53_89
REMARK   66  A    between atoms: C53_89  and  C54_90
REMARK   67  A    between atoms: C54_90  and  O23_92
REMARK   68  A    between atoms: N15_95  and  C56_96
REMARK   69  A    between atoms: C56_96  and  C57_97
REMARK   70  A    between atoms: C56_96  and  C64_104
REMARK   71  A    between atoms: C57_97  and  C58_98
REMARK   72  A    between atoms: C64_104  and  O26_106
REMARK   73  A    between atoms: C65_107  and  C66_108
REMARK   74  A    between atoms: C65_107  and  C67_109
REMARK   75  A    between atoms: C68_110  and  C69_111
REMARK   76  A    between atoms: C68_110  and  C70_112
REMARK   77  A    between atoms: C71_113  and  C72_114
REMARK   78  A    between atoms: C71_113  and  C73_115
REMARK   79  A    between atoms: C73_115  and  C74_116
REMARK                            x       y       z     vdW  Elec       q    Type
REMARK                         _______ _______ _______ _____ _____    ______ ____
ROOT
ATOM      1  C30 UNL     1      -1.699  -3.596  -0.902  0.00  0.00    +0.234 C 
ATOM      2  O15 UNL     1      -0.691  -2.880  -0.903  0.00  0.00    -0.274 OA
ATOM      3  N9  UNL     1      -1.864  -4.619  -1.809  0.00  0.00    -0.302 N 
ATOM      4  H49 UNL     1      -2.818  -4.920  -1.990  0.00  0.00    +0.150 HD
ENDROOT
BRANCH   1   5
ATOM      5  C26 UNL     1      -2.828  -3.427   0.162  0.00  0.00    +0.159 C 
BRANCH   5   8
ATOM      6  C25 UNL     1      -1.859  -1.775   1.730  0.00  0.00    +0.236 C 
ATOM      7  O12 UNL     1      -1.503  -2.638   2.531  0.00  0.00    -0.274 OA
ATOM      8  N8  UNL     1      -2.691  -2.053   0.659  0.00  0.00    -0.302 N 
ATOM      9  H42 UNL     1      -2.795  -1.330  -0.042  0.00  0.00    +0.150 HD
BRANCH   6  10
ATOM     10  C23 UNL     1      -1.402  -0.304   1.822  0.00  0.00    +0.184 C 
BRANCH  10  13
ATOM     11  C22 UNL     1      -1.124   0.692   4.083  0.00  0.00    +0.234 C 
ATOM     12  O10 UNL     1      -2.203   1.284   4.011  0.00  0.00    -0.274 OA
ATOM     13  N7  UNL     1      -0.657  -0.104   3.062  0.00  0.00    -0.301 N 
ATOM     14  H37 UNL     1       0.032  -0.816   3.271  0.00  0.00    +0.150 HD
BRANCH  11  15
ATOM     15  C21 UNL     1      -0.248   0.720   5.355  0.00  0.00    +0.162 C 
BRANCH  15  18
ATOM     16  C20 UNL     1      -1.284  -0.544   7.238  0.00  0.00    +0.234 C 
ATOM     17  O9  UNL     1      -1.625   0.460   7.855  0.00  0.00    -0.274 OA
ATOM     18  N6  UNL     1      -0.546  -0.512   6.075  0.00  0.00    -0.302 N 
ATOM     19  H35 UNL     1      -0.198  -1.401   5.707  0.00  0.00    +0.150 HD
BRANCH  16  20
ATOM     20  C16 UNL     1      -1.567  -1.978   7.742  0.00  0.00    +0.159 C 
BRANCH  20  23
ATOM     21  C15 UNL     1       0.752  -2.851   7.834  0.00  0.00    +0.234 C 
ATOM     22  O6  UNL     1       0.811  -2.882   6.601  0.00  0.00    -0.274 OA
ATOM     23  N5  UNL     1      -0.389  -2.443   8.487  0.00  0.00    -0.302 N 
ATOM     24  H28 UNL     1      -0.394  -2.338   9.493  0.00  0.00    +0.150 HD
BRANCH  21  25
ATOM     25  C11 UNL     1       1.949  -3.249   8.733  0.00  0.00    +0.159 C 
BRANCH  25  28
ATOM     26  C10 UNL     1       3.154  -5.265   7.907  0.00  0.00    +0.236 C 
ATOM     27  O3  UNL     1       2.885  -5.936   8.901  0.00  0.00    -0.274 OA
ATOM     28  N4  UNL     1       2.890  -3.915   7.835  0.00  0.00    -0.302 N 
ATOM     29  H21 UNL     1       3.038  -3.465   6.927  0.00  0.00    +0.150 HD
BRANCH  26  30
ATOM     30  C4  UNL     1       3.854  -5.822   6.649  0.00  0.00    +0.188 C 
BRANCH  30  31
ATOM     31  N1  UNL     1       5.223  -5.293   6.617  0.00  0.00    -0.301 N 
ATOM     32  C5  UNL     1       5.529  -4.046   6.116  0.00  0.00    +0.231 C 
ATOM     33  O2  UNL     1       4.697  -3.344   5.548  0.00  0.00    -0.274 OA
ATOM     34  H9  UNL     1       5.864  -5.591   7.351  0.00  0.00    +0.150 HD
BRANCH  32  35
ATOM     35  C6  UNL     1       7.007  -3.630   6.318  0.00  0.00    +0.138 C 
BRANCH  35  36
ATOM     36  N2  UNL     1       7.664  -4.573   7.267  0.00  0.00    -0.320 NA
ATOM     37  H11 UNL     1       7.897  -5.432   6.763  0.00  0.00    +0.119 HD
ATOM     38  H12 UNL     1       8.568  -4.177   7.536  0.00  0.00    +0.119 HD
ENDBRANCH  35  36
BRANCH  35  39
ATOM     39  C7  UNL     1       7.773  -3.647   4.988  0.00  0.00    +0.029 C 
BRANCH  39  40
ATOM     40  C8  UNL     1       7.460  -2.436   4.101  0.00  0.00    +0.017 C 
BRANCH  40  41
ATOM     41  C9  UNL     1       8.249  -2.501   2.792  0.00  0.00    +0.078 C 
BRANCH  41  42
ATOM     42  N3  UNL     1       8.023  -1.299   2.003  0.00  0.00    -0.330 NA
ATOM     43  H19 UNL     1       8.506  -1.386   1.109  0.00  0.00    +0.118 HD
ATOM     44  H20 UNL     1       7.031  -1.219   1.777  0.00  0.00    +0.118 HD
ENDBRANCH  41  42
ENDBRANCH  40  41
ENDBRANCH  39  40
ENDBRANCH  35  39
ENDBRANCH  32  35
ENDBRANCH  30  31
BRANCH  30  45
ATOM     45  C3  UNL     1       3.872  -7.370   6.631  0.00  0.00    +0.143 C 
BRANCH  45  47
ATOM     46  C1  UNL     1       1.303  -7.634   6.722  0.00  0.00    +0.006 C 
ATOM     47  C2  UNL     1       2.604  -7.998   6.029  0.00  0.00    +0.030 C 
ENDBRANCH  45  47
BRANCH  45  48
ATOM     48  O1  UNL     1       4.979  -7.848   5.831  0.00  0.00    -0.389 OA
ATOM     49  H7  UNL     1       5.161  -7.163   5.162  0.00  0.00    +0.210 HD
ENDBRANCH  45  48
ENDBRANCH  30  45
ENDBRANCH  26  30
ENDBRANCH  25  28
BRANCH  25  50
ATOM     50  C12 UNL     1       2.655  -2.066   9.404  0.00  0.00    +0.043 C 
BRANCH  50  51
ATOM     51  C13 UNL     1       1.892  -1.469  10.587  0.00  0.00    +0.123 C 
BRANCH  51  52
ATOM     52  C14 UNL     1       2.764  -0.603  11.454  0.00  0.00    +0.305 C 
ATOM     53  O4  UNL     1       2.735  -0.560  12.673  0.00  0.00    -0.251 OA
BRANCH  52  54
ATOM     54  O5  UNL     1       3.571   0.221  10.761  0.00  0.00    -0.481 OA
ATOM     55  H27 UNL     1       4.029   0.740  11.456  0.00  0.00    +0.295 HD
ENDBRANCH  52  54
ENDBRANCH  51  52
ENDBRANCH  50  51
ENDBRANCH  25  50
ENDBRANCH  21  25
ENDBRANCH  20  23
BRANCH  20  56
ATOM     56  C17 UNL     1      -2.814  -2.021   8.633  0.00  0.00    +0.043 C 
BRANCH  56  57
ATOM     57  C18 UNL     1      -4.087  -1.678   7.858  0.00  0.00    +0.123 C 
BRANCH  57  58
ATOM     58  C19 UNL     1      -5.299  -1.836   8.731  0.00  0.00    +0.305 C 
ATOM     59  O7  UNL     1      -5.600  -2.831   9.367  0.00  0.00    -0.251 OA
BRANCH  58  60
ATOM     60  O8  UNL     1      -6.086  -0.747   8.739  0.00  0.00    -0.481 OA
ATOM     61  H34 UNL     1      -6.835  -1.001   9.323  0.00  0.00    +0.295 HD
ENDBRANCH  58  60
ENDBRANCH  57  58
ENDBRANCH  56  57
ENDBRANCH  20  56
ENDBRANCH  16  20
ENDBRANCH  15  18
BRANCH  15  62
ATOM     62  C71 UNL     1       1.273   0.874   5.091  0.00  0.00    +0.015 C 
ATOM     63  C72 UNL     1       1.549   2.139   4.268  0.00  0.00    +0.010 C 
BRANCH  62  64
ATOM     64  C73 UNL     1       2.053   0.892   6.427  0.00  0.00    +0.002 C 
ATOM     65  C74 UNL     1       3.566   0.875   6.256  0.00  0.00    +0.004 C 
ENDBRANCH  62  64
ENDBRANCH  15  62
ENDBRANCH  11  15
ENDBRANCH  10  13
BRANCH  10  66
ATOM     66  C24 UNL     1      -0.539   0.090   0.611  0.00  0.00    +0.187 C 
BRANCH  66  67
ATOM     67  O11 UNL     1       0.620  -0.732   0.469  0.00  0.00    -0.393 OA
ATOM     68  H41 UNL     1       0.342  -1.563   0.022  0.00  0.00    +0.209 HD
ENDBRANCH  66  67
ENDBRANCH  10  66
ENDBRANCH   6  10
ENDBRANCH   5   8
BRANCH   5  69
ATOM     69  C27 UNL     1      -4.273  -3.610  -0.348  0.00  0.00    +0.043 C 
BRANCH  69  70
ATOM     70  C28 UNL     1      -4.941  -4.878   0.198  0.00  0.00    +0.123 C 
BRANCH  70  71
ATOM     71  C29 UNL     1      -4.465  -6.174  -0.402  0.00  0.00    +0.305 C 
ATOM     72  O13 UNL     1      -4.376  -7.238   0.185  0.00  0.00    -0.251 OA
BRANCH  71  73
ATOM     73  O14 UNL     1      -4.229  -6.106  -1.726  0.00  0.00    -0.481 OA
ATOM     74  H48 UNL     1      -4.053  -7.047  -1.959  0.00  0.00    +0.295 HD
ENDBRANCH  71  73
ENDBRANCH  70  71
ENDBRANCH  69  70
ENDBRANCH   5  69
ENDBRANCH   1   5
BRANCH   3  75
ATOM     75  C31 UNL     1      -0.990  -4.706  -2.985  0.00  0.00    +0.161 C 
BRANCH  75  76
ATOM     76  C32 UNL     1      -1.451  -3.567  -3.933  0.00  0.00    +0.234 C 
ATOM     77  O16 UNL     1      -2.585  -3.083  -3.884  0.00  0.00    -0.274 OA
ATOM     78  N10 UNL     1      -0.489  -3.108  -4.793  0.00  0.00    -0.302 N 
ATOM     79  H51 UNL     1       0.464  -3.465  -4.747  0.00  0.00    +0.150 HD
BRANCH  78  80
ATOM     80  C33 UNL     1      -0.705  -2.015  -5.749  0.00  0.00    +0.160 C 
BRANCH  80  81
ATOM     81  C37 UNL     1       0.582  -1.936  -6.601  0.00  0.00    +0.234 C 
ATOM     82  O17 UNL     1       1.623  -2.505  -6.237  0.00  0.00    -0.274 OA
ATOM     83  N11 UNL     1       0.480  -1.223  -7.767  0.00  0.00    -0.308 N 
ATOM     84  H60 UNL     1      -0.301  -0.577  -7.877  0.00  0.00    +0.149 HD
BRANCH  83  85
ATOM     85  C38 UNL     1       1.584  -1.051  -8.704  0.00  0.00    +0.102 C 
BRANCH  85  86
ATOM     86  C39 UNL     1       1.854  -2.367  -9.486  0.00  0.00    +0.028 C 
BRANCH  86  87
ATOM     87  C40 UNL     1       0.828  -2.945 -10.489  0.00  0.00    -0.015 C 
ATOM     88  C41 UNL     1       0.859  -2.265 -11.856  0.00  0.00    +0.007 C 
ATOM     89  C42 UNL     1      -0.603  -3.041  -9.962  0.00  0.00    +0.007 C 
ENDBRANCH  86  87
ENDBRANCH  85  86
BRANCH  85  90
ATOM     90  C43 UNL     1       1.402   0.196  -9.616  0.00  0.00    +0.143 C 
BRANCH  90  91
ATOM     91  O18 UNL     1       0.030   0.358  -9.989  0.00  0.00    -0.389 OA
ATOM     92  H72 UNL     1      -0.050   1.153 -10.541  0.00  0.00    +0.210 HD
ENDBRANCH  90  91
BRANCH  90  93
ATOM     93  C44 UNL     1       1.975   1.503  -9.049  0.00  0.00    +0.129 C 
BRANCH  93  94
ATOM     94  C45 UNL     1       1.310   2.053  -7.804  0.00  0.00    +0.216 C 
ATOM     95  O19 UNL     1       0.490   1.450  -7.130  0.00  0.00    -0.276 OA
ATOM     96  N12 UNL     1       1.735   3.328  -7.479  0.00  0.00    -0.304 N 
ATOM     97  H75 UNL     1       2.114   3.876  -8.247  0.00  0.00    +0.149 HD
BRANCH  96  98
ATOM     98  C46 UNL     1       0.960   4.116  -6.513  0.00  0.00    +0.161 C 
BRANCH  98  99
ATOM     99  C47 UNL     1      -0.117   4.826  -7.370  0.00  0.00    +0.234 C 
ATOM    100  O20 UNL     1       0.109   5.186  -8.526  0.00  0.00    -0.274 OA
ATOM    101  N13 UNL     1      -1.319   5.053  -6.743  0.00  0.00    -0.303 N 
ATOM    102  H77 UNL     1      -1.455   4.727  -5.787  0.00  0.00    +0.149 HD
BRANCH 101 103
ATOM    103  C48 UNL     1      -2.409   5.752  -7.417  0.00  0.00    +0.156 C 
ATOM    104  C49 UNL     1      -3.169   4.830  -8.367  0.00  0.00    +0.038 C 
BRANCH 103 105
ATOM    105  C50 UNL     1      -3.300   6.384  -6.336  0.00  0.00    +0.234 C 
ATOM    106  O21 UNL     1      -3.152   7.544  -5.953  0.00  0.00    -0.274 OA
ATOM    107  N14 UNL     1      -4.169   5.501  -5.712  0.00  0.00    -0.302 N 
ATOM    108  H82 UNL     1      -3.890   4.533  -5.797  0.00  0.00    +0.150 HD
BRANCH 107 109
ATOM    109  C51 UNL     1      -4.710   5.841  -4.393  0.00  0.00    +0.159 C 
BRANCH 109 110
ATOM    110  C55 UNL     1      -3.682   5.277  -3.383  0.00  0.00    +0.234 C 
ATOM    111  O24 UNL     1      -2.830   4.449  -3.711  0.00  0.00    -0.274 OA
ATOM    112  N15 UNL     1      -3.809   5.741  -2.097  0.00  0.00    -0.301 N 
ATOM    113  H89 UNL     1      -4.388   6.551  -1.905  0.00  0.00    +0.150 HD
BRANCH 112 114
ATOM    114  C56 UNL     1      -2.876   5.334  -1.038  0.00  0.00    +0.186 C 
BRANCH 114 115
ATOM    115  C64 UNL     1      -3.596   5.529   0.288  0.00  0.00    +0.326 C 
ATOM    116  O25 UNL     1      -4.256   6.511   0.596  0.00  0.00    -0.249 OA
BRANCH 115 117
ATOM    117  O26 UNL     1      -3.463   4.484   1.125  0.00  0.00    -0.479 OA
ATOM    118  H98 UNL     1      -3.945   4.728   1.940  0.00  0.00    +0.295 HD
ENDBRANCH 115 117
ENDBRANCH 114 115
BRANCH 114 119
ATOM    119  C57 UNL     1      -1.596   6.180  -1.089  0.00  0.00    +0.069 C 
BRANCH 119 120
ATOM    120  C58 UNL     1      -0.511   5.681  -0.168  0.00  0.00    -0.045 A 
ATOM    121  C59 UNL     1       0.214   4.525  -0.494  0.00  0.00    +0.004 A 
ATOM    122  C60 UNL     1       1.209   4.053   0.363  0.00  0.00    +0.000 A 
ATOM    123  C61 UNL     1       1.488   4.728   1.549  0.00  0.00    +0.000 A 
ATOM    124  C62 UNL     1       0.770   5.875   1.882  0.00  0.00    +0.000 A 
ATOM    125  C63 UNL     1      -0.224   6.352   1.027  0.00  0.00    +0.004 A 
ENDBRANCH 119 120
ENDBRANCH 114 119
ENDBRANCH 112 114
ENDBRANCH 109 110
BRANCH 109 126
ATOM    126  C52 UNL     1      -6.098   5.209  -4.234  0.00  0.00    +0.043 C 
BRANCH 126 127
ATOM    127  C53 UNL     1      -6.882   5.756  -3.043  0.00  0.00    +0.123 C 
BRANCH 127 128
ATOM    128  C54 UNL     1      -8.350   5.464  -3.175  0.00  0.00    +0.305 C 
ATOM    129  O22 UNL     1      -9.251   6.283  -3.124  0.00  0.00    -0.251 OA
BRANCH 128 130
ATOM    130  O23 UNL     1      -8.617   4.156  -3.330  0.00  0.00    -0.481 OA
ATOM    131  H88 UNL     1      -9.599   4.121  -3.370  0.00  0.00    +0.295 HD
ENDBRANCH 128 130
ENDBRANCH 127 128
ENDBRANCH 126 127
ENDBRANCH 109 126
ENDBRANCH 107 109
ENDBRANCH 103 105
ENDBRANCH 101 103
ENDBRANCH  98  99
BRANCH  98 132
ATOM    132  C65 UNL     1       1.856   5.135  -5.772  0.00  0.00    +0.012 C 
ATOM    133  C66 UNL     1       1.071   5.947  -4.736  0.00  0.00    +0.009 C 
ATOM    134  C67 UNL     1       3.024   4.430  -5.071  0.00  0.00    +0.009 C 
ENDBRANCH  98 132
ENDBRANCH  96  98
ENDBRANCH  93  94
ENDBRANCH  90  93
ENDBRANCH  85  90
ENDBRANCH  83  85
ENDBRANCH  80  81
BRANCH  80 135
ATOM    135  C34 UNL     1      -1.007  -0.680  -5.046  0.00  0.00    +0.042 C 
BRANCH 135 136
ATOM    136  C35 UNL     1      -2.399  -0.118  -5.363  0.00  0.00    +0.071 C 
BRANCH 136 137
ATOM    137  S1  UNL     1      -2.626   0.278  -7.124  0.00  0.00    -0.164 S 
ATOM    138  C36 UNL     1      -4.396   0.639  -7.098  0.00  0.00    +0.084 C 
ENDBRANCH 136 137
ENDBRANCH 135 136
ENDBRANCH  80 135
ENDBRANCH  78  80
ENDBRANCH  75  76
BRANCH  75 139
ATOM    139  C68 UNL     1      -1.104  -6.104  -3.635  0.00  0.00    +0.012 C 
ATOM    140  C69 UNL     1      -0.225  -6.267  -4.878  0.00  0.00    +0.009 C 
ATOM    141  C70 UNL     1      -0.739  -7.207  -2.631  0.00  0.00    +0.009 C 
ENDBRANCH  75 139
ENDBRANCH   3  75
TORSDOF 68
