REMARK  Name = ligands/ligand_32.pdb
REMARK  32 active torsions:
REMARK  status: ('A' for Active; 'I' for Inactive)
REMARK    1  A    between atoms: C1_1  and  C2_2
REMARK    2  A    between atoms: C2_2  and  C3_3
REMARK    3  A    between atoms: C2_2  and  C4_4
REMARK    4  A    between atoms: C4_4  and  C5_5
REMARK    5  A    between atoms: C5_5  and  N1_6
REMARK    6  A    between atoms: C5_5  and  C10_15
REMARK    7  A    between atoms: C6_7  and  C7_9
REMARK    8  A    between atoms: C7_9  and  N2_10
REMARK    9  A    between atoms: C7_9  and  C8_11
REMARK   10  A    between atoms: C8_11  and  C9_12
REMARK   11  A    between atoms: C10_15  and  O3_16
REMARK   12  A    between atoms: C10_15  and  C11_17
REMARK   13  A    between atoms: C11_17  and  C12_18
REMARK   14  A    between atoms: N4_20  and  C13_21
REMARK   15  A    between atoms: C13_21  and  C14_22
REMARK   16  A    between atoms: C13_21  and  C32_50
REMARK   17  A    between atoms: N5_24  and  C15_25
REMARK   18  A    between atoms: C15_25  and  C16_26
REMARK   19  A    between atoms: C15_25  and  C17_27
REMARK   20  A    between atoms: N6_29  and  C18_30
REMARK   21  A    between atoms: C18_30  and  C19_31
REMARK   22  A    between atoms: C18_30  and  C22_36
REMARK   23  A    between atoms: C19_31  and  C20_32
REMARK   24  A    between atoms: C20_32  and  C21_33
REMARK   25  A    between atoms: C21_33  and  O8_35
REMARK   26  A    between atoms: N7_38  and  C23_39
REMARK   27  A    between atoms: C23_39  and  C24_40
REMARK   28  A    between atoms: C23_39  and  C31_47
REMARK   29  A    between atoms: C24_40  and  C25_41
REMARK   30  A    between atoms: C31_47  and  O11_49
REMARK   31  A    between atoms: C32_50  and  C33_51
REMARK   32  A    between atoms: C32_50  and  C34_52
REMARK                            x       y       z     vdW  Elec       q    Type
REMARK                         _______ _______ _______ _____ _____    ______ ____
ROOT
ATOM      1  C14 UNL     1      -0.203  -1.743  -2.916  0.00  0.00    +0.234 C 
ATOM      2  O5  UNL     1       0.056  -1.662  -1.717  0.00  0.00    -0.274 OA
ATOM      3  N5  UNL     1      -0.891  -2.806  -3.468  0.00  0.00    -0.303 N 
ATOM      4  H25 UNL     1      -1.286  -2.633  -4.393  0.00  0.00    +0.149 HD
ENDROOT
BRANCH   3   5
ATOM      5  C15 UNL     1      -1.613  -3.797  -2.673  0.00  0.00    +0.156 C 
ATOM      6  C16 UNL     1      -0.787  -4.434  -1.549  0.00  0.00    +0.038 C 
BRANCH   5   7
ATOM      7  C17 UNL     1      -2.951  -3.185  -2.201  0.00  0.00    +0.234 C 
ATOM      8  O6  UNL     1      -3.340  -2.082  -2.592  0.00  0.00    -0.274 OA
ATOM      9  N6  UNL     1      -3.732  -3.984  -1.397  0.00  0.00    -0.302 N 
ATOM     10  H30 UNL     1      -3.251  -4.729  -0.898  0.00  0.00    +0.150 HD
BRANCH   9  11
ATOM     11  C18 UNL     1      -4.873  -3.438  -0.672  0.00  0.00    +0.159 C 
BRANCH  11  12
ATOM     12  C22 UNL     1      -4.487  -3.341   0.807  0.00  0.00    +0.234 C 
ATOM     13  O9  UNL     1      -3.614  -4.057   1.299  0.00  0.00    -0.274 OA
ATOM     14  N7  UNL     1      -5.232  -2.442   1.541  0.00  0.00    -0.301 N 
ATOM     15  H37 UNL     1      -5.812  -1.765   1.051  0.00  0.00    +0.150 HD
BRANCH  14  16
ATOM     16  C23 UNL     1      -4.963  -2.211   2.967  0.00  0.00    +0.186 C 
BRANCH  16  17
ATOM     17  C31 UNL     1      -6.199  -1.562   3.570  0.00  0.00    +0.326 C 
ATOM     18  O10 UNL     1      -6.643  -0.456   3.301  0.00  0.00    -0.249 OA
BRANCH  17  19
ATOM     19  O11 UNL     1      -6.884  -2.379   4.386  0.00  0.00    -0.479 OA
ATOM     20  H46 UNL     1      -7.663  -1.852   4.642  0.00  0.00    +0.295 HD
ENDBRANCH  17  19
ENDBRANCH  16  17
BRANCH  16  21
ATOM     21  C24 UNL     1      -3.759  -1.280   3.168  0.00  0.00    +0.069 C 
BRANCH  21  22
ATOM     22  C25 UNL     1      -3.230  -1.291   4.581  0.00  0.00    -0.045 A 
ATOM     23  C26 UNL     1      -2.505  -2.400   5.038  0.00  0.00    +0.004 A 
ATOM     24  C27 UNL     1      -2.002  -2.432   6.337  0.00  0.00    +0.000 A 
ATOM     25  C28 UNL     1      -2.206  -1.345   7.188  0.00  0.00    +0.000 A 
ATOM     26  C29 UNL     1      -2.940  -0.247   6.751  0.00  0.00    +0.000 A 
ATOM     27  C30 UNL     1      -3.461  -0.223   5.452  0.00  0.00    +0.004 A 
ENDBRANCH  21  22
ENDBRANCH  16  21
ENDBRANCH  14  16
ENDBRANCH  11  12
BRANCH  11  28
ATOM     28  C19 UNL     1      -6.105  -4.340  -0.805  0.00  0.00    +0.043 C 
BRANCH  28  29
ATOM     29  C20 UNL     1      -6.662  -4.375  -2.230  0.00  0.00    +0.123 C 
BRANCH  29  30
ATOM     30  C21 UNL     1      -7.184  -3.025  -2.653  0.00  0.00    +0.305 C 
ATOM     31  O7  UNL     1      -7.581  -2.140  -1.916  0.00  0.00    -0.251 OA
BRANCH  30  32
ATOM     32  O8  UNL     1      -7.230  -2.896  -3.991  0.00  0.00    -0.481 OA
ATOM     33  H36 UNL     1      -7.577  -1.996  -4.155  0.00  0.00    +0.295 HD
ENDBRANCH  30  32
ENDBRANCH  29  30
ENDBRANCH  28  29
ENDBRANCH  11  28
ENDBRANCH   9  11
ENDBRANCH   5   7
ENDBRANCH   3   5
BRANCH   1  34
ATOM     34  C13 UNL     1       0.143  -0.602  -3.908  0.00  0.00    +0.161 C 
BRANCH  34  37
ATOM     35  C12 UNL     1       1.714   0.909  -2.594  0.00  0.00    +0.216 C 
ATOM     36  O4  UNL     1       2.759   0.405  -2.961  0.00  0.00    -0.276 OA
ATOM     37  N4  UNL     1       0.455   0.594  -3.096  0.00  0.00    -0.304 N 
ATOM     38  H23 UNL     1      -0.328   0.889  -2.518  0.00  0.00    +0.149 HD
BRANCH  35  39
ATOM     39  C11 UNL     1       1.656   2.057  -1.615  0.00  0.00    +0.129 C 
BRANCH  39  40
ATOM     40  C10 UNL     1       2.997   2.574  -1.054  0.00  0.00    +0.143 C 
BRANCH  40  41
ATOM     41  O3  UNL     1       4.055   2.693  -2.006  0.00  0.00    -0.389 OA
ATOM     42  H20 UNL     1       3.682   2.445  -2.877  0.00  0.00    +0.210 HD
ENDBRANCH  40  41
BRANCH  40  43
ATOM     43  C5  UNL     1       3.520   1.873   0.231  0.00  0.00    +0.102 C 
BRANCH  43  44
ATOM     44  N1  UNL     1       4.549   2.748   0.808  0.00  0.00    -0.309 N 
ATOM     45  C6  UNL     1       4.264   3.780   1.663  0.00  0.00    +0.231 C 
ATOM     46  O1  UNL     1       3.204   3.863   2.286  0.00  0.00    -0.274 OA
ATOM     47  H11 UNL     1       5.477   2.701   0.398  0.00  0.00    +0.149 HD
BRANCH  45  48
ATOM     48  C7  UNL     1       5.408   4.792   1.886  0.00  0.00    +0.146 C 
BRANCH  48  49
ATOM     49  N2  UNL     1       6.408   4.182   2.805  0.00  0.00    -0.320 NA
ATOM     50  H13 UNL     1       7.132   4.869   3.017  0.00  0.00    +0.119 HD
ATOM     51  H14 UNL     1       5.933   4.000   3.692  0.00  0.00    +0.119 HD
ENDBRANCH  48  49
BRANCH  48  52
ATOM     52  C8  UNL     1       6.073   5.271   0.592  0.00  0.00    +0.123 C 
BRANCH  52  53
ATOM     53  C9  UNL     1       5.030   5.878  -0.331  0.00  0.00    +0.212 C 
ATOM     54  N3  UNL     1       5.015   5.403  -1.612  0.00  0.00    -0.329 N 
ATOM     55  O2  UNL     1       4.240   6.756   0.011  0.00  0.00    -0.276 OA
ATOM     56  H17 UNL     1       4.214   5.725  -2.148  0.00  0.00    +0.145 HD
ATOM     57  H18 UNL     1       5.179   4.400  -1.746  0.00  0.00    +0.145 HD
ENDBRANCH  52  53
ENDBRANCH  48  52
ENDBRANCH  45  48
ENDBRANCH  43  44
BRANCH  43  58
ATOM     58  C4  UNL     1       4.141   0.475   0.025  0.00  0.00    +0.028 C 
BRANCH  58  60
ATOM     59  C1  UNL     1       2.256  -0.922   0.991  0.00  0.00    +0.007 C 
ATOM     60  C2  UNL     1       3.730  -0.527   1.122  0.00  0.00    -0.015 C 
ATOM     61  C3  UNL     1       4.604  -1.780   1.055  0.00  0.00    +0.007 C 
ENDBRANCH  58  60
ENDBRANCH  43  58
ENDBRANCH  40  43
ENDBRANCH  39  40
ENDBRANCH  35  39
ENDBRANCH  34  37
BRANCH  34  62
ATOM     62  C32 UNL     1       1.173  -0.953  -5.009  0.00  0.00    +0.012 C 
ATOM     63  C33 UNL     1       1.467   0.268  -5.898  0.00  0.00    +0.009 C 
ATOM     64  C34 UNL     1       0.737  -2.086  -5.947  0.00  0.00    +0.009 C 
ENDBRANCH  34  62
ENDBRANCH   1  34
TORSDOF 27
