AutoDock-GPU version: v1.6

**********************************************************
**    AutoDock-GPU AUTODOCKTOOLS-COMPATIBLE DLG FILE    **
**********************************************************


    DOCKING PARAMETERS
    ________________________


Ligand file:                               ligands/ligand_14.pdbqt
Grid fld file:                             protein.maps.fld

Random seed:                               1770972170, 25723
Number of runs:                            20
Number of energy evaluations:              11021374
Number of generations:                     42000
Size of population:                        150
Rate of crossover:                         80.000000%
Tournament selection probability limit:    60.000000%
Rate of mutation:                          2.000000%
Maximal allowed delta movement:            +/- 6.000000A
Maximal allowed delta angle:               +/- 90.000000

Rate of local search:                      100.000000%
Maximal number of local search iterations: 300
Rho lower bound:                           0.010000
Spread of local search delta movement:     2.000000A
Spread of local search delta angle:        74.999999
Limit of consecutive successes/failures:   4

Handle symmetry during clustering:         YES
RMSD tolerance:                            2.000000A

Program call in command line was:          ./autodock-gpu --ffile protein.maps.fld --lfile ligands/ligand_14.pdbqt --nrun 20 


    GRID PARAMETERS
    ________________________


Receptor name:                             #MACROMOLECULE
Number of grid points (x, y, z):           61, 61, 61
Grid center (x, y, z):                     10.261000, -3.492000, -0.127000A
Grid size (x, y, z):                       22.500000, 22.500000, 22.500000A
Grid spacing:                              0.375000A


    LIGAND PARAMETERS
    ________________________


Ligand name:                               ligands/ligand_14
Number of atoms:                           58
Number of rotatable bonds:                 25
Number of atom types:                      7


    DUMMY DATA (only for ADT-compatibility)
    ________________________


DPF> outlev 1
DPF> ga_run 20
DPF> fld protein.maps.fld
DPF> move ligands/ligand_14.pdbqt


    COUNTER STATES
    ________________________


Number of energy evaluations performed:    9361248
Number of generations used:                380


    INPUT LIGAND PDBQT FILE:
    ________________________


INPUT-LIGAND-PDBQT: REMARK  Name = ligands/ligand_14.pdb
INPUT-LIGAND-PDBQT: REMARK  29 active torsions:
INPUT-LIGAND-PDBQT: REMARK  status: ('A' for Active; 'I' for Inactive)
INPUT-LIGAND-PDBQT: REMARK    1  A    between atoms: C1_1  and  C2_2
INPUT-LIGAND-PDBQT: REMARK    2  A    between atoms: C2_2  and  C3_3
INPUT-LIGAND-PDBQT: REMARK    3  A    between atoms: C3_3  and  C4_4
INPUT-LIGAND-PDBQT: REMARK    4  A    between atoms: C3_3  and  C5_5
INPUT-LIGAND-PDBQT: REMARK    5  A    between atoms: C5_5  and  O1_6
INPUT-LIGAND-PDBQT: REMARK    6  A    between atoms: C5_5  and  C6_7
INPUT-LIGAND-PDBQT: REMARK    7  A    between atoms: N1_9  and  C7_10
INPUT-LIGAND-PDBQT: REMARK    8  A    between atoms: C7_10  and  C8_11
INPUT-LIGAND-PDBQT: REMARK    9  A    between atoms: C7_10  and  C11_16
INPUT-LIGAND-PDBQT: REMARK   10  A    between atoms: C8_11  and  C9_12
INPUT-LIGAND-PDBQT: REMARK   11  A    between atoms: C9_12  and  C10_13
INPUT-LIGAND-PDBQT: REMARK   12  A    between atoms: N2_18  and  C12_19
INPUT-LIGAND-PDBQT: REMARK   13  A    between atoms: C12_19  and  C13_20
INPUT-LIGAND-PDBQT: REMARK   14  A    between atoms: C12_19  and  C20_27
INPUT-LIGAND-PDBQT: REMARK   15  A    between atoms: C13_20  and  C14_21
INPUT-LIGAND-PDBQT: REMARK   16  A    between atoms: C20_27  and  O4_28
INPUT-LIGAND-PDBQT: REMARK   17  A    between atoms: C20_27  and  C21_29
INPUT-LIGAND-PDBQT: REMARK   18  A    between atoms: C21_29  and  C22_30
INPUT-LIGAND-PDBQT: REMARK   19  A    between atoms: C22_30  and  C23_31
INPUT-LIGAND-PDBQT: REMARK   20  A    between atoms: C22_30  and  C26_36
INPUT-LIGAND-PDBQT: REMARK   21  A    between atoms: C23_31  and  C24_32
INPUT-LIGAND-PDBQT: REMARK   22  A    between atoms: C24_32  and  C25_33
INPUT-LIGAND-PDBQT: REMARK   23  A    between atoms: N3_38  and  C27_39
INPUT-LIGAND-PDBQT: REMARK   24  A    between atoms: C27_39  and  C28_40
INPUT-LIGAND-PDBQT: REMARK   25  A    between atoms: C27_39  and  C35_50
INPUT-LIGAND-PDBQT: REMARK   26  A    between atoms: N4_42  and  C29_43
INPUT-LIGAND-PDBQT: REMARK   27  A    between atoms: C29_43  and  C30_44
INPUT-LIGAND-PDBQT: REMARK   28  A    between atoms: C35_50  and  C36_51
INPUT-LIGAND-PDBQT: REMARK   29  A    between atoms: C35_50  and  C37_52
INPUT-LIGAND-PDBQT: REMARK                            x       y       z     vdW  Elec       q    Type
INPUT-LIGAND-PDBQT: REMARK                         _______ _______ _______ _____ _____    ______ ____
INPUT-LIGAND-PDBQT: ROOT
INPUT-LIGAND-PDBQT: ATOM      1  C12 UNL     1       1.724  -1.328  -2.063  0.00  0.00    +0.106 C 
INPUT-LIGAND-PDBQT: ENDROOT
INPUT-LIGAND-PDBQT: BRANCH   1   4
INPUT-LIGAND-PDBQT: ATOM      2  C11 UNL     1       3.740  -0.028  -1.348  0.00  0.00    +0.234 C 
INPUT-LIGAND-PDBQT: ATOM      3  O3  UNL     1       4.472  -0.549  -2.185  0.00  0.00    -0.274 OA
INPUT-LIGAND-PDBQT: ATOM      4  N2  UNL     1       2.409  -0.347  -1.218  0.00  0.00    -0.308 N 
INPUT-LIGAND-PDBQT: ATOM      5  H19 UNL     1       1.906  -0.013  -0.391  0.00  0.00    +0.149 HD
INPUT-LIGAND-PDBQT: BRANCH   2   6
INPUT-LIGAND-PDBQT: ATOM      6  C7  UNL     1       4.230   1.009  -0.313  0.00  0.00    +0.159 C 
INPUT-LIGAND-PDBQT: BRANCH   6   9
INPUT-LIGAND-PDBQT: ATOM      7  C6  UNL     1       3.349   0.057   1.803  0.00  0.00    +0.243 C 
INPUT-LIGAND-PDBQT: ATOM      8  O2  UNL     1       2.202   0.434   1.582  0.00  0.00    -0.273 OA
INPUT-LIGAND-PDBQT: ATOM      9  N1  UNL     1       4.410   0.323   0.966  0.00  0.00    -0.302 N 
INPUT-LIGAND-PDBQT: ATOM     10  H12 UNL     1       5.218  -0.283   1.083  0.00  0.00    +0.150 HD
INPUT-LIGAND-PDBQT: BRANCH   7  11
INPUT-LIGAND-PDBQT: ATOM     11  C5  UNL     1       3.734  -0.757   3.049  0.00  0.00    +0.203 C 
INPUT-LIGAND-PDBQT: BRANCH  11  12
INPUT-LIGAND-PDBQT: ATOM     12  C3  UNL     1       4.424   0.120   4.114  0.00  0.00    +0.023 C 
INPUT-LIGAND-PDBQT: ATOM     13  C4  UNL     1       3.477   1.207   4.634  0.00  0.00    +0.010 C 
INPUT-LIGAND-PDBQT: BRANCH  12  15
INPUT-LIGAND-PDBQT: ATOM     14  C1  UNL     1       4.013  -1.540   6.058  0.00  0.00    +0.004 C 
INPUT-LIGAND-PDBQT: ATOM     15  C2  UNL     1       5.019  -0.704   5.279  0.00  0.00    +0.003 C 
INPUT-LIGAND-PDBQT: ENDBRANCH  12  15
INPUT-LIGAND-PDBQT: ENDBRANCH  11  12
INPUT-LIGAND-PDBQT: BRANCH  11  16
INPUT-LIGAND-PDBQT: ATOM     16  O1  UNL     1       4.627  -1.801   2.639  0.00  0.00    -0.382 OA
INPUT-LIGAND-PDBQT: ATOM     17  H11 UNL     1       4.093  -2.444   2.134  0.00  0.00    +0.210 HD
INPUT-LIGAND-PDBQT: ENDBRANCH  11  16
INPUT-LIGAND-PDBQT: ENDBRANCH   7  11
INPUT-LIGAND-PDBQT: ENDBRANCH   6   9
INPUT-LIGAND-PDBQT: BRANCH   6  18
INPUT-LIGAND-PDBQT: ATOM     18  C8  UNL     1       5.558   1.659  -0.726  0.00  0.00    +0.037 C 
INPUT-LIGAND-PDBQT: BRANCH  18  19
INPUT-LIGAND-PDBQT: ATOM     19  C9  UNL     1       5.539   2.453  -2.040  0.00  0.00    +0.074 C 
INPUT-LIGAND-PDBQT: BRANCH  19  20
INPUT-LIGAND-PDBQT: ATOM     20  C10 UNL     1       4.507   3.562  -2.089  0.00  0.00    +0.341 C 
INPUT-LIGAND-PDBQT: ATOM     21  F1  UNL     1       4.628   4.349  -0.992  0.00  0.00    -0.209 F 
INPUT-LIGAND-PDBQT: ATOM     22  F2  UNL     1       3.256   3.040  -2.071  0.00  0.00    -0.209 F 
INPUT-LIGAND-PDBQT: ENDBRANCH  19  20
INPUT-LIGAND-PDBQT: ENDBRANCH  18  19
INPUT-LIGAND-PDBQT: ENDBRANCH   6  18
INPUT-LIGAND-PDBQT: ENDBRANCH   2   6
INPUT-LIGAND-PDBQT: ENDBRANCH   1   4
INPUT-LIGAND-PDBQT: BRANCH   1  23
INPUT-LIGAND-PDBQT: ATOM     23  C13 UNL     1       1.967  -2.746  -1.499  0.00  0.00    +0.060 C 
INPUT-LIGAND-PDBQT: BRANCH  23  24
INPUT-LIGAND-PDBQT: ATOM     24  C14 UNL     1       1.555  -3.850  -2.440  0.00  0.00    -0.046 A 
INPUT-LIGAND-PDBQT: ATOM     25  C15 UNL     1       0.327  -4.504  -2.277  0.00  0.00    +0.004 A 
INPUT-LIGAND-PDBQT: ATOM     26  C16 UNL     1      -0.061  -5.510  -3.163  0.00  0.00    +0.000 A 
INPUT-LIGAND-PDBQT: ATOM     27  C17 UNL     1       0.775  -5.876  -4.214  0.00  0.00    +0.000 A 
INPUT-LIGAND-PDBQT: ATOM     28  C18 UNL     1       2.002  -5.233  -4.383  0.00  0.00    +0.000 A 
INPUT-LIGAND-PDBQT: ATOM     29  C19 UNL     1       2.392  -4.226  -3.501  0.00  0.00    +0.004 A 
INPUT-LIGAND-PDBQT: ENDBRANCH  23  24
INPUT-LIGAND-PDBQT: ENDBRANCH   1  23
INPUT-LIGAND-PDBQT: BRANCH   1  30
INPUT-LIGAND-PDBQT: ATOM     30  C20 UNL     1       0.213  -0.970  -2.155  0.00  0.00    +0.136 C 
INPUT-LIGAND-PDBQT: BRANCH  30  31
INPUT-LIGAND-PDBQT: ATOM     31  O4  UNL     1      -0.341  -1.051  -0.839  0.00  0.00    -0.390 OA
INPUT-LIGAND-PDBQT: ATOM     32  H29 UNL     1      -1.257  -0.726  -0.858  0.00  0.00    +0.210 HD
INPUT-LIGAND-PDBQT: ENDBRANCH  30  31
INPUT-LIGAND-PDBQT: BRANCH  30  33
INPUT-LIGAND-PDBQT: ATOM     33  C21 UNL     1       0.018   0.435  -2.768  0.00  0.00    +0.046 C 
INPUT-LIGAND-PDBQT: BRANCH  33  34
INPUT-LIGAND-PDBQT: ATOM     34  C22 UNL     1      -1.428   0.854  -3.111  0.00  0.00    +0.078 C 
INPUT-LIGAND-PDBQT: BRANCH  34  35
INPUT-LIGAND-PDBQT: ATOM     35  C26 UNL     1      -2.162   1.270  -1.832  0.00  0.00    +0.217 C 
INPUT-LIGAND-PDBQT: ATOM     36  O5  UNL     1      -1.955   2.358  -1.301  0.00  0.00    -0.275 OA
INPUT-LIGAND-PDBQT: ATOM     37  N3  UNL     1      -2.959   0.317  -1.248  0.00  0.00    -0.304 N 
INPUT-LIGAND-PDBQT: ATOM     38  H38 UNL     1      -3.325  -0.462  -1.791  0.00  0.00    +0.149 HD
INPUT-LIGAND-PDBQT: BRANCH  37  39
INPUT-LIGAND-PDBQT: ATOM     39  C27 UNL     1      -3.650   0.549   0.027  0.00  0.00    +0.161 C 
INPUT-LIGAND-PDBQT: BRANCH  39  40
INPUT-LIGAND-PDBQT: ATOM     40  C28 UNL     1      -4.136  -0.842   0.489  0.00  0.00    +0.234 C 
INPUT-LIGAND-PDBQT: ATOM     41  O6  UNL     1      -4.364  -1.744  -0.321  0.00  0.00    -0.274 OA
INPUT-LIGAND-PDBQT: ATOM     42  N4  UNL     1      -4.318  -0.985   1.842  0.00  0.00    -0.310 N 
INPUT-LIGAND-PDBQT: ATOM     43  H40 UNL     1      -4.080  -0.225   2.469  0.00  0.00    +0.149 HD
INPUT-LIGAND-PDBQT: BRANCH  42  44
INPUT-LIGAND-PDBQT: ATOM     44  C29 UNL     1      -4.840  -2.199   2.430  0.00  0.00    +0.139 C 
INPUT-LIGAND-PDBQT: BRANCH  44  45
INPUT-LIGAND-PDBQT: ATOM     45  C30 UNL     1      -6.116  -1.913   3.174  0.00  0.00    -0.027 A 
INPUT-LIGAND-PDBQT: ATOM     46  C31 UNL     1      -6.195  -2.063   4.561  0.00  0.00    +0.025 A 
INPUT-LIGAND-PDBQT: ATOM     47  C32 UNL     1      -7.395  -1.770   5.189  0.00  0.00    +0.111 A 
INPUT-LIGAND-PDBQT: ATOM     48  N5  UNL     1      -8.501  -1.340   4.541  0.00  0.00    -0.263 NA
INPUT-LIGAND-PDBQT: ATOM     49  C33 UNL     1      -8.407  -1.208   3.201  0.00  0.00    +0.111 A 
INPUT-LIGAND-PDBQT: ATOM     50  C34 UNL     1      -7.256  -1.485   2.483  0.00  0.00    +0.025 A 
INPUT-LIGAND-PDBQT: ENDBRANCH  44  45
INPUT-LIGAND-PDBQT: ENDBRANCH  42  44
INPUT-LIGAND-PDBQT: ENDBRANCH  39  40
INPUT-LIGAND-PDBQT: BRANCH  39  51
INPUT-LIGAND-PDBQT: ATOM     51  C35 UNL     1      -4.791   1.589  -0.091  0.00  0.00    +0.012 C 
INPUT-LIGAND-PDBQT: ATOM     52  C36 UNL     1      -5.335   2.020   1.275  0.00  0.00    +0.009 C 
INPUT-LIGAND-PDBQT: ATOM     53  C37 UNL     1      -5.943   1.120  -0.987  0.00  0.00    +0.009 C 
INPUT-LIGAND-PDBQT: ENDBRANCH  39  51
INPUT-LIGAND-PDBQT: ENDBRANCH  37  39
INPUT-LIGAND-PDBQT: ENDBRANCH  34  35
INPUT-LIGAND-PDBQT: BRANCH  34  54
INPUT-LIGAND-PDBQT: ATOM     54  C23 UNL     1      -2.201  -0.140  -3.997  0.00  0.00    +0.018 C 
INPUT-LIGAND-PDBQT: BRANCH  54  55
INPUT-LIGAND-PDBQT: ATOM     55  C24 UNL     1      -1.576  -0.463  -5.364  0.00  0.00    +0.073 C 
INPUT-LIGAND-PDBQT: BRANCH  55  56
INPUT-LIGAND-PDBQT: ATOM     56  C25 UNL     1      -1.465   0.725  -6.304  0.00  0.00    +0.341 C 
INPUT-LIGAND-PDBQT: ATOM     57  F3  UNL     1      -2.653   1.377  -6.372  0.00  0.00    -0.209 F 
INPUT-LIGAND-PDBQT: ATOM     58  F4  UNL     1      -0.549   1.609  -5.844  0.00  0.00    -0.209 F 
INPUT-LIGAND-PDBQT: ENDBRANCH  55  56
INPUT-LIGAND-PDBQT: ENDBRANCH  54  55
INPUT-LIGAND-PDBQT: ENDBRANCH  34  54
INPUT-LIGAND-PDBQT: ENDBRANCH  33  34
INPUT-LIGAND-PDBQT: ENDBRANCH  30  33
INPUT-LIGAND-PDBQT: ENDBRANCH   1  30
INPUT-LIGAND-PDBQT: TORSDOF 25


    FINAL DOCKED STATE:
    ________________________


Run:   1 / 20
Time taken for this run:   2.906s

DOCKED: MODEL        1
DOCKED: USER    Run = 1
DOCKED: USER
DOCKED: USER    Estimated Free Energy of Binding    =  +7.46 kcal/mol  [=(1)+(2)+(3)-(4)]
DOCKED: USER
DOCKED: USER    (1) Final Intermolecular Energy     =  +0.00 kcal/mol
DOCKED: USER        vdW + Hbond + desolv Energy     =  +0.00 kcal/mol
DOCKED: USER        Electrostatic Energy            =  +0.00 kcal/mol
DOCKED: USER        Moving Ligand-Fixed Receptor    =  +0.00 kcal/mol
DOCKED: USER        Moving Ligand-Moving Receptor   =  +0.00 kcal/mol
DOCKED: USER    (2) Final Total Internal Energy     = -14.88 kcal/mol
DOCKED: USER    (3) Torsional Free Energy           =  +7.46 kcal/mol
DOCKED: USER    (4) Unbound System's Energy         = -14.88 kcal/mol
DOCKED: USER
DOCKED: USER
DOCKED: REMARK  Name = ligands/ligand_14.pdb
DOCKED: REMARK  29 active torsions:
DOCKED: REMARK  status: ('A' for Active; 'I' for Inactive)
DOCKED: REMARK    1  A    between atoms: C1_1  and  C2_2
DOCKED: REMARK    2  A    between atoms: C2_2  and  C3_3
DOCKED: REMARK    3  A    between atoms: C3_3  and  C4_4
DOCKED: REMARK    4  A    between atoms: C3_3  and  C5_5
DOCKED: REMARK    5  A    between atoms: C5_5  and  O1_6
DOCKED: REMARK    6  A    between atoms: C5_5  and  C6_7
DOCKED: REMARK    7  A    between atoms: N1_9  and  C7_10
DOCKED: REMARK    8  A    between atoms: C7_10  and  C8_11
DOCKED: REMARK    9  A    between atoms: C7_10  and  C11_16
DOCKED: REMARK   10  A    between atoms: C8_11  and  C9_12
DOCKED: REMARK   11  A    between atoms: C9_12  and  C10_13
DOCKED: REMARK   12  A    between atoms: N2_18  and  C12_19
DOCKED: REMARK   13  A    between atoms: C12_19  and  C13_20
DOCKED: REMARK   14  A    between atoms: C12_19  and  C20_27
DOCKED: REMARK   15  A    between atoms: C13_20  and  C14_21
DOCKED: REMARK   16  A    between atoms: C20_27  and  O4_28
DOCKED: REMARK   17  A    between atoms: C20_27  and  C21_29
DOCKED: REMARK   18  A    between atoms: C21_29  and  C22_30
DOCKED: REMARK   19  A    between atoms: C22_30  and  C23_31
DOCKED: REMARK   20  A    between atoms: C22_30  and  C26_36
DOCKED: REMARK   21  A    between atoms: C23_31  and  C24_32
DOCKED: REMARK   22  A    between atoms: C24_32  and  C25_33
DOCKED: REMARK   23  A    between atoms: N3_38  and  C27_39
DOCKED: REMARK   24  A    between atoms: C27_39  and  C28_40
DOCKED: REMARK   25  A    between atoms: C27_39  and  C35_50
DOCKED: REMARK   26  A    between atoms: N4_42  and  C29_43
DOCKED: REMARK   27  A    between atoms: C29_43  and  C30_44
DOCKED: REMARK   28  A    between atoms: C35_50  and  C36_51
DOCKED: REMARK   29  A    between atoms: C35_50  and  C37_52
DOCKED: REMARK                            x       y       z     vdW  Elec       q    Type
DOCKED: REMARK                         _______ _______ _______ _____ _____    ______ ____
DOCKED: USER                              x       y       z     vdW  Elec       q    Type
DOCKED: USER                           _______ _______ _______ _____ _____    ______ ____
DOCKED: ROOT
DOCKED: ATOM      1  C12 UNL     1       4.434   1.730  -0.201 +0.00 +0.00    +0.106 C  
DOCKED: ENDROOT
DOCKED: BRANCH   1   4
DOCKED: ATOM      2  C11 UNL     1       2.831   0.960  -1.963 +0.00 +0.00    +0.234 C  
DOCKED: ATOM      3  O3  UNL     1       1.870   1.528  -1.451 +0.00 -0.00    -0.274 OA 
DOCKED: ATOM      4  N2  UNL     1       4.096   1.001  -1.427 +0.00 -0.00    -0.308 N  
DOCKED: ATOM      5  H19 UNL     1       4.805   0.364  -1.799 +0.00 +0.00    +0.149 HD 
DOCKED: BRANCH   2   6
DOCKED: ATOM      6  C7  UNL     1       2.730   0.095  -3.239 +0.00 +0.00    +0.159 C  
DOCKED: BRANCH   6   9
DOCKED: ATOM      7  C6  UNL     1       5.157   0.246  -3.738 +0.00 +0.00    +0.243 C  
DOCKED: ATOM      8  O2  UNL     1       5.131   1.467  -3.860 +0.00 -0.00    -0.273 OA 
DOCKED: ATOM      9  N1  UNL     1       4.038  -0.514  -3.479 +0.00 -0.00    -0.302 N  
DOCKED: ATOM     10  H12 UNL     1       4.220  -1.440  -3.099 +0.00 +0.00    +0.150 HD 
DOCKED: BRANCH   7  11
DOCKED: ATOM     11  C5  UNL     1       6.449  -0.578  -3.863 +0.00 +0.00    +0.203 C  
DOCKED: BRANCH  11  12
DOCKED: ATOM     12  C3  UNL     1       6.424  -1.822  -2.952 +0.00 +0.00    +0.023 C  
DOCKED: ATOM     13  C4  UNL     1       6.057  -3.081  -3.745 +0.00 +0.00    +0.010 C  
DOCKED: BRANCH  12  15
DOCKED: ATOM     14  C1  UNL     1       7.900  -1.141  -0.937 +0.00 +0.00    +0.004 C  
DOCKED: ATOM     15  C2  UNL     1       7.742  -2.021  -2.169 +0.00 +0.00    +0.003 C  
DOCKED: ENDBRANCH  12  15
DOCKED: ENDBRANCH  11  12
DOCKED: BRANCH  11  16
DOCKED: ATOM     16  O1  UNL     1       7.549   0.263  -3.493 +0.00 -0.00    -0.382 OA 
DOCKED: ATOM     17  H11 UNL     1       7.167   1.055  -3.068 +0.00 +0.00    +0.210 HD 
DOCKED: ENDBRANCH  11  16
DOCKED: ENDBRANCH   7  11
DOCKED: ENDBRANCH   6   9
DOCKED: BRANCH   6  18
DOCKED: ATOM     18  C8  UNL     1       1.676  -1.014  -3.108 +0.00 +0.00    +0.037 C  
DOCKED: BRANCH  18  19
DOCKED: ATOM     19  C9  UNL     1       1.596  -2.008  -4.275 +0.00 +0.00    +0.074 C  
DOCKED: BRANCH  19  20
DOCKED: ATOM     20  C10 UNL     1       2.416  -3.268  -4.084 +0.00 +0.00    +0.341 C  
DOCKED: ATOM     21  F1  UNL     1       3.161  -3.163  -2.957 +0.00 -0.00    -0.209 F  
DOCKED: ATOM     22  F2  UNL     1       3.276  -3.429  -5.119 +0.00 -0.00    -0.209 F  
DOCKED: ENDBRANCH  19  20
DOCKED: ENDBRANCH  18  19
DOCKED: ENDBRANCH   6  18
DOCKED: ENDBRANCH   2   6
DOCKED: ENDBRANCH   1   4
DOCKED: BRANCH   1  23
DOCKED: ATOM     23  C13 UNL     1       4.406   0.754   0.997 +0.00 +0.00    +0.060 C  
DOCKED: BRANCH  23  24
DOCKED: ATOM     24  C14 UNL     1       3.955  -0.638   0.633 +0.00 -0.00    -0.046 A  
DOCKED: ATOM     25  C15 UNL     1       2.604  -0.997   0.728 +0.00 +0.00    +0.004 A  
DOCKED: ATOM     26  C16 UNL     1       2.187  -2.280   0.369 +0.00 +0.00    +0.000 A  
DOCKED: ATOM     27  C17 UNL     1       3.114  -3.216  -0.081 +0.00 +0.00    +0.000 A  
DOCKED: ATOM     28  C18 UNL     1       4.462  -2.869  -0.177 +0.00 +0.00    +0.000 A  
DOCKED: ATOM     29  C19 UNL     1       4.882  -1.588   0.179 +0.00 +0.00    +0.004 A  
DOCKED: ENDBRANCH  23  24
DOCKED: ENDBRANCH   1  23
DOCKED: BRANCH   1  30
DOCKED: ATOM     30  C20 UNL     1       5.813   2.427  -0.375 +0.00 +0.00    +0.136 C  
DOCKED: BRANCH  30  31
DOCKED: ATOM     31  O4  UNL     1       6.569   1.680  -1.331 +0.00 -0.00    -0.390 OA 
DOCKED: ATOM     32  H29 UNL     1       6.078   1.644  -2.168 +0.00 +0.00    +0.210 HD 
DOCKED: ENDBRANCH  30  31
DOCKED: BRANCH  30  33
DOCKED: ATOM     33  C21 UNL     1       5.633   3.897  -0.817 +0.00 +0.00    +0.046 C  
DOCKED: BRANCH  33  34
DOCKED: ATOM     34  C22 UNL     1       5.388   4.151  -2.320 +0.00 +0.00    +0.078 C  
DOCKED: BRANCH  34  35
DOCKED: ATOM     35  C26 UNL     1       6.725   4.392  -3.027 +0.00 +0.00    +0.217 C  
DOCKED: ATOM     36  O5  UNL     1       7.198   5.521  -3.132 +0.00 -0.00    -0.275 OA 
DOCKED: ATOM     37  N3  UNL     1       7.296   3.306  -3.643 +0.00 -0.00    -0.304 N  
DOCKED: ATOM     38  H38 UNL     1       7.058   2.359  -3.357 +0.00 +0.00    +0.149 HD 
DOCKED: BRANCH  37  39
DOCKED: ATOM     39  C27 UNL     1       8.530   3.412  -4.432 +0.00 +0.00    +0.161 C  
DOCKED: BRANCH  39  40
DOCKED: ATOM     40  C28 UNL     1       8.141   2.977  -5.862 +0.00 +0.00    +0.234 C  
DOCKED: ATOM     41  O6  UNL     1       8.613   3.538  -6.854 +0.00 -0.00    -0.274 OA 
DOCKED: ATOM     42  N4  UNL     1       7.226   1.957  -5.941 +0.00 -0.00    -0.310 N  
DOCKED: ATOM     43  H40 UNL     1       6.897   1.504  -5.096 +0.00 +0.00    +0.149 HD 
DOCKED: BRANCH  42  44
DOCKED: ATOM     44  C29 UNL     1       6.701   1.483  -7.202 +0.00 +0.00    +0.139 C  
DOCKED: BRANCH  44  45
DOCKED: ATOM     45  C30 UNL     1       5.344   0.865  -7.004 +0.00 -0.00    -0.027 A  
DOCKED: ATOM     46  C31 UNL     1       4.205   1.656  -6.832 +0.00 +0.00    +0.025 A  
DOCKED: ATOM     47  C32 UNL     1       2.982   1.026  -6.669 +0.00 +0.00    +0.111 A  
DOCKED: ATOM     48  N5  UNL     1       2.818  -0.316  -6.670 +0.00 -0.00    -0.263 NA 
DOCKED: ATOM     49  C33 UNL     1       3.930  -1.064  -6.831 +0.00 +0.00    +0.111 A  
DOCKED: ATOM     50  C34 UNL     1       5.197  -0.528  -6.992 +0.00 +0.00    +0.025 A  
DOCKED: ENDBRANCH  44  45
DOCKED: ENDBRANCH  42  44
DOCKED: ENDBRANCH  39  40
DOCKED: BRANCH  39  51
DOCKED: ATOM     51  C35 UNL     1       9.695   2.585  -3.835 +0.00 +0.00    +0.012 C  
DOCKED: ATOM     52  C36 UNL     1      10.011   1.335  -4.663 +0.00 +0.00    +0.009 C  
DOCKED: ATOM     53  C37 UNL     1       9.469   2.196  -2.370 +0.00 +0.00    +0.009 C  
DOCKED: ENDBRANCH  39  51
DOCKED: ENDBRANCH  37  39
DOCKED: ENDBRANCH  34  35
DOCKED: BRANCH  34  54
DOCKED: ATOM     54  C23 UNL     1       4.300   5.194  -2.635 +0.00 +0.00    +0.018 C  
DOCKED: BRANCH  54  55
DOCKED: ATOM     55  C24 UNL     1       2.937   4.642  -3.085 +0.00 +0.00    +0.073 C  
DOCKED: BRANCH  55  56
DOCKED: ATOM     56  C25 UNL     1       2.937   4.007  -4.465 +0.00 +0.00    +0.341 C  
DOCKED: ATOM     57  F3  UNL     1       4.209   3.888  -4.922 +0.00 -0.00    -0.209 F  
DOCKED: ATOM     58  F4  UNL     1       2.413   2.760  -4.412 +0.00 -0.00    -0.209 F  
DOCKED: ENDBRANCH  55  56
DOCKED: ENDBRANCH  54  55
DOCKED: ENDBRANCH  34  54
DOCKED: ENDBRANCH  33  34
DOCKED: ENDBRANCH  30  33
DOCKED: ENDBRANCH   1  30
DOCKED: TORSDOF 25
DOCKED: TER
DOCKED: ENDMDL
________________________________________________________________________________


    FINAL DOCKED STATE:
    ________________________


Run:   2 / 20
Time taken for this run:   2.906s

DOCKED: MODEL        2
DOCKED: USER    Run = 2
DOCKED: USER
DOCKED: USER    Estimated Free Energy of Binding    =  +7.46 kcal/mol  [=(1)+(2)+(3)-(4)]
DOCKED: USER
DOCKED: USER    (1) Final Intermolecular Energy     =  +0.00 kcal/mol
DOCKED: USER        vdW + Hbond + desolv Energy     =  +0.00 kcal/mol
DOCKED: USER        Electrostatic Energy            =  +0.00 kcal/mol
DOCKED: USER        Moving Ligand-Fixed Receptor    =  +0.00 kcal/mol
DOCKED: USER        Moving Ligand-Moving Receptor   =  +0.00 kcal/mol
DOCKED: USER    (2) Final Total Internal Energy     = -14.56 kcal/mol
DOCKED: USER    (3) Torsional Free Energy           =  +7.46 kcal/mol
DOCKED: USER    (4) Unbound System's Energy         = -14.56 kcal/mol
DOCKED: USER
DOCKED: USER
DOCKED: REMARK  Name = ligands/ligand_14.pdb
DOCKED: REMARK  29 active torsions:
DOCKED: REMARK  status: ('A' for Active; 'I' for Inactive)
DOCKED: REMARK    1  A    between atoms: C1_1  and  C2_2
DOCKED: REMARK    2  A    between atoms: C2_2  and  C3_3
DOCKED: REMARK    3  A    between atoms: C3_3  and  C4_4
DOCKED: REMARK    4  A    between atoms: C3_3  and  C5_5
DOCKED: REMARK    5  A    between atoms: C5_5  and  O1_6
DOCKED: REMARK    6  A    between atoms: C5_5  and  C6_7
DOCKED: REMARK    7  A    between atoms: N1_9  and  C7_10
DOCKED: REMARK    8  A    between atoms: C7_10  and  C8_11
DOCKED: REMARK    9  A    between atoms: C7_10  and  C11_16
DOCKED: REMARK   10  A    between atoms: C8_11  and  C9_12
DOCKED: REMARK   11  A    between atoms: C9_12  and  C10_13
DOCKED: REMARK   12  A    between atoms: N2_18  and  C12_19
DOCKED: REMARK   13  A    between atoms: C12_19  and  C13_20
DOCKED: REMARK   14  A    between atoms: C12_19  and  C20_27
DOCKED: REMARK   15  A    between atoms: C13_20  and  C14_21
DOCKED: REMARK   16  A    between atoms: C20_27  and  O4_28
DOCKED: REMARK   17  A    between atoms: C20_27  and  C21_29
DOCKED: REMARK   18  A    between atoms: C21_29  and  C22_30
DOCKED: REMARK   19  A    between atoms: C22_30  and  C23_31
DOCKED: REMARK   20  A    between atoms: C22_30  and  C26_36
DOCKED: REMARK   21  A    between atoms: C23_31  and  C24_32
DOCKED: REMARK   22  A    between atoms: C24_32  and  C25_33
DOCKED: REMARK   23  A    between atoms: N3_38  and  C27_39
DOCKED: REMARK   24  A    between atoms: C27_39  and  C28_40
DOCKED: REMARK   25  A    between atoms: C27_39  and  C35_50
DOCKED: REMARK   26  A    between atoms: N4_42  and  C29_43
DOCKED: REMARK   27  A    between atoms: C29_43  and  C30_44
DOCKED: REMARK   28  A    between atoms: C35_50  and  C36_51
DOCKED: REMARK   29  A    between atoms: C35_50  and  C37_52
DOCKED: REMARK                            x       y       z     vdW  Elec       q    Type
DOCKED: REMARK                         _______ _______ _______ _____ _____    ______ ____
DOCKED: USER                              x       y       z     vdW  Elec       q    Type
DOCKED: USER                           _______ _______ _______ _____ _____    ______ ____
DOCKED: ROOT
DOCKED: ATOM      1  C12 UNL     1       9.743  -7.286   3.436 +0.00 +0.00    +0.106 C  
DOCKED: ENDROOT
DOCKED: BRANCH   1   4
DOCKED: ATOM      2  C11 UNL     1       9.653  -9.504   4.593 +0.00 +0.00    +0.234 C  
DOCKED: ATOM      3  O3  UNL     1      10.789  -9.820   4.248 +0.00 -0.00    -0.274 OA 
DOCKED: ATOM      4  N2  UNL     1       9.072  -8.308   4.243 +0.00 -0.00    -0.308 N  
DOCKED: ATOM      5  H19 UNL     1       8.069  -8.186   4.408 +0.00 +0.00    +0.149 HD 
DOCKED: BRANCH   2   6
DOCKED: ATOM      6  C7  UNL     1       8.724 -10.423   5.416 +0.00 +0.00    +0.159 C  
DOCKED: BRANCH   6   9
DOCKED: ATOM      7  C6  UNL     1       7.252  -8.571   6.166 +0.00 +0.00    +0.243 C  
DOCKED: ATOM      8  O2  UNL     1       8.156  -7.996   6.765 +0.00 -0.00    -0.273 OA 
DOCKED: ATOM      9  N1  UNL     1       7.417  -9.775   5.517 +0.00 -0.00    -0.302 N  
DOCKED: ATOM     10  H12 UNL     1       6.712  -9.992   4.817 +0.00 +0.00    +0.150 HD 
DOCKED: BRANCH   7  11
DOCKED: ATOM     11  C5  UNL     1       5.823  -8.012   6.075 +0.00 +0.00    +0.203 C  
DOCKED: BRANCH  11  12
DOCKED: ATOM     12  C3  UNL     1       5.085  -8.528   4.823 +0.00 +0.00    +0.023 C  
DOCKED: ATOM     13  C4  UNL     1       4.098  -9.643   5.182 +0.00 +0.00    +0.010 C  
DOCKED: BRANCH  12  15
DOCKED: ATOM     14  C1  UNL     1       3.202  -7.845   3.182 +0.00 +0.00    +0.004 C  
DOCKED: ATOM     15  C2  UNL     1       4.387  -7.400   4.028 +0.00 +0.00    +0.003 C  
DOCKED: ENDBRANCH  12  15
DOCKED: ENDBRANCH  11  12
DOCKED: BRANCH  11  16
DOCKED: ATOM     16  O1  UNL     1       5.909  -6.581   6.023 +0.00 -0.00    -0.382 OA 
DOCKED: ATOM     17  H11 UNL     1       6.830  -6.348   6.249 +0.00 +0.00    +0.210 HD 
DOCKED: ENDBRANCH  11  16
DOCKED: ENDBRANCH   7  11
DOCKED: ENDBRANCH   6   9
DOCKED: BRANCH   6  18
DOCKED: ATOM     18  C8  UNL     1       8.551 -11.805   4.768 +0.00 +0.00    +0.037 C  
DOCKED: BRANCH  18  19
DOCKED: ATOM     19  C9  UNL     1       7.609 -11.867   3.558 +0.00 +0.00    +0.074 C  
DOCKED: BRANCH  19  20
DOCKED: ATOM     20  C10 UNL     1       6.207 -12.349   3.877 +0.00 +0.00    +0.341 C  
DOCKED: ATOM     21  F1  UNL     1       5.300 -11.579   3.229 +0.00 -0.00    -0.209 F  
DOCKED: ATOM     22  F2  UNL     1       5.960 -12.227   5.205 +0.00 -0.00    -0.209 F  
DOCKED: ENDBRANCH  19  20
DOCKED: ENDBRANCH  18  19
DOCKED: ENDBRANCH   6  18
DOCKED: ENDBRANCH   2   6
DOCKED: ENDBRANCH   1   4
DOCKED: BRANCH   1  23
DOCKED: ATOM     23  C13 UNL     1       9.692  -7.696   1.947 +0.00 +0.00    +0.060 C  
DOCKED: BRANCH  23  24
DOCKED: ATOM     24  C14 UNL     1       8.475  -8.508   1.585 +0.00 -0.00    -0.046 A  
DOCKED: ATOM     25  C15 UNL     1       7.191  -8.054   1.914 +0.00 +0.00    +0.004 A  
DOCKED: ATOM     26  C16 UNL     1       6.065  -8.797   1.558 +0.00 +0.00    +0.000 A  
DOCKED: ATOM     27  C17 UNL     1       6.211 -10.002   0.876 +0.00 +0.00    +0.000 A  
DOCKED: ATOM     28  C18 UNL     1       7.485 -10.465   0.546 +0.00 +0.00    +0.000 A  
DOCKED: ATOM     29  C19 UNL     1       8.612  -9.724   0.899 +0.00 +0.00    +0.004 A  
DOCKED: ENDBRANCH  23  24
DOCKED: ENDBRANCH   1  23
DOCKED: BRANCH   1  30
DOCKED: ATOM     30  C20 UNL     1       9.086  -5.901   3.700 +0.00 +0.00    +0.136 C  
DOCKED: BRANCH  30  31
DOCKED: ATOM     31  O4  UNL     1       7.826  -6.124   4.339 +0.00 -0.00    -0.390 OA 
DOCKED: ATOM     32  H29 UNL     1       7.980  -6.436   5.247 +0.00 +0.00    +0.210 HD 
DOCKED: ENDBRANCH  30  31
DOCKED: BRANCH  30  33
DOCKED: ATOM     33  C21 UNL     1      10.009  -5.009   4.560 +0.00 +0.00    +0.046 C  
DOCKED: BRANCH  33  34
DOCKED: ATOM     34  C22 UNL     1      10.005  -5.262   6.083 +0.00 +0.00    +0.078 C  
DOCKED: BRANCH  34  35
DOCKED: ATOM     35  C26 UNL     1       8.719  -4.700   6.697 +0.00 +0.00    +0.217 C  
DOCKED: ATOM     36  O5  UNL     1       7.863  -5.438   7.177 +0.00 -0.00    -0.275 OA 
DOCKED: ATOM     37  N3  UNL     1       8.520  -3.348   6.565 +0.00 -0.00    -0.304 N  
DOCKED: ATOM     38  H38 UNL     1       9.303  -2.718   6.407 +0.00 +0.00    +0.149 HD 
DOCKED: BRANCH  37  39
DOCKED: ATOM     39  C27 UNL     1       7.291  -2.689   7.026 +0.00 +0.00    +0.161 C  
DOCKED: BRANCH  39  40
DOCKED: ATOM     40  C28 UNL     1       6.342  -2.693   5.808 +0.00 +0.00    +0.234 C  
DOCKED: ATOM     41  O6  UNL     1       5.769  -1.665   5.437 +0.00 -0.00    -0.274 OA 
DOCKED: ATOM     42  N4  UNL     1       6.167  -3.911   5.199 +0.00 -0.00    -0.310 N  
DOCKED: ATOM     43  H40 UNL     1       6.691  -4.717   5.519 +0.00 +0.00    +0.149 HD 
DOCKED: BRANCH  42  44
DOCKED: ATOM     44  C29 UNL     1       5.254  -4.101   4.093 +0.00 +0.00    +0.139 C  
DOCKED: BRANCH  44  45
DOCKED: ATOM     45  C30 UNL     1       6.016  -4.232   2.803 +0.00 -0.00    -0.027 A  
DOCKED: ATOM     46  C31 UNL     1       7.193  -3.512   2.580 +0.00 +0.00    +0.025 A  
DOCKED: ATOM     47  C32 UNL     1       7.855  -3.688   1.376 +0.00 +0.00    +0.111 A  
DOCKED: ATOM     48  N5  UNL     1       7.436  -4.522   0.398 +0.00 -0.00    -0.263 NA 
DOCKED: ATOM     49  C33 UNL     1       6.294  -5.203   0.629 +0.00 +0.00    +0.111 A  
DOCKED: ATOM     50  C34 UNL     1       5.556  -5.088   1.795 +0.00 +0.00    +0.025 A  
DOCKED: ENDBRANCH  44  45
DOCKED: ENDBRANCH  42  44
DOCKED: ENDBRANCH  39  40
DOCKED: BRANCH  39  51
DOCKED: ATOM     51  C35 UNL     1       7.549  -1.273   7.597 +0.00 +0.00    +0.012 C  
DOCKED: ATOM     52  C36 UNL     1       8.397  -0.408   6.659 +0.00 +0.00    +0.009 C  
DOCKED: ATOM     53  C37 UNL     1       8.175  -1.293   8.996 +0.00 +0.00    +0.009 C  
DOCKED: ENDBRANCH  39  51
DOCKED: ENDBRANCH  37  39
DOCKED: ENDBRANCH  34  35
DOCKED: BRANCH  34  54
DOCKED: ATOM     54  C23 UNL     1      11.296  -4.851   6.815 +0.00 +0.00    +0.018 C  
DOCKED: BRANCH  54  55
DOCKED: ATOM     55  C24 UNL     1      12.063  -5.976   7.528 +0.00 +0.00    +0.073 C  
DOCKED: BRANCH  55  56
DOCKED: ATOM     56  C25 UNL     1      12.035  -7.313   6.809 +0.00 +0.00    +0.341 C  
DOCKED: ATOM     57  F3  UNL     1      10.843  -7.928   7.017 +0.00 -0.00    -0.209 F  
DOCKED: ATOM     58  F4  UNL     1      12.167  -7.136   5.474 +0.00 -0.00    -0.209 F  
DOCKED: ENDBRANCH  55  56
DOCKED: ENDBRANCH  54  55
DOCKED: ENDBRANCH  34  54
DOCKED: ENDBRANCH  33  34
DOCKED: ENDBRANCH  30  33
DOCKED: ENDBRANCH   1  30
DOCKED: TORSDOF 25
DOCKED: TER
DOCKED: ENDMDL
________________________________________________________________________________


    FINAL DOCKED STATE:
    ________________________


Run:   3 / 20
Time taken for this run:   2.906s

DOCKED: MODEL        3
DOCKED: USER    Run = 3
DOCKED: USER
DOCKED: USER    Estimated Free Energy of Binding    =  +7.46 kcal/mol  [=(1)+(2)+(3)-(4)]
DOCKED: USER
DOCKED: USER    (1) Final Intermolecular Energy     =  +0.00 kcal/mol
DOCKED: USER        vdW + Hbond + desolv Energy     =  +0.00 kcal/mol
DOCKED: USER        Electrostatic Energy            =  +0.00 kcal/mol
DOCKED: USER        Moving Ligand-Fixed Receptor    =  +0.00 kcal/mol
DOCKED: USER        Moving Ligand-Moving Receptor   =  +0.00 kcal/mol
DOCKED: USER    (2) Final Total Internal Energy     = -14.87 kcal/mol
DOCKED: USER    (3) Torsional Free Energy           =  +7.46 kcal/mol
DOCKED: USER    (4) Unbound System's Energy         = -14.87 kcal/mol
DOCKED: USER
DOCKED: USER
DOCKED: REMARK  Name = ligands/ligand_14.pdb
DOCKED: REMARK  29 active torsions:
DOCKED: REMARK  status: ('A' for Active; 'I' for Inactive)
DOCKED: REMARK    1  A    between atoms: C1_1  and  C2_2
DOCKED: REMARK    2  A    between atoms: C2_2  and  C3_3
DOCKED: REMARK    3  A    between atoms: C3_3  and  C4_4
DOCKED: REMARK    4  A    between atoms: C3_3  and  C5_5
DOCKED: REMARK    5  A    between atoms: C5_5  and  O1_6
DOCKED: REMARK    6  A    between atoms: C5_5  and  C6_7
DOCKED: REMARK    7  A    between atoms: N1_9  and  C7_10
DOCKED: REMARK    8  A    between atoms: C7_10  and  C8_11
DOCKED: REMARK    9  A    between atoms: C7_10  and  C11_16
DOCKED: REMARK   10  A    between atoms: C8_11  and  C9_12
DOCKED: REMARK   11  A    between atoms: C9_12  and  C10_13
DOCKED: REMARK   12  A    between atoms: N2_18  and  C12_19
DOCKED: REMARK   13  A    between atoms: C12_19  and  C13_20
DOCKED: REMARK   14  A    between atoms: C12_19  and  C20_27
DOCKED: REMARK   15  A    between atoms: C13_20  and  C14_21
DOCKED: REMARK   16  A    between atoms: C20_27  and  O4_28
DOCKED: REMARK   17  A    between atoms: C20_27  and  C21_29
DOCKED: REMARK   18  A    between atoms: C21_29  and  C22_30
DOCKED: REMARK   19  A    between atoms: C22_30  and  C23_31
DOCKED: REMARK   20  A    between atoms: C22_30  and  C26_36
DOCKED: REMARK   21  A    between atoms: C23_31  and  C24_32
DOCKED: REMARK   22  A    between atoms: C24_32  and  C25_33
DOCKED: REMARK   23  A    between atoms: N3_38  and  C27_39
DOCKED: REMARK   24  A    between atoms: C27_39  and  C28_40
DOCKED: REMARK   25  A    between atoms: C27_39  and  C35_50
DOCKED: REMARK   26  A    between atoms: N4_42  and  C29_43
DOCKED: REMARK   27  A    between atoms: C29_43  and  C30_44
DOCKED: REMARK   28  A    between atoms: C35_50  and  C36_51
DOCKED: REMARK   29  A    between atoms: C35_50  and  C37_52
DOCKED: REMARK                            x       y       z     vdW  Elec       q    Type
DOCKED: REMARK                         _______ _______ _______ _____ _____    ______ ____
DOCKED: USER                              x       y       z     vdW  Elec       q    Type
DOCKED: USER                           _______ _______ _______ _____ _____    ______ ____
DOCKED: ROOT
DOCKED: ATOM      1  C12 UNL     1       7.908  -1.502   4.581 +0.00 +0.00    +0.106 C  
DOCKED: ENDROOT
DOCKED: BRANCH   1   4
DOCKED: ATOM      2  C11 UNL     1       8.380  -0.803   6.938 +0.00 +0.00    +0.234 C  
DOCKED: ATOM      3  O3  UNL     1       7.502  -1.519   7.411 +0.00 -0.00    -0.274 OA 
DOCKED: ATOM      4  N2  UNL     1       8.639  -0.731   5.590 +0.00 -0.00    -0.308 N  
DOCKED: ATOM      5  H19 UNL     1       9.255   0.013   5.250 +0.00 +0.00    +0.149 HD 
DOCKED: BRANCH   2   6
DOCKED: ATOM      6  C7  UNL     1       9.265   0.136   7.787 +0.00 +0.00    +0.159 C  
DOCKED: BRANCH   6   9
DOCKED: ATOM      7  C6  UNL     1      11.020   0.335   6.043 +0.00 +0.00    +0.243 C  
DOCKED: ATOM      8  O2  UNL     1      11.270  -0.867   6.053 +0.00 -0.00    -0.273 OA 
DOCKED: ATOM      9  N1  UNL     1      10.095   0.924   6.876 +0.00 -0.00    -0.302 N  
DOCKED: ATOM     10  H12 UNL     1       9.756   1.834   6.575 +0.00 +0.00    +0.150 HD 
DOCKED: BRANCH   7  11
DOCKED: ATOM     11  C5  UNL     1      11.717   1.325   5.096 +0.00 +0.00    +0.203 C  
DOCKED: BRANCH  11  12
DOCKED: ATOM     12  C3  UNL     1      10.771   2.462   4.660 +0.00 +0.00    +0.023 C  
DOCKED: ATOM     13  C4  UNL     1      11.032   3.739   5.465 +0.00 +0.00    +0.010 C  
DOCKED: BRANCH  12  15
DOCKED: ATOM     14  C1  UNL     1      10.022   1.779   2.277 +0.00 +0.00    +0.004 C  
DOCKED: ATOM     15  C2  UNL     1      10.827   2.741   3.140 +0.00 +0.00    +0.003 C  
DOCKED: ENDBRANCH  12  15
DOCKED: ENDBRANCH  11  12
DOCKED: BRANCH  11  16
DOCKED: ATOM     16  O1  UNL     1      12.157   0.599   3.940 +0.00 -0.00    -0.382 OA 
DOCKED: ATOM     17  H11 UNL     1      11.704  -0.266   3.964 +0.00 +0.00    +0.210 HD 
DOCKED: ENDBRANCH  11  16
DOCKED: ENDBRANCH   7  11
DOCKED: ENDBRANCH   6   9
DOCKED: BRANCH   6  18
DOCKED: ATOM     18  C8  UNL     1       8.433   1.087   8.659 +0.00 +0.00    +0.037 C  
DOCKED: BRANCH  18  19
DOCKED: ATOM     19  C9  UNL     1       9.222   2.150   9.438 +0.00 +0.00    +0.074 C  
DOCKED: BRANCH  19  20
DOCKED: ATOM     20  C10 UNL     1       9.361   3.479   8.723 +0.00 +0.00    +0.341 C  
DOCKED: ATOM     21  F1  UNL     1       8.821   3.390   7.483 +0.00 -0.00    -0.209 F  
DOCKED: ATOM     22  F2  UNL     1      10.670   3.794   8.567 +0.00 -0.00    -0.209 F  
DOCKED: ENDBRANCH  19  20
DOCKED: ENDBRANCH  18  19
DOCKED: ENDBRANCH   6  18
DOCKED: ENDBRANCH   2   6
DOCKED: ENDBRANCH   1   4
DOCKED: BRANCH   1  23
DOCKED: ATOM     23  C13 UNL     1       6.777  -0.630   3.992 +0.00 +0.00    +0.060 C  
DOCKED: BRANCH  23  24
DOCKED: ATOM     24  C14 UNL     1       6.644   0.717   4.657 +0.00 -0.00    -0.046 A  
DOCKED: ATOM     25  C15 UNL     1       5.782   0.891   5.747 +0.00 +0.00    +0.004 A  
DOCKED: ATOM     26  C16 UNL     1       5.677   2.134   6.374 +0.00 +0.00    +0.000 A  
DOCKED: ATOM     27  C17 UNL     1       6.426   3.213   5.915 +0.00 +0.00    +0.000 A  
DOCKED: ATOM     28  C18 UNL     1       7.285   3.051   4.827 +0.00 +0.00    +0.000 A  
DOCKED: ATOM     29  C19 UNL     1       7.394   1.811   4.200 +0.00 +0.00    +0.004 A  
DOCKED: ENDBRANCH  23  24
DOCKED: ENDBRANCH   1  23
DOCKED: BRANCH   1  30
DOCKED: ATOM     30  C20 UNL     1       8.900  -2.012   3.497 +0.00 +0.00    +0.136 C  
DOCKED: BRANCH  30  31
DOCKED: ATOM     31  O4  UNL     1      10.006  -1.107   3.450 +0.00 -0.00    -0.390 OA 
DOCKED: ATOM     32  H29 UNL     1      10.438  -1.085   4.320 +0.00 +0.00    +0.210 HD 
DOCKED: ENDBRANCH  30  31
DOCKED: BRANCH  30  33
DOCKED: ATOM     33  C21 UNL     1       9.359  -3.454   3.807 +0.00 +0.00    +0.046 C  
DOCKED: BRANCH  33  34
DOCKED: ATOM     34  C22 UNL     1      10.518  -3.618   4.814 +0.00 +0.00    +0.078 C  
DOCKED: BRANCH  34  35
DOCKED: ATOM     35  C26 UNL     1      11.855  -3.631   4.066 +0.00 +0.00    +0.217 C  
DOCKED: ATOM     36  O5  UNL     1      12.342  -4.677   3.644 +0.00 -0.00    -0.275 OA 
DOCKED: ATOM     37  N3  UNL     1      12.533  -2.439   4.007 +0.00 -0.00    -0.304 N  
DOCKED: ATOM     38  H38 UNL     1      12.044  -1.554   4.121 +0.00 +0.00    +0.149 HD 
DOCKED: BRANCH  37  39
DOCKED: ATOM     39  C27 UNL     1      13.865  -2.325   3.400 +0.00 +0.00    +0.161 C  
DOCKED: BRANCH  39  40
DOCKED: ATOM     40  C28 UNL     1      14.791  -1.827   4.531 +0.00 +0.00    +0.234 C  
DOCKED: ATOM     41  O6  UNL     1      15.962  -2.204   4.615 +0.00 -0.00    -0.274 OA 
DOCKED: ATOM     42  N4  UNL     1      14.211  -0.972   5.435 +0.00 -0.00    -0.310 N  
DOCKED: ATOM     43  H40 UNL     1      13.255  -0.663   5.300 +0.00 +0.00    +0.149 HD 
DOCKED: BRANCH  42  44
DOCKED: ATOM     44  C29 UNL     1      14.918  -0.474   6.594 +0.00 +0.00    +0.139 C  
DOCKED: BRANCH  44  45
DOCKED: ATOM     45  C30 UNL     1      13.943  -0.017   7.645 +0.00 -0.00    -0.027 A  
DOCKED: ATOM     46  C31 UNL     1      13.683   1.340   7.851 +0.00 +0.00    +0.025 A  
DOCKED: ATOM     47  C32 UNL     1      12.763   1.695   8.825 +0.00 +0.00    +0.111 A  
DOCKED: ATOM     48  N5  UNL     1      12.093   0.805   9.591 +0.00 -0.00    -0.263 NA 
DOCKED: ATOM     49  C33 UNL     1      12.364  -0.501   9.383 +0.00 +0.00    +0.111 A  
DOCKED: ATOM     50  C34 UNL     1      13.272  -0.954   8.441 +0.00 +0.00    +0.025 A  
DOCKED: ENDBRANCH  44  45
DOCKED: ENDBRANCH  42  44
DOCKED: ENDBRANCH  39  40
DOCKED: BRANCH  39  51
DOCKED: ATOM     51  C35 UNL     1      13.878  -1.411   2.150 +0.00 +0.00    +0.012 C  
DOCKED: ATOM     52  C36 UNL     1      14.580  -0.074   2.409 +0.00 +0.00    +0.009 C  
DOCKED: ATOM     53  C37 UNL     1      12.480  -1.163   1.572 +0.00 +0.00    +0.009 C  
DOCKED: ENDBRANCH  39  51
DOCKED: ENDBRANCH  37  39
DOCKED: ENDBRANCH  34  35
DOCKED: BRANCH  34  54
DOCKED: ATOM     54  C23 UNL     1      10.342  -4.764   5.828 +0.00 +0.00    +0.018 C  
DOCKED: BRANCH  54  55
DOCKED: ATOM     55  C24 UNL     1       9.866  -4.363   7.234 +0.00 +0.00    +0.073 C  
DOCKED: BRANCH  55  56
DOCKED: ATOM     56  C25 UNL     1      10.903  -3.628   8.065 +0.00 +0.00    +0.341 C  
DOCKED: ATOM     57  F3  UNL     1      11.966  -3.291   7.292 +0.00 -0.00    -0.209 F  
DOCKED: ATOM     58  F4  UNL     1      10.386  -2.478   8.559 +0.00 -0.00    -0.209 F  
DOCKED: ENDBRANCH  55  56
DOCKED: ENDBRANCH  54  55
DOCKED: ENDBRANCH  34  54
DOCKED: ENDBRANCH  33  34
DOCKED: ENDBRANCH  30  33
DOCKED: ENDBRANCH   1  30
DOCKED: TORSDOF 25
DOCKED: TER
DOCKED: ENDMDL
________________________________________________________________________________


    FINAL DOCKED STATE:
    ________________________


Run:   4 / 20
Time taken for this run:   2.906s

DOCKED: MODEL        4
DOCKED: USER    Run = 4
DOCKED: USER
DOCKED: USER    Estimated Free Energy of Binding    =  +7.46 kcal/mol  [=(1)+(2)+(3)-(4)]
DOCKED: USER
DOCKED: USER    (1) Final Intermolecular Energy     =  +0.00 kcal/mol
DOCKED: USER        vdW + Hbond + desolv Energy     =  +0.00 kcal/mol
DOCKED: USER        Electrostatic Energy            =  +0.00 kcal/mol
DOCKED: USER        Moving Ligand-Fixed Receptor    =  +0.00 kcal/mol
DOCKED: USER        Moving Ligand-Moving Receptor   =  +0.00 kcal/mol
DOCKED: USER    (2) Final Total Internal Energy     = -14.89 kcal/mol
DOCKED: USER    (3) Torsional Free Energy           =  +7.46 kcal/mol
DOCKED: USER    (4) Unbound System's Energy         = -14.89 kcal/mol
DOCKED: USER
DOCKED: USER
DOCKED: REMARK  Name = ligands/ligand_14.pdb
DOCKED: REMARK  29 active torsions:
DOCKED: REMARK  status: ('A' for Active; 'I' for Inactive)
DOCKED: REMARK    1  A    between atoms: C1_1  and  C2_2
DOCKED: REMARK    2  A    between atoms: C2_2  and  C3_3
DOCKED: REMARK    3  A    between atoms: C3_3  and  C4_4
DOCKED: REMARK    4  A    between atoms: C3_3  and  C5_5
DOCKED: REMARK    5  A    between atoms: C5_5  and  O1_6
DOCKED: REMARK    6  A    between atoms: C5_5  and  C6_7
DOCKED: REMARK    7  A    between atoms: N1_9  and  C7_10
DOCKED: REMARK    8  A    between atoms: C7_10  and  C8_11
DOCKED: REMARK    9  A    between atoms: C7_10  and  C11_16
DOCKED: REMARK   10  A    between atoms: C8_11  and  C9_12
DOCKED: REMARK   11  A    between atoms: C9_12  and  C10_13
DOCKED: REMARK   12  A    between atoms: N2_18  and  C12_19
DOCKED: REMARK   13  A    between atoms: C12_19  and  C13_20
DOCKED: REMARK   14  A    between atoms: C12_19  and  C20_27
DOCKED: REMARK   15  A    between atoms: C13_20  and  C14_21
DOCKED: REMARK   16  A    between atoms: C20_27  and  O4_28
DOCKED: REMARK   17  A    between atoms: C20_27  and  C21_29
DOCKED: REMARK   18  A    between atoms: C21_29  and  C22_30
DOCKED: REMARK   19  A    between atoms: C22_30  and  C23_31
DOCKED: REMARK   20  A    between atoms: C22_30  and  C26_36
DOCKED: REMARK   21  A    between atoms: C23_31  and  C24_32
DOCKED: REMARK   22  A    between atoms: C24_32  and  C25_33
DOCKED: REMARK   23  A    between atoms: N3_38  and  C27_39
DOCKED: REMARK   24  A    between atoms: C27_39  and  C28_40
DOCKED: REMARK   25  A    between atoms: C27_39  and  C35_50
DOCKED: REMARK   26  A    between atoms: N4_42  and  C29_43
DOCKED: REMARK   27  A    between atoms: C29_43  and  C30_44
DOCKED: REMARK   28  A    between atoms: C35_50  and  C36_51
DOCKED: REMARK   29  A    between atoms: C35_50  and  C37_52
DOCKED: REMARK                            x       y       z     vdW  Elec       q    Type
DOCKED: REMARK                         _______ _______ _______ _____ _____    ______ ____
DOCKED: USER                              x       y       z     vdW  Elec       q    Type
DOCKED: USER                           _______ _______ _______ _____ _____    ______ ____
DOCKED: ROOT
DOCKED: ATOM      1  C12 UNL     1      13.576  -6.527  -0.688 +0.00 +0.00    +0.106 C  
DOCKED: ENDROOT
DOCKED: BRANCH   1   4
DOCKED: ATOM      2  C11 UNL     1      15.667  -7.902  -0.660 +0.00 +0.00    +0.234 C  
DOCKED: ATOM      3  O3  UNL     1      15.773  -7.911  -1.884 +0.00 -0.00    -0.274 OA 
DOCKED: ATOM      4  N2  UNL     1      14.640  -7.265  -0.004 +0.00 -0.00    -0.308 N  
DOCKED: ATOM      5  H19 UNL     1      14.512  -7.449   0.995 +0.00 +0.00    +0.149 HD 
DOCKED: BRANCH   2   6
DOCKED: ATOM      6  C7  UNL     1      16.640  -8.640   0.286 +0.00 +0.00    +0.159 C  
DOCKED: BRANCH   6   9
DOCKED: ATOM      7  C6  UNL     1      15.984  -7.309   2.275 +0.00 +0.00    +0.243 C  
DOCKED: ATOM      8  O2  UNL     1      16.350  -6.248   1.779 +0.00 -0.00    -0.273 OA 
DOCKED: ATOM      9  N1  UNL     1      16.121  -8.528   1.648 +0.00 -0.00    -0.302 N  
DOCKED: ATOM     10  H12 UNL     1      15.520  -9.268   2.002 +0.00 +0.00    +0.150 HD 
DOCKED: BRANCH   7  11
DOCKED: ATOM     11  C5  UNL     1      15.329  -7.398   3.663 +0.00 +0.00    +0.203 C  
DOCKED: BRANCH  11  12
DOCKED: ATOM     12  C3  UNL     1      14.293  -8.538   3.734 +0.00 +0.00    +0.023 C  
DOCKED: ATOM     13  C4  UNL     1      14.878  -9.776   4.422 +0.00 +0.00    +0.010 C  
DOCKED: BRANCH  12  15
DOCKED: ATOM     14  C1  UNL     1      12.010  -7.339   3.498 +0.00 +0.00    +0.004 C  
DOCKED: ATOM     15  C2  UNL     1      12.967  -8.106   4.401 +0.00 +0.00    +0.003 C  
DOCKED: ENDBRANCH  12  15
DOCKED: ENDBRANCH  11  12
DOCKED: BRANCH  11  16
DOCKED: ATOM     16  O1  UNL     1      14.682  -6.147   3.930 +0.00 -0.00    -0.382 OA 
DOCKED: ATOM     17  H11 UNL     1      14.660  -5.657   3.086 +0.00 +0.00    +0.210 HD 
DOCKED: ENDBRANCH  11  16
DOCKED: ENDBRANCH   7  11
DOCKED: ENDBRANCH   6   9
DOCKED: BRANCH   6  18
DOCKED: ATOM     18  C8  UNL     1      16.788 -10.125  -0.075 +0.00 +0.00    +0.037 C  
DOCKED: BRANCH  18  19
DOCKED: ATOM     19  C9  UNL     1      17.634 -10.971   0.887 +0.00 +0.00    +0.074 C  
DOCKED: BRANCH  19  20
DOCKED: ATOM     20  C10 UNL     1      16.839 -11.676   1.968 +0.00 +0.00    +0.341 C  
DOCKED: ATOM     21  F1  UNL     1      15.536 -11.308   1.893 +0.00 -0.00    -0.209 F  
DOCKED: ATOM     22  F2  UNL     1      17.287 -11.312   3.194 +0.00 -0.00    -0.209 F  
DOCKED: ENDBRANCH  19  20
DOCKED: ENDBRANCH  18  19
DOCKED: ENDBRANCH   6  18
DOCKED: ENDBRANCH   2   6
DOCKED: ENDBRANCH   1   4
DOCKED: BRANCH   1  23
DOCKED: ATOM     23  C13 UNL     1      12.355  -7.453  -0.882 +0.00 +0.00    +0.060 C  
DOCKED: BRANCH  23  24
DOCKED: ATOM     24  C14 UNL     1      12.598  -8.875  -0.442 +0.00 -0.00    -0.046 A  
DOCKED: ATOM     25  C15 UNL     1      13.061  -9.833  -1.353 +0.00 +0.00    +0.004 A  
DOCKED: ATOM     26  C16 UNL     1      13.306 -11.143  -0.938 +0.00 +0.00    +0.000 A  
DOCKED: ATOM     27  C17 UNL     1      13.086 -11.508   0.388 +0.00 +0.00    +0.000 A  
DOCKED: ATOM     28  C18 UNL     1      12.622 -10.562   1.302 +0.00 +0.00    +0.000 A  
DOCKED: ATOM     29  C19 UNL     1      12.378  -9.252   0.891 +0.00 +0.00    +0.004 A  
DOCKED: ENDBRANCH  23  24
DOCKED: ENDBRANCH   1  23
DOCKED: BRANCH   1  30
DOCKED: ATOM     30  C20 UNL     1      13.232  -5.243   0.121 +0.00 +0.00    +0.136 C  
DOCKED: BRANCH  30  31
DOCKED: ATOM     31  O4  UNL     1      13.555  -5.485   1.492 +0.00 -0.00    -0.390 OA 
DOCKED: ATOM     32  H29 UNL     1      14.503  -5.688   1.566 +0.00 +0.00    +0.210 HD 
DOCKED: ENDBRANCH  30  31
DOCKED: BRANCH  30  33
DOCKED: ATOM     33  C21 UNL     1      13.998  -4.022  -0.437 +0.00 +0.00    +0.046 C  
DOCKED: BRANCH  33  34
DOCKED: ATOM     34  C22 UNL     1      15.460  -3.842   0.027 +0.00 +0.00    +0.078 C  
DOCKED: BRANCH  34  35
DOCKED: ATOM     35  C26 UNL     1      15.500  -2.951   1.273 +0.00 +0.00    +0.217 C  
DOCKED: ATOM     36  O5  UNL     1      15.603  -1.730   1.183 +0.00 -0.00    -0.275 OA 
DOCKED: ATOM     37  N3  UNL     1      15.545  -3.596   2.484 +0.00 -0.00    -0.304 N  
DOCKED: ATOM     38  H38 UNL     1      15.214  -4.554   2.577 +0.00 +0.00    +0.149 HD 
DOCKED: BRANCH  37  39
DOCKED: ATOM     39  C27 UNL     1      15.675  -2.870   3.753 +0.00 +0.00    +0.161 C  
DOCKED: BRANCH  39  40
DOCKED: ATOM     40  C28 UNL     1      16.995  -3.372   4.379 +0.00 +0.00    +0.234 C  
DOCKED: ATOM     41  O6  UNL     1      17.737  -2.613   5.007 +0.00 -0.00    -0.274 OA 
DOCKED: ATOM     42  N4  UNL     1      17.286  -4.695   4.161 +0.00 -0.00    -0.310 N  
DOCKED: ATOM     43  H40 UNL     1      16.625  -5.286   3.670 +0.00 +0.00    +0.149 HD 
DOCKED: BRANCH  42  44
DOCKED: ATOM     44  C29 UNL     1      18.518  -5.303   4.614 +0.00 +0.00    +0.139 C  
DOCKED: BRANCH  44  45
DOCKED: ATOM     45  C30 UNL     1      18.848  -6.506   3.773 +0.00 -0.00    -0.027 A  
DOCKED: ATOM     46  C31 UNL     1      19.387  -6.369   2.491 +0.00 +0.00    +0.025 A  
DOCKED: ATOM     47  C32 UNL     1      19.682  -7.517   1.773 +0.00 +0.00    +0.111 A  
DOCKED: ATOM     48  N5  UNL     1      19.485  -8.770   2.239 +0.00 -0.00    -0.263 NA 
DOCKED: ATOM     49  C33 UNL     1      18.958  -8.883   3.476 +0.00 +0.00    +0.111 A  
DOCKED: ATOM     50  C34 UNL     1      18.621  -7.797   4.267 +0.00 +0.00    +0.025 A  
DOCKED: ENDBRANCH  44  45
DOCKED: ENDBRANCH  42  44
DOCKED: ENDBRANCH  39  40
DOCKED: BRANCH  39  51
DOCKED: ATOM     51  C35 UNL     1      14.448  -3.057   4.679 +0.00 +0.00    +0.012 C  
DOCKED: ATOM     52  C36 UNL     1      14.753  -3.955   5.882 +0.00 +0.00    +0.009 C  
DOCKED: ATOM     53  C37 UNL     1      13.210  -3.577   3.940 +0.00 +0.00    +0.009 C  
DOCKED: ENDBRANCH  39  51
DOCKED: ENDBRANCH  37  39
DOCKED: ENDBRANCH  34  35
DOCKED: BRANCH  34  54
DOCKED: ATOM     54  C23 UNL     1      16.448  -3.436  -1.082 +0.00 +0.00    +0.018 C  
DOCKED: BRANCH  54  55
DOCKED: ATOM     55  C24 UNL     1      17.344  -4.555  -1.639 +0.00 +0.00    +0.073 C  
DOCKED: BRANCH  55  56
DOCKED: ATOM     56  C25 UNL     1      18.407  -5.052  -0.675 +0.00 +0.00    +0.341 C  
DOCKED: ATOM     57  F3  UNL     1      18.222  -4.496   0.549 +0.00 -0.00    -0.209 F  
DOCKED: ATOM     58  F4  UNL     1      18.317  -6.394  -0.522 +0.00 -0.00    -0.209 F  
DOCKED: ENDBRANCH  55  56
DOCKED: ENDBRANCH  54  55
DOCKED: ENDBRANCH  34  54
DOCKED: ENDBRANCH  33  34
DOCKED: ENDBRANCH  30  33
DOCKED: ENDBRANCH   1  30
DOCKED: TORSDOF 25
DOCKED: TER
DOCKED: ENDMDL
________________________________________________________________________________


    FINAL DOCKED STATE:
    ________________________


Run:   5 / 20
Time taken for this run:   2.906s

DOCKED: MODEL        5
DOCKED: USER    Run = 5
DOCKED: USER
DOCKED: USER    Estimated Free Energy of Binding    =  +7.46 kcal/mol  [=(1)+(2)+(3)-(4)]
DOCKED: USER
DOCKED: USER    (1) Final Intermolecular Energy     =  +0.00 kcal/mol
DOCKED: USER        vdW + Hbond + desolv Energy     =  +0.00 kcal/mol
DOCKED: USER        Electrostatic Energy            =  +0.00 kcal/mol
DOCKED: USER        Moving Ligand-Fixed Receptor    =  +0.00 kcal/mol
DOCKED: USER        Moving Ligand-Moving Receptor   =  +0.00 kcal/mol
DOCKED: USER    (2) Final Total Internal Energy     = -14.88 kcal/mol
DOCKED: USER    (3) Torsional Free Energy           =  +7.46 kcal/mol
DOCKED: USER    (4) Unbound System's Energy         = -14.88 kcal/mol
DOCKED: USER
DOCKED: USER
DOCKED: REMARK  Name = ligands/ligand_14.pdb
DOCKED: REMARK  29 active torsions:
DOCKED: REMARK  status: ('A' for Active; 'I' for Inactive)
DOCKED: REMARK    1  A    between atoms: C1_1  and  C2_2
DOCKED: REMARK    2  A    between atoms: C2_2  and  C3_3
DOCKED: REMARK    3  A    between atoms: C3_3  and  C4_4
DOCKED: REMARK    4  A    between atoms: C3_3  and  C5_5
DOCKED: REMARK    5  A    between atoms: C5_5  and  O1_6
DOCKED: REMARK    6  A    between atoms: C5_5  and  C6_7
DOCKED: REMARK    7  A    between atoms: N1_9  and  C7_10
DOCKED: REMARK    8  A    between atoms: C7_10  and  C8_11
DOCKED: REMARK    9  A    between atoms: C7_10  and  C11_16
DOCKED: REMARK   10  A    between atoms: C8_11  and  C9_12
DOCKED: REMARK   11  A    between atoms: C9_12  and  C10_13
DOCKED: REMARK   12  A    between atoms: N2_18  and  C12_19
DOCKED: REMARK   13  A    between atoms: C12_19  and  C13_20
DOCKED: REMARK   14  A    between atoms: C12_19  and  C20_27
DOCKED: REMARK   15  A    between atoms: C13_20  and  C14_21
DOCKED: REMARK   16  A    between atoms: C20_27  and  O4_28
DOCKED: REMARK   17  A    between atoms: C20_27  and  C21_29
DOCKED: REMARK   18  A    between atoms: C21_29  and  C22_30
DOCKED: REMARK   19  A    between atoms: C22_30  and  C23_31
DOCKED: REMARK   20  A    between atoms: C22_30  and  C26_36
DOCKED: REMARK   21  A    between atoms: C23_31  and  C24_32
DOCKED: REMARK   22  A    between atoms: C24_32  and  C25_33
DOCKED: REMARK   23  A    between atoms: N3_38  and  C27_39
DOCKED: REMARK   24  A    between atoms: C27_39  and  C28_40
DOCKED: REMARK   25  A    between atoms: C27_39  and  C35_50
DOCKED: REMARK   26  A    between atoms: N4_42  and  C29_43
DOCKED: REMARK   27  A    between atoms: C29_43  and  C30_44
DOCKED: REMARK   28  A    between atoms: C35_50  and  C36_51
DOCKED: REMARK   29  A    between atoms: C35_50  and  C37_52
DOCKED: REMARK                            x       y       z     vdW  Elec       q    Type
DOCKED: REMARK                         _______ _______ _______ _____ _____    ______ ____
DOCKED: USER                              x       y       z     vdW  Elec       q    Type
DOCKED: USER                           _______ _______ _______ _____ _____    ______ ____
DOCKED: ROOT
DOCKED: ATOM      1  C12 UNL     1       7.106   1.095  -2.201 +0.00 +0.00    +0.106 C  
DOCKED: ENDROOT
DOCKED: BRANCH   1   4
DOCKED: ATOM      2  C11 UNL     1       5.250   2.451  -1.211 +0.00 +0.00    +0.234 C  
DOCKED: ATOM      3  O3  UNL     1       4.509   1.482  -1.071 +0.00 -0.00    -0.274 OA 
DOCKED: ATOM      4  N2  UNL     1       6.511   2.355  -1.749 +0.00 -0.00    -0.308 N  
DOCKED: ATOM      5  H19 UNL     1       7.001   3.218  -2.002 +0.00 +0.00    +0.149 HD 
DOCKED: BRANCH   2   6
DOCKED: ATOM      6  C7  UNL     1       4.843   3.896  -0.845 +0.00 +0.00    +0.159 C  
DOCKED: BRANCH   6   9
DOCKED: ATOM      7  C6  UNL     1       7.175   4.745  -0.821 +0.00 +0.00    +0.243 C  
DOCKED: ATOM      8  O2  UNL     1       7.514   4.007   0.099 +0.00 -0.00    -0.273 OA 
DOCKED: ATOM      9  N1  UNL     1       5.893   4.796  -1.321 +0.00 -0.00    -0.302 N  
DOCKED: ATOM     10  H12 UNL     1       5.805   5.196  -2.252 +0.00 +0.00    +0.150 HD 
DOCKED: BRANCH   7  11
DOCKED: ATOM     11  C5  UNL     1       8.150   5.706  -1.521 +0.00 +0.00    +0.203 C  
DOCKED: BRANCH  11  12
DOCKED: ATOM     12  C3  UNL     1       7.806   5.881  -3.015 +0.00 +0.00    +0.023 C  
DOCKED: ATOM     13  C4  UNL     1       7.042   7.186  -3.258 +0.00 +0.00    +0.010 C  
DOCKED: BRANCH  12  15
DOCKED: ATOM     14  C1  UNL     1       9.512   4.366  -4.239 +0.00 +0.00    +0.004 C  
DOCKED: ATOM     15  C2  UNL     1       9.046   5.783  -3.933 +0.00 +0.00    +0.003 C  
DOCKED: ENDBRANCH  12  15
DOCKED: ENDBRANCH  11  12
DOCKED: BRANCH  11  16
DOCKED: ATOM     16  O1  UNL     1       9.472   5.166  -1.396 +0.00 -0.00    -0.382 OA 
DOCKED: ATOM     17  H11 UNL     1       9.371   4.247  -1.084 +0.00 +0.00    +0.210 HD 
DOCKED: ENDBRANCH  11  16
DOCKED: ENDBRANCH   7  11
DOCKED: ENDBRANCH   6   9
DOCKED: BRANCH   6  18
DOCKED: ATOM     18  C8  UNL     1       3.506   4.301  -1.482 +0.00 +0.00    +0.037 C  
DOCKED: BRANCH  18  19
DOCKED: ATOM     19  C9  UNL     1       3.104   5.774  -1.321 +0.00 +0.00    +0.074 C  
DOCKED: BRANCH  19  20
DOCKED: ATOM     20  C10 UNL     1       3.500   6.664  -2.482 +0.00 +0.00    +0.341 C  
DOCKED: ATOM     21  F1  UNL     1       4.292   5.974  -3.339 +0.00 -0.00    -0.209 F  
DOCKED: ATOM     22  F2  UNL     1       4.220   7.723  -2.038 +0.00 -0.00    -0.209 F  
DOCKED: ENDBRANCH  19  20
DOCKED: ENDBRANCH  18  19
DOCKED: ENDBRANCH   6  18
DOCKED: ENDBRANCH   2   6
DOCKED: ENDBRANCH   1   4
DOCKED: BRANCH   1  23
DOCKED: ATOM     23  C13 UNL     1       6.853   0.926  -3.716 +0.00 +0.00    +0.060 C  
DOCKED: BRANCH  23  24
DOCKED: ATOM     24  C14 UNL     1       5.976   2.002  -4.307 +0.00 -0.00    -0.046 A  
DOCKED: ATOM     25  C15 UNL     1       6.537   3.188  -4.797 +0.00 +0.00    +0.004 A  
DOCKED: ATOM     26  C16 UNL     1       5.725   4.172  -5.363 +0.00 +0.00    +0.000 A  
DOCKED: ATOM     27  C17 UNL     1       4.348   3.983  -5.439 +0.00 +0.00    +0.000 A  
DOCKED: ATOM     28  C18 UNL     1       3.779   2.806  -4.950 +0.00 +0.00    +0.000 A  
DOCKED: ATOM     29  C19 UNL     1       4.588   1.820  -4.386 +0.00 +0.00    +0.004 A  
DOCKED: ENDBRANCH  23  24
DOCKED: ENDBRANCH   1  23
DOCKED: BRANCH   1  30
DOCKED: ATOM     30  C20 UNL     1       8.619   1.074  -1.840 +0.00 +0.00    +0.136 C  
DOCKED: BRANCH  30  31
DOCKED: ATOM     31  O4  UNL     1       9.082   2.427  -1.804 +0.00 -0.00    -0.390 OA 
DOCKED: ATOM     32  H29 UNL     1       8.558   2.926  -1.155 +0.00 +0.00    +0.210 HD 
DOCKED: ENDBRANCH  30  31
DOCKED: BRANCH  30  33
DOCKED: ATOM     33  C21 UNL     1       8.851   0.358  -0.491 +0.00 +0.00    +0.046 C  
DOCKED: BRANCH  33  34
DOCKED: ATOM     34  C22 UNL     1       8.639   1.193   0.791 +0.00 +0.00    +0.078 C  
DOCKED: BRANCH  34  35
DOCKED: ATOM     35  C26 UNL     1       9.961   1.850   1.203 +0.00 +0.00    +0.217 C  
DOCKED: ATOM     36  O5  UNL     1      10.756   1.278   1.944 +0.00 -0.00    -0.275 OA 
DOCKED: ATOM     37  N3  UNL     1      10.145   3.151   0.807 +0.00 -0.00    -0.304 N  
DOCKED: ATOM     38  H38 UNL     1       9.635   3.533   0.013 +0.00 +0.00    +0.149 HD 
DOCKED: BRANCH  37  39
DOCKED: ATOM     39  C27 UNL     1      11.323   3.932   1.207 +0.00 +0.00    +0.161 C  
DOCKED: BRANCH  39  40
DOCKED: ATOM     40  C28 UNL     1      10.768   5.141   1.989 +0.00 +0.00    +0.234 C  
DOCKED: ATOM     41  O6  UNL     1      11.372   5.613   2.956 +0.00 -0.00    -0.274 OA 
DOCKED: ATOM     42  N4  UNL     1       9.560   5.624   1.552 +0.00 -0.00    -0.310 N  
DOCKED: ATOM     43  H40 UNL     1       9.122   5.225   0.729 +0.00 +0.00    +0.149 HD 
DOCKED: BRANCH  42  44
DOCKED: ATOM     44  C29 UNL     1       8.868   6.703   2.221 +0.00 +0.00    +0.139 C  
DOCKED: BRANCH  44  45
DOCKED: ATOM     45  C30 UNL     1       7.400   6.665   1.895 +0.00 -0.00    -0.027 A  
DOCKED: ATOM     46  C31 UNL     1       6.547   5.738   2.499 +0.00 +0.00    +0.025 A  
DOCKED: ATOM     47  C32 UNL     1       5.202   5.763   2.166 +0.00 +0.00    +0.111 A  
DOCKED: ATOM     48  N5  UNL     1       4.657   6.639   1.292 +0.00 -0.00    -0.263 NA 
DOCKED: ATOM     49  C33 UNL     1       5.498   7.523   0.714 +0.00 +0.00    +0.111 A  
DOCKED: ATOM     50  C34 UNL     1       6.857   7.569   0.974 +0.00 +0.00    +0.025 A  
DOCKED: ENDBRANCH  44  45
DOCKED: ENDBRANCH  42  44
DOCKED: ENDBRANCH  39  40
DOCKED: BRANCH  39  51
DOCKED: ATOM     51  C35 UNL     1      12.211   4.335   0.003 +0.00 +0.00    +0.012 C  
DOCKED: ATOM     52  C36 UNL     1      12.122   5.831  -0.315 +0.00 +0.00    +0.009 C  
DOCKED: ATOM     53  C37 UNL     1      11.922   3.515  -1.259 +0.00 +0.00    +0.009 C  
DOCKED: ENDBRANCH  39  51
DOCKED: ENDBRANCH  37  39
DOCKED: ENDBRANCH  34  35
DOCKED: BRANCH  34  54
DOCKED: ATOM     54  C23 UNL     1       7.906   0.462   1.930 +0.00 +0.00    +0.018 C  
DOCKED: BRANCH  54  55
DOCKED: ATOM     55  C24 UNL     1       6.418   0.803   2.112 +0.00 +0.00    +0.073 C  
DOCKED: BRANCH  55  56
DOCKED: ATOM     56  C25 UNL     1       6.151   2.194   2.662 +0.00 +0.00    +0.341 C  
DOCKED: ATOM     57  F3  UNL     1       7.303   2.911   2.692 +0.00 -0.00    -0.209 F  
DOCKED: ATOM     58  F4  UNL     1       5.285   2.861   1.864 +0.00 -0.00    -0.209 F  
DOCKED: ENDBRANCH  55  56
DOCKED: ENDBRANCH  54  55
DOCKED: ENDBRANCH  34  54
DOCKED: ENDBRANCH  33  34
DOCKED: ENDBRANCH  30  33
DOCKED: ENDBRANCH   1  30
DOCKED: TORSDOF 25
DOCKED: TER
DOCKED: ENDMDL
________________________________________________________________________________


    FINAL DOCKED STATE:
    ________________________


Run:   6 / 20
Time taken for this run:   2.906s

DOCKED: MODEL        6
DOCKED: USER    Run = 6
DOCKED: USER
DOCKED: USER    Estimated Free Energy of Binding    =  +7.46 kcal/mol  [=(1)+(2)+(3)-(4)]
DOCKED: USER
DOCKED: USER    (1) Final Intermolecular Energy     =  +0.00 kcal/mol
DOCKED: USER        vdW + Hbond + desolv Energy     =  +0.00 kcal/mol
DOCKED: USER        Electrostatic Energy            =  +0.00 kcal/mol
DOCKED: USER        Moving Ligand-Fixed Receptor    =  +0.00 kcal/mol
DOCKED: USER        Moving Ligand-Moving Receptor   =  +0.00 kcal/mol
DOCKED: USER    (2) Final Total Internal Energy     = -14.88 kcal/mol
DOCKED: USER    (3) Torsional Free Energy           =  +7.46 kcal/mol
DOCKED: USER    (4) Unbound System's Energy         = -14.88 kcal/mol
DOCKED: USER
DOCKED: USER
DOCKED: REMARK  Name = ligands/ligand_14.pdb
DOCKED: REMARK  29 active torsions:
DOCKED: REMARK  status: ('A' for Active; 'I' for Inactive)
DOCKED: REMARK    1  A    between atoms: C1_1  and  C2_2
DOCKED: REMARK    2  A    between atoms: C2_2  and  C3_3
DOCKED: REMARK    3  A    between atoms: C3_3  and  C4_4
DOCKED: REMARK    4  A    between atoms: C3_3  and  C5_5
DOCKED: REMARK    5  A    between atoms: C5_5  and  O1_6
DOCKED: REMARK    6  A    between atoms: C5_5  and  C6_7
DOCKED: REMARK    7  A    between atoms: N1_9  and  C7_10
DOCKED: REMARK    8  A    between atoms: C7_10  and  C8_11
DOCKED: REMARK    9  A    between atoms: C7_10  and  C11_16
DOCKED: REMARK   10  A    between atoms: C8_11  and  C9_12
DOCKED: REMARK   11  A    between atoms: C9_12  and  C10_13
DOCKED: REMARK   12  A    between atoms: N2_18  and  C12_19
DOCKED: REMARK   13  A    between atoms: C12_19  and  C13_20
DOCKED: REMARK   14  A    between atoms: C12_19  and  C20_27
DOCKED: REMARK   15  A    between atoms: C13_20  and  C14_21
DOCKED: REMARK   16  A    between atoms: C20_27  and  O4_28
DOCKED: REMARK   17  A    between atoms: C20_27  and  C21_29
DOCKED: REMARK   18  A    between atoms: C21_29  and  C22_30
DOCKED: REMARK   19  A    between atoms: C22_30  and  C23_31
DOCKED: REMARK   20  A    between atoms: C22_30  and  C26_36
DOCKED: REMARK   21  A    between atoms: C23_31  and  C24_32
DOCKED: REMARK   22  A    between atoms: C24_32  and  C25_33
DOCKED: REMARK   23  A    between atoms: N3_38  and  C27_39
DOCKED: REMARK   24  A    between atoms: C27_39  and  C28_40
DOCKED: REMARK   25  A    between atoms: C27_39  and  C35_50
DOCKED: REMARK   26  A    between atoms: N4_42  and  C29_43
DOCKED: REMARK   27  A    between atoms: C29_43  and  C30_44
DOCKED: REMARK   28  A    between atoms: C35_50  and  C36_51
DOCKED: REMARK   29  A    between atoms: C35_50  and  C37_52
DOCKED: REMARK                            x       y       z     vdW  Elec       q    Type
DOCKED: REMARK                         _______ _______ _______ _____ _____    ______ ____
DOCKED: USER                              x       y       z     vdW  Elec       q    Type
DOCKED: USER                           _______ _______ _______ _____ _____    ______ ____
DOCKED: ROOT
DOCKED: ATOM      1  C12 UNL     1       4.228  -5.615   3.512 +0.00 +0.00    +0.106 C  
DOCKED: ENDROOT
DOCKED: BRANCH   1   4
DOCKED: ATOM      2  C11 UNL     1       3.609  -8.039   3.430 +0.00 +0.00    +0.234 C  
DOCKED: ATOM      3  O3  UNL     1       2.822  -7.889   2.499 +0.00 -0.00    -0.274 OA 
DOCKED: ATOM      4  N2  UNL     1       4.322  -7.000   3.979 +0.00 -0.00    -0.308 N  
DOCKED: ATOM      5  H19 UNL     1       4.818  -7.161   4.861 +0.00 +0.00    +0.149 HD 
DOCKED: BRANCH   2   6
DOCKED: ATOM      6  C7  UNL     1       3.859  -9.395   4.126 +0.00 +0.00    +0.159 C  
DOCKED: BRANCH   6   9
DOCKED: ATOM      7  C6  UNL     1       6.049  -8.689   5.056 +0.00 +0.00    +0.243 C  
DOCKED: ATOM      8  O2  UNL     1       6.539  -8.489   3.948 +0.00 -0.00    -0.273 OA 
DOCKED: ATOM      9  N1  UNL     1       4.772  -9.169   5.246 +0.00 -0.00    -0.302 N  
DOCKED: ATOM     10  H12 UNL     1       4.378  -9.002   6.168 +0.00 +0.00    +0.150 HD 
DOCKED: BRANCH   7  11
DOCKED: ATOM     11  C5  UNL     1       6.812  -8.428   6.365 +0.00 +0.00    +0.203 C  
DOCKED: BRANCH  11  12
DOCKED: ATOM     12  C3  UNL     1       5.863  -8.002   7.504 +0.00 +0.00    +0.023 C  
DOCKED: ATOM     13  C4  UNL     1       5.546  -9.182   8.430 +0.00 +0.00    +0.010 C  
DOCKED: BRANCH  12  15
DOCKED: ATOM     14  C1  UNL     1       6.203  -5.439   7.634 +0.00 +0.00    +0.004 C  
DOCKED: ATOM     15  C2  UNL     1       6.392  -6.791   8.307 +0.00 +0.00    +0.003 C  
DOCKED: ENDBRANCH  12  15
DOCKED: ENDBRANCH  11  12
DOCKED: BRANCH  11  16
DOCKED: ATOM     16  O1  UNL     1       7.766  -7.385   6.123 +0.00 -0.00    -0.382 OA 
DOCKED: ATOM     17  H11 UNL     1       7.553  -7.009   5.247 +0.00 +0.00    +0.210 HD 
DOCKED: ENDBRANCH  11  16
DOCKED: ENDBRANCH   7  11
DOCKED: ENDBRANCH   6   9
DOCKED: BRANCH   6  18
DOCKED: ATOM     18  C8  UNL     1       2.563 -10.025   4.654 +0.00 +0.00    +0.037 C  
DOCKED: BRANCH  18  19
DOCKED: ATOM     19  C9  UNL     1       2.725 -11.312   5.476 +0.00 +0.00    +0.074 C  
DOCKED: BRANCH  19  20
DOCKED: ATOM     20  C10 UNL     1       2.799 -11.094   6.975 +0.00 +0.00    +0.341 C  
DOCKED: ATOM     21  F1  UNL     1       2.839  -9.766   7.243 +0.00 -0.00    -0.209 F  
DOCKED: ATOM     22  F2  UNL     1       3.938 -11.637   7.472 +0.00 -0.00    -0.209 F  
DOCKED: ENDBRANCH  19  20
DOCKED: ENDBRANCH  18  19
DOCKED: ENDBRANCH   6  18
DOCKED: ENDBRANCH   2   6
DOCKED: ENDBRANCH   1   4
DOCKED: BRANCH   1  23
DOCKED: ATOM     23  C13 UNL     1       3.226  -4.843   4.399 +0.00 +0.00    +0.060 C  
DOCKED: BRANCH  23  24
DOCKED: ATOM     24  C14 UNL     1       2.552  -5.703   5.439 +0.00 -0.00    -0.046 A  
DOCKED: ATOM     25  C15 UNL     1       1.325  -6.320   5.167 +0.00 +0.00    +0.004 A  
DOCKED: ATOM     26  C16 UNL     1       0.715  -7.133   6.124 +0.00 +0.00    +0.000 A  
DOCKED: ATOM     27  C17 UNL     1       1.322  -7.331   7.361 +0.00 +0.00    +0.000 A  
DOCKED: ATOM     28  C18 UNL     1       2.543  -6.718   7.643 +0.00 +0.00    +0.000 A  
DOCKED: ATOM     29  C19 UNL     1       3.156  -5.907   6.689 +0.00 +0.00    +0.004 A  
DOCKED: ENDBRANCH  23  24
DOCKED: ENDBRANCH   1  23
DOCKED: BRANCH   1  30
DOCKED: ATOM     30  C20 UNL     1       5.644  -4.971   3.507 +0.00 +0.00    +0.136 C  
DOCKED: BRANCH  30  31
DOCKED: ATOM     31  O4  UNL     1       6.439  -5.643   4.487 +0.00 -0.00    -0.390 OA 
DOCKED: ATOM     32  H29 UNL     1       6.506  -6.584   4.252 +0.00 +0.00    +0.210 HD 
DOCKED: ENDBRANCH  30  31
DOCKED: BRANCH  30  33
DOCKED: ATOM     33  C21 UNL     1       6.281  -5.057   2.102 +0.00 +0.00    +0.046 C  
DOCKED: BRANCH  33  34
DOCKED: ATOM     34  C22 UNL     1       6.947  -6.396   1.717 +0.00 +0.00    +0.078 C  
DOCKED: BRANCH  34  35
DOCKED: ATOM     35  C26 UNL     1       8.437  -6.353   2.072 +0.00 +0.00    +0.217 C  
DOCKED: ATOM     36  O5  UNL     1       9.276  -5.958   1.267 +0.00 -0.00    -0.275 OA 
DOCKED: ATOM     37  N3  UNL     1       8.792  -6.895   3.283 +0.00 -0.00    -0.304 N  
DOCKED: ATOM     38  H38 UNL     1       8.112  -6.985   4.034 +0.00 +0.00    +0.149 HD 
DOCKED: BRANCH  37  39
DOCKED: ATOM     39  C27 UNL     1      10.192  -7.001   3.712 +0.00 +0.00    +0.161 C  
DOCKED: BRANCH  39  40
DOCKED: ATOM     40  C28 UNL     1      10.451  -8.512   3.896 +0.00 +0.00    +0.234 C  
DOCKED: ATOM     41  O6  UNL     1      11.537  -9.018   3.601 +0.00 -0.00    -0.274 OA 
DOCKED: ATOM     42  N4  UNL     1       9.391  -9.239   4.378 +0.00 -0.00    -0.310 N  
DOCKED: ATOM     43  H40 UNL     1       8.532  -8.770   4.641 +0.00 +0.00    +0.149 HD 
DOCKED: BRANCH  42  44
DOCKED: ATOM     44  C29 UNL     1       9.445 -10.676   4.536 +0.00 +0.00    +0.139 C  
DOCKED: BRANCH  44  45
DOCKED: ATOM     45  C30 UNL     1       8.059 -11.260   4.480 +0.00 -0.00    -0.027 A  
DOCKED: ATOM     46  C31 UNL     1       7.381 -11.402   3.267 +0.00 +0.00    +0.025 A  
DOCKED: ATOM     47  C32 UNL     1       6.113 -11.960   3.281 +0.00 +0.00    +0.111 A  
DOCKED: ATOM     48  N5  UNL     1       5.488 -12.385   4.402 +0.00 -0.00    -0.263 NA 
DOCKED: ATOM     49  C33 UNL     1       6.156 -12.233   5.564 +0.00 +0.00    +0.111 A  
DOCKED: ATOM     50  C34 UNL     1       7.421 -11.678   5.654 +0.00 +0.00    +0.025 A  
DOCKED: ENDBRANCH  44  45
DOCKED: ENDBRANCH  42  44
DOCKED: ENDBRANCH  39  40
DOCKED: BRANCH  39  51
DOCKED: ATOM     51  C35 UNL     1      10.493  -6.168   4.982 +0.00 +0.00    +0.012 C  
DOCKED: ATOM     52  C36 UNL     1      10.712  -7.045   6.220 +0.00 +0.00    +0.009 C  
DOCKED: ATOM     53  C37 UNL     1       9.425  -5.109   5.276 +0.00 +0.00    +0.009 C  
DOCKED: ENDBRANCH  39  51
DOCKED: ENDBRANCH  37  39
DOCKED: ENDBRANCH  34  35
DOCKED: BRANCH  34  54
DOCKED: ATOM     54  C23 UNL     1       6.645  -6.887   0.289 +0.00 +0.00    +0.018 C  
DOCKED: BRANCH  54  55
DOCKED: ATOM     55  C24 UNL     1       5.596  -8.003   0.160 +0.00 +0.00    +0.073 C  
DOCKED: BRANCH  55  56
DOCKED: ATOM     56  C25 UNL     1       6.059  -9.364   0.649 +0.00 +0.00    +0.341 C  
DOCKED: ATOM     57  F3  UNL     1       7.224  -9.241   1.334 +0.00 -0.00    -0.209 F  
DOCKED: ATOM     58  F4  UNL     1       5.150  -9.897   1.499 +0.00 -0.00    -0.209 F  
DOCKED: ENDBRANCH  55  56
DOCKED: ENDBRANCH  54  55
DOCKED: ENDBRANCH  34  54
DOCKED: ENDBRANCH  33  34
DOCKED: ENDBRANCH  30  33
DOCKED: ENDBRANCH   1  30
DOCKED: TORSDOF 25
DOCKED: TER
DOCKED: ENDMDL
________________________________________________________________________________


    FINAL DOCKED STATE:
    ________________________


Run:   7 / 20
Time taken for this run:   2.906s

DOCKED: MODEL        7
DOCKED: USER    Run = 7
DOCKED: USER
DOCKED: USER    Estimated Free Energy of Binding    =  +7.46 kcal/mol  [=(1)+(2)+(3)-(4)]
DOCKED: USER
DOCKED: USER    (1) Final Intermolecular Energy     =  +0.00 kcal/mol
DOCKED: USER        vdW + Hbond + desolv Energy     =  +0.00 kcal/mol
DOCKED: USER        Electrostatic Energy            =  +0.00 kcal/mol
DOCKED: USER        Moving Ligand-Fixed Receptor    =  +0.00 kcal/mol
DOCKED: USER        Moving Ligand-Moving Receptor   =  +0.00 kcal/mol
DOCKED: USER    (2) Final Total Internal Energy     = -14.87 kcal/mol
DOCKED: USER    (3) Torsional Free Energy           =  +7.46 kcal/mol
DOCKED: USER    (4) Unbound System's Energy         = -14.87 kcal/mol
DOCKED: USER
DOCKED: USER
DOCKED: REMARK  Name = ligands/ligand_14.pdb
DOCKED: REMARK  29 active torsions:
DOCKED: REMARK  status: ('A' for Active; 'I' for Inactive)
DOCKED: REMARK    1  A    between atoms: C1_1  and  C2_2
DOCKED: REMARK    2  A    between atoms: C2_2  and  C3_3
DOCKED: REMARK    3  A    between atoms: C3_3  and  C4_4
DOCKED: REMARK    4  A    between atoms: C3_3  and  C5_5
DOCKED: REMARK    5  A    between atoms: C5_5  and  O1_6
DOCKED: REMARK    6  A    between atoms: C5_5  and  C6_7
DOCKED: REMARK    7  A    between atoms: N1_9  and  C7_10
DOCKED: REMARK    8  A    between atoms: C7_10  and  C8_11
DOCKED: REMARK    9  A    between atoms: C7_10  and  C11_16
DOCKED: REMARK   10  A    between atoms: C8_11  and  C9_12
DOCKED: REMARK   11  A    between atoms: C9_12  and  C10_13
DOCKED: REMARK   12  A    between atoms: N2_18  and  C12_19
DOCKED: REMARK   13  A    between atoms: C12_19  and  C13_20
DOCKED: REMARK   14  A    between atoms: C12_19  and  C20_27
DOCKED: REMARK   15  A    between atoms: C13_20  and  C14_21
DOCKED: REMARK   16  A    between atoms: C20_27  and  O4_28
DOCKED: REMARK   17  A    between atoms: C20_27  and  C21_29
DOCKED: REMARK   18  A    between atoms: C21_29  and  C22_30
DOCKED: REMARK   19  A    between atoms: C22_30  and  C23_31
DOCKED: REMARK   20  A    between atoms: C22_30  and  C26_36
DOCKED: REMARK   21  A    between atoms: C23_31  and  C24_32
DOCKED: REMARK   22  A    between atoms: C24_32  and  C25_33
DOCKED: REMARK   23  A    between atoms: N3_38  and  C27_39
DOCKED: REMARK   24  A    between atoms: C27_39  and  C28_40
DOCKED: REMARK   25  A    between atoms: C27_39  and  C35_50
DOCKED: REMARK   26  A    between atoms: N4_42  and  C29_43
DOCKED: REMARK   27  A    between atoms: C29_43  and  C30_44
DOCKED: REMARK   28  A    between atoms: C35_50  and  C36_51
DOCKED: REMARK   29  A    between atoms: C35_50  and  C37_52
DOCKED: REMARK                            x       y       z     vdW  Elec       q    Type
DOCKED: REMARK                         _______ _______ _______ _____ _____    ______ ____
DOCKED: USER                              x       y       z     vdW  Elec       q    Type
DOCKED: USER                           _______ _______ _______ _____ _____    ______ ____
DOCKED: ROOT
DOCKED: ATOM      1  C12 UNL     1       9.366  -4.449   3.653 +0.00 +0.00    +0.106 C  
DOCKED: ENDROOT
DOCKED: BRANCH   1   4
DOCKED: ATOM      2  C11 UNL     1       9.186  -2.026   4.255 +0.00 +0.00    +0.234 C  
DOCKED: ATOM      3  O3  UNL     1       7.962  -2.056   4.343 +0.00 -0.00    -0.274 OA 
DOCKED: ATOM      4  N2  UNL     1       9.938  -3.128   3.925 +0.00 -0.00    -0.308 N  
DOCKED: ATOM      5  H19 UNL     1      10.927  -2.993   3.693 +0.00 +0.00    +0.149 HD 
DOCKED: BRANCH   2   6
DOCKED: ATOM      6  C7  UNL     1      10.025  -0.745   4.457 +0.00 +0.00    +0.159 C  
DOCKED: BRANCH   6   9
DOCKED: ATOM      7  C6  UNL     1      12.133  -1.988   4.874 +0.00 +0.00    +0.243 C  
DOCKED: ATOM      8  O2  UNL     1      11.689  -2.555   5.868 +0.00 -0.00    -0.273 OA 
DOCKED: ATOM      9  N1  UNL     1      11.419  -1.061   4.146 +0.00 -0.00    -0.302 N  
DOCKED: ATOM     10  H12 UNL     1      11.755  -0.899   3.200 +0.00 +0.00    +0.150 HD 
DOCKED: BRANCH   7  11
DOCKED: ATOM     11  C5  UNL     1      13.546  -2.247   4.326 +0.00 +0.00    +0.203 C  
DOCKED: BRANCH  11  12
DOCKED: ATOM     12  C3  UNL     1      13.602  -2.090   2.793 +0.00 +0.00    +0.023 C  
DOCKED: ATOM     13  C4  UNL     1      14.191  -0.732   2.397 +0.00 +0.00    +0.010 C  
DOCKED: BRANCH  12  15
DOCKED: ATOM     14  C1  UNL     1      13.549  -4.527   1.918 +0.00 +0.00    +0.004 C  
DOCKED: ATOM     15  C2  UNL     1      14.355  -3.248   2.097 +0.00 +0.00    +0.003 C  
DOCKED: ENDBRANCH  12  15
DOCKED: ENDBRANCH  11  12
DOCKED: BRANCH  11  16
DOCKED: ATOM     16  O1  UNL     1      13.922  -3.583   4.684 +0.00 -0.00    -0.382 OA 
DOCKED: ATOM     17  H11 UNL     1      13.116  -4.022   5.018 +0.00 +0.00    +0.210 HD 
DOCKED: ENDBRANCH  11  16
DOCKED: ENDBRANCH   7  11
DOCKED: ENDBRANCH   6   9
DOCKED: BRANCH   6  18
DOCKED: ATOM     18  C8  UNL     1       9.557   0.405   3.554 +0.00 +0.00    +0.037 C  
DOCKED: BRANCH  18  19
DOCKED: ATOM     19  C9  UNL     1      10.416   1.677   3.584 +0.00 +0.00    +0.074 C  
DOCKED: BRANCH  19  20
DOCKED: ATOM     20  C10 UNL     1      11.491   1.735   2.517 +0.00 +0.00    +0.341 C  
DOCKED: ATOM     21  F1  UNL     1      11.509   0.571   1.821 +0.00 -0.00    -0.209 F  
DOCKED: ATOM     22  F2  UNL     1      12.712   1.878   3.088 +0.00 -0.00    -0.209 F  
DOCKED: ENDBRANCH  19  20
DOCKED: ENDBRANCH  18  19
DOCKED: ENDBRANCH   6  18
DOCKED: ENDBRANCH   2   6
DOCKED: ENDBRANCH   1   4
DOCKED: BRANCH   1  23
DOCKED: ATOM     23  C13 UNL     1       9.189  -4.625   2.128 +0.00 +0.00    +0.060 C  
DOCKED: BRANCH  23  24
DOCKED: ATOM     24  C14 UNL     1       9.498  -3.379   1.335 +0.00 -0.00    -0.046 A  
DOCKED: ATOM     25  C15 UNL     1       8.488  -2.455   1.039 +0.00 +0.00    +0.004 A  
DOCKED: ATOM     26  C16 UNL     1       8.782  -1.292   0.325 +0.00 +0.00    +0.000 A  
DOCKED: ATOM     27  C17 UNL     1      10.082  -1.046  -0.105 +0.00 +0.00    +0.000 A  
DOCKED: ATOM     28  C18 UNL     1      11.095  -1.963   0.182 +0.00 +0.00    +0.000 A  
DOCKED: ATOM     29  C19 UNL     1      10.806  -3.124   0.897 +0.00 +0.00    +0.004 A  
DOCKED: ENDBRANCH  23  24
DOCKED: ENDBRANCH   1  23
DOCKED: BRANCH   1  30
DOCKED: ATOM     30  C20 UNL     1      10.269  -5.547   4.283 +0.00 +0.00    +0.136 C  
DOCKED: BRANCH  30  31
DOCKED: ATOM     31  O4  UNL     1      11.604  -5.037   4.349 +0.00 -0.00    -0.390 OA 
DOCKED: ATOM     32  H29 UNL     1      11.609  -4.228   4.888 +0.00 +0.00    +0.210 HD 
DOCKED: ENDBRANCH  30  31
DOCKED: BRANCH  30  33
DOCKED: ATOM     33  C21 UNL     1       9.747  -5.954   5.679 +0.00 +0.00    +0.046 C  
DOCKED: BRANCH  33  34
DOCKED: ATOM     34  C22 UNL     1      10.147  -5.051   6.866 +0.00 +0.00    +0.078 C  
DOCKED: BRANCH  34  35
DOCKED: ATOM     35  C26 UNL     1      11.445  -5.570   7.494 +0.00 +0.00    +0.217 C  
DOCKED: ATOM     36  O5  UNL     1      11.430  -6.400   8.399 +0.00 -0.00    -0.275 OA 
DOCKED: ATOM     37  N3  UNL     1      12.606  -4.966   7.082 +0.00 -0.00    -0.304 N  
DOCKED: ATOM     38  H38 UNL     1      12.655  -4.482   6.188 +0.00 +0.00    +0.149 HD 
DOCKED: BRANCH  37  39
DOCKED: ATOM     39  C27 UNL     1      13.912  -5.301   7.665 +0.00 +0.00    +0.161 C  
DOCKED: BRANCH  39  40
DOCKED: ATOM     40  C28 UNL     1      14.438  -3.985   8.278 +0.00 +0.00    +0.234 C  
DOCKED: ATOM     41  O6  UNL     1      15.074  -3.978   9.334 +0.00 -0.00    -0.274 OA 
DOCKED: ATOM     42  N4  UNL     1      14.124  -2.843   7.584 +0.00 -0.00    -0.310 N  
DOCKED: ATOM     43  H40 UNL     1      13.631  -2.906   6.700 +0.00 +0.00    +0.149 HD 
DOCKED: BRANCH  42  44
DOCKED: ATOM     44  C29 UNL     1      14.476  -1.524   8.061 +0.00 +0.00    +0.139 C  
DOCKED: BRANCH  44  45
DOCKED: ATOM     45  C30 UNL     1      13.530  -0.496   7.502 +0.00 -0.00    -0.027 A  
DOCKED: ATOM     46  C31 UNL     1      12.231  -0.361   7.998 +0.00 +0.00    +0.025 A  
DOCKED: ATOM     47  C32 UNL     1      11.414   0.615   7.450 +0.00 +0.00    +0.111 A  
DOCKED: ATOM     48  N5  UNL     1      11.798   1.454   6.462 +0.00 -0.00    -0.263 NA 
DOCKED: ATOM     49  C33 UNL     1      13.054   1.304   5.992 +0.00 +0.00    +0.111 A  
DOCKED: ATOM     50  C34 UNL     1      13.941   0.353   6.467 +0.00 +0.00    +0.025 A  
DOCKED: ENDBRANCH  44  45
DOCKED: ENDBRANCH  42  44
DOCKED: ENDBRANCH  39  40
DOCKED: BRANCH  39  51
DOCKED: ATOM     51  C35 UNL     1      14.884  -5.929   6.635 +0.00 +0.00    +0.012 C  
DOCKED: ATOM     52  C36 UNL     1      16.012  -4.973   6.235 +0.00 +0.00    +0.009 C  
DOCKED: ATOM     53  C37 UNL     1      14.175  -6.454   5.381 +0.00 +0.00    +0.009 C  
DOCKED: ENDBRANCH  39  51
DOCKED: ENDBRANCH  37  39
DOCKED: ENDBRANCH  34  35
DOCKED: BRANCH  34  54
DOCKED: ATOM     54  C23 UNL     1       9.019  -4.763   7.874 +0.00 +0.00    +0.018 C  
DOCKED: BRANCH  54  55
DOCKED: ATOM     55  C24 UNL     1       8.324  -3.398   7.747 +0.00 +0.00    +0.073 C  
DOCKED: BRANCH  55  56
DOCKED: ATOM     56  C25 UNL     1       9.166  -2.216   8.195 +0.00 +0.00    +0.341 C  
DOCKED: ATOM     57  F3  UNL     1      10.442  -2.615   8.426 +0.00 -0.00    -0.209 F  
DOCKED: ATOM     58  F4  UNL     1       9.211  -1.272   7.226 +0.00 -0.00    -0.209 F  
DOCKED: ENDBRANCH  55  56
DOCKED: ENDBRANCH  54  55
DOCKED: ENDBRANCH  34  54
DOCKED: ENDBRANCH  33  34
DOCKED: ENDBRANCH  30  33
DOCKED: ENDBRANCH   1  30
DOCKED: TORSDOF 25
DOCKED: TER
DOCKED: ENDMDL
________________________________________________________________________________


    FINAL DOCKED STATE:
    ________________________


Run:   8 / 20
Time taken for this run:   2.906s

DOCKED: MODEL        8
DOCKED: USER    Run = 8
DOCKED: USER
DOCKED: USER    Estimated Free Energy of Binding    =  +7.46 kcal/mol  [=(1)+(2)+(3)-(4)]
DOCKED: USER
DOCKED: USER    (1) Final Intermolecular Energy     =  +0.00 kcal/mol
DOCKED: USER        vdW + Hbond + desolv Energy     =  +0.00 kcal/mol
DOCKED: USER        Electrostatic Energy            =  +0.00 kcal/mol
DOCKED: USER        Moving Ligand-Fixed Receptor    =  +0.00 kcal/mol
DOCKED: USER        Moving Ligand-Moving Receptor   =  +0.00 kcal/mol
DOCKED: USER    (2) Final Total Internal Energy     = -14.88 kcal/mol
DOCKED: USER    (3) Torsional Free Energy           =  +7.46 kcal/mol
DOCKED: USER    (4) Unbound System's Energy         = -14.88 kcal/mol
DOCKED: USER
DOCKED: USER
DOCKED: REMARK  Name = ligands/ligand_14.pdb
DOCKED: REMARK  29 active torsions:
DOCKED: REMARK  status: ('A' for Active; 'I' for Inactive)
DOCKED: REMARK    1  A    between atoms: C1_1  and  C2_2
DOCKED: REMARK    2  A    between atoms: C2_2  and  C3_3
DOCKED: REMARK    3  A    between atoms: C3_3  and  C4_4
DOCKED: REMARK    4  A    between atoms: C3_3  and  C5_5
DOCKED: REMARK    5  A    between atoms: C5_5  and  O1_6
DOCKED: REMARK    6  A    between atoms: C5_5  and  C6_7
DOCKED: REMARK    7  A    between atoms: N1_9  and  C7_10
DOCKED: REMARK    8  A    between atoms: C7_10  and  C8_11
DOCKED: REMARK    9  A    between atoms: C7_10  and  C11_16
DOCKED: REMARK   10  A    between atoms: C8_11  and  C9_12
DOCKED: REMARK   11  A    between atoms: C9_12  and  C10_13
DOCKED: REMARK   12  A    between atoms: N2_18  and  C12_19
DOCKED: REMARK   13  A    between atoms: C12_19  and  C13_20
DOCKED: REMARK   14  A    between atoms: C12_19  and  C20_27
DOCKED: REMARK   15  A    between atoms: C13_20  and  C14_21
DOCKED: REMARK   16  A    between atoms: C20_27  and  O4_28
DOCKED: REMARK   17  A    between atoms: C20_27  and  C21_29
DOCKED: REMARK   18  A    between atoms: C21_29  and  C22_30
DOCKED: REMARK   19  A    between atoms: C22_30  and  C23_31
DOCKED: REMARK   20  A    between atoms: C22_30  and  C26_36
DOCKED: REMARK   21  A    between atoms: C23_31  and  C24_32
DOCKED: REMARK   22  A    between atoms: C24_32  and  C25_33
DOCKED: REMARK   23  A    between atoms: N3_38  and  C27_39
DOCKED: REMARK   24  A    between atoms: C27_39  and  C28_40
DOCKED: REMARK   25  A    between atoms: C27_39  and  C35_50
DOCKED: REMARK   26  A    between atoms: N4_42  and  C29_43
DOCKED: REMARK   27  A    between atoms: C29_43  and  C30_44
DOCKED: REMARK   28  A    between atoms: C35_50  and  C36_51
DOCKED: REMARK   29  A    between atoms: C35_50  and  C37_52
DOCKED: REMARK                            x       y       z     vdW  Elec       q    Type
DOCKED: REMARK                         _______ _______ _______ _____ _____    ______ ____
DOCKED: USER                              x       y       z     vdW  Elec       q    Type
DOCKED: USER                           _______ _______ _______ _____ _____    ______ ____
DOCKED: ROOT
DOCKED: ATOM      1  C12 UNL     1      12.012  -1.953   1.500 +0.00 +0.00    +0.106 C  
DOCKED: ENDROOT
DOCKED: BRANCH   1   4
DOCKED: ATOM      2  C11 UNL     1      14.031  -1.477   0.099 +0.00 +0.00    +0.234 C  
DOCKED: ATOM      3  O3  UNL     1      14.192  -2.654  -0.210 +0.00 -0.00    -0.274 OA 
DOCKED: ATOM      4  N2  UNL     1      13.011  -1.054   0.919 +0.00 -0.00    -0.308 N  
DOCKED: ATOM      5  H19 UNL     1      13.041  -0.096   1.279 +0.00 +0.00    +0.149 HD 
DOCKED: BRANCH   2   6
DOCKED: ATOM      6  C7  UNL     1      14.972  -0.339  -0.354 +0.00 +0.00    +0.159 C  
DOCKED: BRANCH   6   9
DOCKED: ATOM      7  C6  UNL     1      13.336   1.460   0.145 +0.00 +0.00    +0.243 C  
DOCKED: ATOM      8  O2  UNL     1      12.517   1.043  -0.670 +0.00 -0.00    -0.273 OA 
DOCKED: ATOM      9  N1  UNL     1      14.572   0.884   0.341 +0.00 -0.00    -0.302 N  
DOCKED: ATOM     10  H12 UNL     1      15.020   1.110   1.226 +0.00 +0.00    +0.150 HD 
DOCKED: BRANCH   7  11
DOCKED: ATOM     11  C5  UNL     1      13.073   2.681   1.041 +0.00 +0.00    +0.203 C  
DOCKED: BRANCH  11  12
DOCKED: ATOM     12  C3  UNL     1      13.786   2.554   2.403 +0.00 +0.00    +0.023 C  
DOCKED: ATOM     13  C4  UNL     1      15.088   3.363   2.424 +0.00 +0.00    +0.010 C  
DOCKED: BRANCH  12  15
DOCKED: ATOM     14  C1  UNL     1      11.893   1.851   4.023 +0.00 +0.00    +0.004 C  
DOCKED: ATOM     15  C2  UNL     1      12.877   2.931   3.595 +0.00 +0.00    +0.003 C  
DOCKED: ENDBRANCH  12  15
DOCKED: ENDBRANCH  11  12
DOCKED: BRANCH  11  16
DOCKED: ATOM     16  O1  UNL     1      11.659   2.782   1.250 +0.00 -0.00    -0.382 OA 
DOCKED: ATOM     17  H11 UNL     1      11.267   1.951   0.921 +0.00 +0.00    +0.210 HD 
DOCKED: ENDBRANCH  11  16
DOCKED: ENDBRANCH   7  11
DOCKED: ENDBRANCH   6   9
DOCKED: BRANCH   6  18
DOCKED: ATOM     18  C8  UNL     1      16.443  -0.640  -0.034 +0.00 +0.00    +0.037 C  
DOCKED: BRANCH  18  19
DOCKED: ATOM     19  C9  UNL     1      17.441   0.487  -0.333 +0.00 +0.00    +0.074 C  
DOCKED: BRANCH  19  20
DOCKED: ATOM     20  C10 UNL     1      17.735   1.395   0.844 +0.00 +0.00    +0.341 C  
DOCKED: ATOM     21  F1  UNL     1      16.956   1.046   1.897 +0.00 -0.00    -0.209 F  
DOCKED: ATOM     22  F2  UNL     1      17.435   2.680   0.533 +0.00 -0.00    -0.209 F  
DOCKED: ENDBRANCH  19  20
DOCKED: ENDBRANCH  18  19
DOCKED: ENDBRANCH   6  18
DOCKED: ENDBRANCH   2   6
DOCKED: ENDBRANCH   1   4
DOCKED: BRANCH   1  23
DOCKED: ATOM     23  C13 UNL     1      12.467  -2.376   2.915 +0.00 +0.00    +0.060 C  
DOCKED: BRANCH  23  24
DOCKED: ATOM     24  C14 UNL     1      13.844  -1.880   3.281 +0.00 -0.00    -0.046 A  
DOCKED: ATOM     25  C15 UNL     1      14.975  -2.668   3.029 +0.00 +0.00    +0.004 A  
DOCKED: ATOM     26  C16 UNL     1      16.249  -2.197   3.349 +0.00 +0.00    +0.000 A  
DOCKED: ATOM     27  C17 UNL     1      16.405  -0.940   3.928 +0.00 +0.00    +0.000 A  
DOCKED: ATOM     28  C18 UNL     1      15.284  -0.150   4.185 +0.00 +0.00    +0.000 A  
DOCKED: ATOM     29  C19 UNL     1      14.010  -0.616   3.866 +0.00 +0.00    +0.004 A  
DOCKED: ENDBRANCH  23  24
DOCKED: ENDBRANCH   1  23
DOCKED: BRANCH   1  30
DOCKED: ATOM     30  C20 UNL     1      10.622  -1.254   1.502 +0.00 +0.00    +0.136 C  
DOCKED: BRANCH  30  31
DOCKED: ATOM     31  O4  UNL     1      10.838   0.159   1.557 +0.00 -0.00    -0.390 OA 
DOCKED: ATOM     32  H29 UNL     1      11.389   0.427   0.802 +0.00 +0.00    +0.210 HD 
DOCKED: ENDBRANCH  30  31
DOCKED: BRANCH  30  33
DOCKED: ATOM     33  C21 UNL     1       9.805  -1.655   0.253 +0.00 +0.00    +0.046 C  
DOCKED: BRANCH  33  34
DOCKED: ATOM     34  C22 UNL     1      10.100  -0.887  -1.053 +0.00 +0.00    +0.078 C  
DOCKED: BRANCH  34  35
DOCKED: ATOM     35  C26 UNL     1       9.177   0.332  -1.155 +0.00 +0.00    +0.217 C  
DOCKED: ATOM     36  O5  UNL     1       8.072   0.255  -1.686 +0.00 -0.00    -0.275 OA 
DOCKED: ATOM     37  N3  UNL     1       9.701   1.531  -0.739 +0.00 -0.00    -0.304 N  
DOCKED: ATOM     38  H38 UNL     1      10.483   1.562  -0.088 +0.00 +0.00    +0.149 HD 
DOCKED: BRANCH  37  39
DOCKED: ATOM     39  C27 UNL     1       8.961   2.793  -0.863 +0.00 +0.00    +0.161 C  
DOCKED: BRANCH  39  40
DOCKED: ATOM     40  C28 UNL     1       9.837   3.696  -1.758 +0.00 +0.00    +0.234 C  
DOCKED: ATOM     41  O6  UNL     1       9.335   4.465  -2.581 +0.00 -0.00    -0.274 OA 
DOCKED: ATOM     42  N4  UNL     1      11.193   3.559  -1.589 +0.00 -0.00    -0.310 N  
DOCKED: ATOM     43  H40 UNL     1      11.554   2.941  -0.872 +0.00 +0.00    +0.149 HD 
DOCKED: BRANCH  42  44
DOCKED: ATOM     44  C29 UNL     1      12.152   4.276  -2.400 +0.00 +0.00    +0.139 C  
DOCKED: BRANCH  44  45
DOCKED: ATOM     45  C30 UNL     1      13.448   3.515  -2.473 +0.00 -0.00    -0.027 A  
DOCKED: ATOM     46  C31 UNL     1      14.575   3.935  -1.761 +0.00 +0.00    +0.025 A  
DOCKED: ATOM     47  C32 UNL     1      15.734   3.183  -1.858 +0.00 +0.00    +0.111 A  
DOCKED: ATOM     48  N5  UNL     1      15.844   2.057  -2.600 +0.00 -0.00    -0.263 NA 
DOCKED: ATOM     49  C33 UNL     1      14.747   1.672  -3.285 +0.00 +0.00    +0.111 A  
DOCKED: ATOM     50  C34 UNL     1      13.547   2.361  -3.259 +0.00 +0.00    +0.025 A  
DOCKED: ENDBRANCH  44  45
DOCKED: ENDBRANCH  42  44
DOCKED: ENDBRANCH  39  40
DOCKED: BRANCH  39  51
DOCKED: ATOM     51  C35 UNL     1       8.628   3.429   0.509 +0.00 +0.00    +0.012 C  
DOCKED: ATOM     52  C36 UNL     1       9.465   4.679   0.795 +0.00 +0.00    +0.009 C  
DOCKED: ATOM     53  C37 UNL     1       8.750   2.441   1.676 +0.00 +0.00    +0.009 C  
DOCKED: ENDBRANCH  39  51
DOCKED: ENDBRANCH  37  39
DOCKED: ENDBRANCH  34  35
DOCKED: BRANCH  34  54
DOCKED: ATOM     54  C23 UNL     1      10.151  -1.757  -2.322 +0.00 +0.00    +0.018 C  
DOCKED: BRANCH  54  55
DOCKED: ATOM     55  C24 UNL     1      11.550  -2.174  -2.806 +0.00 +0.00    +0.073 C  
DOCKED: BRANCH  55  56
DOCKED: ATOM     56  C25 UNL     1      12.358  -1.055  -3.441 +0.00 +0.00    +0.341 C  
DOCKED: ATOM     57  F3  UNL     1      11.741   0.137  -3.239 +0.00 -0.00    -0.209 F  
DOCKED: ATOM     58  F4  UNL     1      13.583  -0.973  -2.872 +0.00 -0.00    -0.209 F  
DOCKED: ENDBRANCH  55  56
DOCKED: ENDBRANCH  54  55
DOCKED: ENDBRANCH  34  54
DOCKED: ENDBRANCH  33  34
DOCKED: ENDBRANCH  30  33
DOCKED: ENDBRANCH   1  30
DOCKED: TORSDOF 25
DOCKED: TER
DOCKED: ENDMDL
________________________________________________________________________________


    FINAL DOCKED STATE:
    ________________________


Run:   9 / 20
Time taken for this run:   2.906s

DOCKED: MODEL        9
DOCKED: USER    Run = 9
DOCKED: USER
DOCKED: USER    Estimated Free Energy of Binding    =  +7.46 kcal/mol  [=(1)+(2)+(3)-(4)]
DOCKED: USER
DOCKED: USER    (1) Final Intermolecular Energy     =  +0.00 kcal/mol
DOCKED: USER        vdW + Hbond + desolv Energy     =  +0.00 kcal/mol
DOCKED: USER        Electrostatic Energy            =  +0.00 kcal/mol
DOCKED: USER        Moving Ligand-Fixed Receptor    =  +0.00 kcal/mol
DOCKED: USER        Moving Ligand-Moving Receptor   =  +0.00 kcal/mol
DOCKED: USER    (2) Final Total Internal Energy     = -14.89 kcal/mol
DOCKED: USER    (3) Torsional Free Energy           =  +7.46 kcal/mol
DOCKED: USER    (4) Unbound System's Energy         = -14.89 kcal/mol
DOCKED: USER
DOCKED: USER
DOCKED: REMARK  Name = ligands/ligand_14.pdb
DOCKED: REMARK  29 active torsions:
DOCKED: REMARK  status: ('A' for Active; 'I' for Inactive)
DOCKED: REMARK    1  A    between atoms: C1_1  and  C2_2
DOCKED: REMARK    2  A    between atoms: C2_2  and  C3_3
DOCKED: REMARK    3  A    between atoms: C3_3  and  C4_4
DOCKED: REMARK    4  A    between atoms: C3_3  and  C5_5
DOCKED: REMARK    5  A    between atoms: C5_5  and  O1_6
DOCKED: REMARK    6  A    between atoms: C5_5  and  C6_7
DOCKED: REMARK    7  A    between atoms: N1_9  and  C7_10
DOCKED: REMARK    8  A    between atoms: C7_10  and  C8_11
DOCKED: REMARK    9  A    between atoms: C7_10  and  C11_16
DOCKED: REMARK   10  A    between atoms: C8_11  and  C9_12
DOCKED: REMARK   11  A    between atoms: C9_12  and  C10_13
DOCKED: REMARK   12  A    between atoms: N2_18  and  C12_19
DOCKED: REMARK   13  A    between atoms: C12_19  and  C13_20
DOCKED: REMARK   14  A    between atoms: C12_19  and  C20_27
DOCKED: REMARK   15  A    between atoms: C13_20  and  C14_21
DOCKED: REMARK   16  A    between atoms: C20_27  and  O4_28
DOCKED: REMARK   17  A    between atoms: C20_27  and  C21_29
DOCKED: REMARK   18  A    between atoms: C21_29  and  C22_30
DOCKED: REMARK   19  A    between atoms: C22_30  and  C23_31
DOCKED: REMARK   20  A    between atoms: C22_30  and  C26_36
DOCKED: REMARK   21  A    between atoms: C23_31  and  C24_32
DOCKED: REMARK   22  A    between atoms: C24_32  and  C25_33
DOCKED: REMARK   23  A    between atoms: N3_38  and  C27_39
DOCKED: REMARK   24  A    between atoms: C27_39  and  C28_40
DOCKED: REMARK   25  A    between atoms: C27_39  and  C35_50
DOCKED: REMARK   26  A    between atoms: N4_42  and  C29_43
DOCKED: REMARK   27  A    between atoms: C29_43  and  C30_44
DOCKED: REMARK   28  A    between atoms: C35_50  and  C36_51
DOCKED: REMARK   29  A    between atoms: C35_50  and  C37_52
DOCKED: REMARK                            x       y       z     vdW  Elec       q    Type
DOCKED: REMARK                         _______ _______ _______ _____ _____    ______ ____
DOCKED: USER                              x       y       z     vdW  Elec       q    Type
DOCKED: USER                           _______ _______ _______ _____ _____    ______ ____
DOCKED: ROOT
DOCKED: ATOM      1  C12 UNL     1      13.112  -4.314   0.661 +0.00 +0.00    +0.106 C  
DOCKED: ENDROOT
DOCKED: BRANCH   1   4
DOCKED: ATOM      2  C11 UNL     1      12.067  -4.847  -1.550 +0.00 +0.00    +0.234 C  
DOCKED: ATOM      3  O3  UNL     1      12.831  -4.119  -2.177 +0.00 -0.00    -0.274 OA 
DOCKED: ATOM      4  N2  UNL     1      12.129  -4.995  -0.184 +0.00 -0.00    -0.308 N  
DOCKED: ATOM      5  H19 UNL     1      11.356  -5.470   0.290 +0.00 +0.00    +0.149 HD 
DOCKED: BRANCH   2   6
DOCKED: ATOM      6  C7  UNL     1      10.918  -5.646  -2.205 +0.00 +0.00    +0.159 C  
DOCKED: BRANCH   6   9
DOCKED: ATOM      7  C6  UNL     1      10.640  -7.185  -0.278 +0.00 +0.00    +0.243 C  
DOCKED: ATOM      8  O2  UNL     1      11.775  -7.640  -0.382 +0.00 -0.00    -0.273 OA 
DOCKED: ATOM      9  N1  UNL     1      10.117  -6.246  -1.139 +0.00 -0.00    -0.302 N  
DOCKED: ATOM     10  H12 UNL     1       9.316  -5.729  -0.784 +0.00 +0.00    +0.150 HD 
DOCKED: BRANCH   7  11
DOCKED: ATOM     11  C5  UNL     1       9.666  -7.617   0.830 +0.00 +0.00    +0.203 C  
DOCKED: BRANCH  11  12
DOCKED: ATOM     12  C3  UNL     1       8.730  -6.465   1.250 +0.00 +0.00    +0.023 C  
DOCKED: ATOM     13  C4  UNL     1       7.351  -6.605   0.595 +0.00 +0.00    +0.010 C  
DOCKED: BRANCH  12  15
DOCKED: ATOM     14  C1  UNL     1       9.760  -5.591   3.459 +0.00 +0.00    +0.004 C  
DOCKED: ATOM     15  C2  UNL     1       8.606  -6.319   2.784 +0.00 +0.00    +0.003 C  
DOCKED: ENDBRANCH  12  15
DOCKED: ENDBRANCH  11  12
DOCKED: BRANCH  11  16
DOCKED: ATOM     16  O1  UNL     1      10.439  -8.040   1.961 +0.00 -0.00    -0.382 OA 
DOCKED: ATOM     17  H11 UNL     1      11.359  -7.760   1.791 +0.00 +0.00    +0.210 HD 
DOCKED: ENDBRANCH  11  16
DOCKED: ENDBRANCH   7  11
DOCKED: ENDBRANCH   6   9
DOCKED: BRANCH   6  18
DOCKED: ATOM     18  C8  UNL     1      10.016  -4.758  -3.074 +0.00 +0.00    +0.037 C  
DOCKED: BRANCH  18  19
DOCKED: ATOM     19  C9  UNL     1       8.766  -5.434  -3.656 +0.00 +0.00    +0.074 C  
DOCKED: BRANCH  19  20
DOCKED: ATOM     20  C10 UNL     1       7.512  -5.260  -2.822 +0.00 +0.00    +0.341 C  
DOCKED: ATOM     21  F1  UNL     1       7.821  -4.648  -1.653 +0.00 -0.00    -0.209 F  
DOCKED: ATOM     22  F2  UNL     1       6.983  -6.470  -2.514 +0.00 -0.00    -0.209 F  
DOCKED: ENDBRANCH  19  20
DOCKED: ENDBRANCH  18  19
DOCKED: ENDBRANCH   6  18
DOCKED: ENDBRANCH   2   6
DOCKED: ENDBRANCH   1   4
DOCKED: BRANCH   1  23
DOCKED: ATOM     23  C13 UNL     1      12.497  -3.003   1.203 +0.00 +0.00    +0.060 C  
DOCKED: BRANCH  23  24
DOCKED: ATOM     24  C14 UNL     1      11.129  -2.701   0.645 +0.00 -0.00    -0.046 A  
DOCKED: ATOM     25  C15 UNL     1      10.986  -1.912  -0.504 +0.00 +0.00    +0.004 A  
DOCKED: ATOM     26  C16 UNL     1       9.719  -1.653  -1.029 +0.00 +0.00    +0.000 A  
DOCKED: ATOM     27  C17 UNL     1       8.586  -2.173  -0.410 +0.00 +0.00    +0.000 A  
DOCKED: ATOM     28  C18 UNL     1       8.718  -2.957   0.737 +0.00 +0.00    +0.000 A  
DOCKED: ATOM     29  C19 UNL     1       9.982  -3.219   1.264 +0.00 +0.00    +0.004 A  
DOCKED: ENDBRANCH  23  24
DOCKED: ENDBRANCH   1  23
DOCKED: BRANCH   1  30
DOCKED: ATOM     30  C20 UNL     1      13.575  -5.272   1.796 +0.00 +0.00    +0.136 C  
DOCKED: BRANCH  30  31
DOCKED: ATOM     31  O4  UNL     1      12.516  -6.198   2.052 +0.00 -0.00    -0.390 OA 
DOCKED: ATOM     32  H29 UNL     1      12.304  -6.675   1.232 +0.00 +0.00    +0.210 HD 
DOCKED: ENDBRANCH  30  31
DOCKED: BRANCH  30  33
DOCKED: ATOM     33  C21 UNL     1      14.882  -5.997   1.402 +0.00 +0.00    +0.046 C  
DOCKED: BRANCH  33  34
DOCKED: ATOM     34  C22 UNL     1      14.745  -7.251   0.511 +0.00 +0.00    +0.078 C  
DOCKED: BRANCH  34  35
DOCKED: ATOM     35  C26 UNL     1      14.617  -8.498   1.392 +0.00 +0.00    +0.217 C  
DOCKED: ATOM     36  O5  UNL     1      15.608  -9.119   1.769 +0.00 -0.00    -0.275 OA 
DOCKED: ATOM     37  N3  UNL     1      13.343  -8.952   1.626 +0.00 -0.00    -0.304 N  
DOCKED: ATOM     38  H38 UNL     1      12.543  -8.330   1.540 +0.00 +0.00    +0.149 HD 
DOCKED: BRANCH  37  39
DOCKED: ATOM     39  C27 UNL     1      13.078 -10.186   2.378 +0.00 +0.00    +0.161 C  
DOCKED: BRANCH  39  40
DOCKED: ATOM     40  C28 UNL     1      12.315 -11.106   1.400 +0.00 +0.00    +0.234 C  
DOCKED: ATOM     41  O6  UNL     1      12.496 -12.326   1.393 +0.00 -0.00    -0.274 OA 
DOCKED: ATOM     42  N4  UNL     1      11.458 -10.470   0.537 +0.00 -0.00    -0.310 N  
DOCKED: ATOM     43  H40 UNL     1      11.317  -9.469   0.608 +0.00 +0.00    +0.149 HD 
DOCKED: BRANCH  42  44
DOCKED: ATOM     44  C29 UNL     1      10.726 -11.177  -0.490 +0.00 +0.00    +0.139 C  
DOCKED: BRANCH  44  45
DOCKED: ATOM     45  C30 UNL     1      10.353 -10.240  -1.606 +0.00 -0.00    -0.027 A  
DOCKED: ATOM     46  C31 UNL     1      11.296  -9.827  -2.552 +0.00 +0.00    +0.025 A  
DOCKED: ATOM     47  C32 UNL     1      10.886  -8.974  -3.564 +0.00 +0.00    +0.111 A  
DOCKED: ATOM     48  N5  UNL     1       9.621  -8.516  -3.699 +0.00 -0.00    -0.263 NA 
DOCKED: ATOM     49  C33 UNL     1       8.726  -8.920  -2.772 +0.00 +0.00    +0.111 A  
DOCKED: ATOM     50  C34 UNL     1       9.041  -9.763  -1.720 +0.00 +0.00    +0.025 A  
DOCKED: ENDBRANCH  44  45
DOCKED: ENDBRANCH  42  44
DOCKED: ENDBRANCH  39  40
DOCKED: BRANCH  39  51
DOCKED: ATOM     51  C35 UNL     1      12.314  -9.929   3.700 +0.00 +0.00    +0.012 C  
DOCKED: ATOM     52  C36 UNL     1      10.857 -10.396   3.635 +0.00 +0.00    +0.009 C  
DOCKED: ATOM     53  C37 UNL     1      12.374  -8.467   4.155 +0.00 +0.00    +0.009 C  
DOCKED: ENDBRANCH  39  51
DOCKED: ENDBRANCH  37  39
DOCKED: ENDBRANCH  34  35
DOCKED: BRANCH  34  54
DOCKED: ATOM     54  C23 UNL     1      15.789  -7.367  -0.614 +0.00 +0.00    +0.018 C  
DOCKED: BRANCH  54  55
DOCKED: ATOM     55  C24 UNL     1      15.314  -6.987  -2.026 +0.00 +0.00    +0.073 C  
DOCKED: BRANCH  55  56
DOCKED: ATOM     56  C25 UNL     1      14.314  -7.954  -2.637 +0.00 +0.00    +0.341 C  
DOCKED: ATOM     57  F3  UNL     1      13.951  -8.887  -1.723 +0.00 -0.00    -0.209 F  
DOCKED: ATOM     58  F4  UNL     1      13.189  -7.299  -3.010 +0.00 -0.00    -0.209 F  
DOCKED: ENDBRANCH  55  56
DOCKED: ENDBRANCH  54  55
DOCKED: ENDBRANCH  34  54
DOCKED: ENDBRANCH  33  34
DOCKED: ENDBRANCH  30  33
DOCKED: ENDBRANCH   1  30
DOCKED: TORSDOF 25
DOCKED: TER
DOCKED: ENDMDL
________________________________________________________________________________


    FINAL DOCKED STATE:
    ________________________


Run:   10 / 20
Time taken for this run:   2.906s

DOCKED: MODEL        10
DOCKED: USER    Run = 10
DOCKED: USER
DOCKED: USER    Estimated Free Energy of Binding    =  +7.46 kcal/mol  [=(1)+(2)+(3)-(4)]
DOCKED: USER
DOCKED: USER    (1) Final Intermolecular Energy     =  +0.00 kcal/mol
DOCKED: USER        vdW + Hbond + desolv Energy     =  +0.00 kcal/mol
DOCKED: USER        Electrostatic Energy            =  +0.00 kcal/mol
DOCKED: USER        Moving Ligand-Fixed Receptor    =  +0.00 kcal/mol
DOCKED: USER        Moving Ligand-Moving Receptor   =  +0.00 kcal/mol
DOCKED: USER    (2) Final Total Internal Energy     = -14.88 kcal/mol
DOCKED: USER    (3) Torsional Free Energy           =  +7.46 kcal/mol
DOCKED: USER    (4) Unbound System's Energy         = -14.88 kcal/mol
DOCKED: USER
DOCKED: USER
DOCKED: REMARK  Name = ligands/ligand_14.pdb
DOCKED: REMARK  29 active torsions:
DOCKED: REMARK  status: ('A' for Active; 'I' for Inactive)
DOCKED: REMARK    1  A    between atoms: C1_1  and  C2_2
DOCKED: REMARK    2  A    between atoms: C2_2  and  C3_3
DOCKED: REMARK    3  A    between atoms: C3_3  and  C4_4
DOCKED: REMARK    4  A    between atoms: C3_3  and  C5_5
DOCKED: REMARK    5  A    between atoms: C5_5  and  O1_6
DOCKED: REMARK    6  A    between atoms: C5_5  and  C6_7
DOCKED: REMARK    7  A    between atoms: N1_9  and  C7_10
DOCKED: REMARK    8  A    between atoms: C7_10  and  C8_11
DOCKED: REMARK    9  A    between atoms: C7_10  and  C11_16
DOCKED: REMARK   10  A    between atoms: C8_11  and  C9_12
DOCKED: REMARK   11  A    between atoms: C9_12  and  C10_13
DOCKED: REMARK   12  A    between atoms: N2_18  and  C12_19
DOCKED: REMARK   13  A    between atoms: C12_19  and  C13_20
DOCKED: REMARK   14  A    between atoms: C12_19  and  C20_27
DOCKED: REMARK   15  A    between atoms: C13_20  and  C14_21
DOCKED: REMARK   16  A    between atoms: C20_27  and  O4_28
DOCKED: REMARK   17  A    between atoms: C20_27  and  C21_29
DOCKED: REMARK   18  A    between atoms: C21_29  and  C22_30
DOCKED: REMARK   19  A    between atoms: C22_30  and  C23_31
DOCKED: REMARK   20  A    between atoms: C22_30  and  C26_36
DOCKED: REMARK   21  A    between atoms: C23_31  and  C24_32
DOCKED: REMARK   22  A    between atoms: C24_32  and  C25_33
DOCKED: REMARK   23  A    between atoms: N3_38  and  C27_39
DOCKED: REMARK   24  A    between atoms: C27_39  and  C28_40
DOCKED: REMARK   25  A    between atoms: C27_39  and  C35_50
DOCKED: REMARK   26  A    between atoms: N4_42  and  C29_43
DOCKED: REMARK   27  A    between atoms: C29_43  and  C30_44
DOCKED: REMARK   28  A    between atoms: C35_50  and  C36_51
DOCKED: REMARK   29  A    between atoms: C35_50  and  C37_52
DOCKED: REMARK                            x       y       z     vdW  Elec       q    Type
DOCKED: REMARK                         _______ _______ _______ _____ _____    ______ ____
DOCKED: USER                              x       y       z     vdW  Elec       q    Type
DOCKED: USER                           _______ _______ _______ _____ _____    ______ ____
DOCKED: ROOT
DOCKED: ATOM      1  C12 UNL     1      10.006  -7.934  -5.816 +0.00 +0.00    +0.106 C  
DOCKED: ENDROOT
DOCKED: BRANCH   1   4
DOCKED: ATOM      2  C11 UNL     1      11.308  -7.108  -7.788 +0.00 +0.00    +0.234 C  
DOCKED: ATOM      3  O3  UNL     1      10.303  -6.802  -8.424 +0.00 -0.00    -0.274 OA 
DOCKED: ATOM      4  N2  UNL     1      11.256  -7.661  -6.531 +0.00 -0.00    -0.308 N  
DOCKED: ATOM      5  H19 UNL     1      12.114  -8.056  -6.136 +0.00 +0.00    +0.149 HD 
DOCKED: BRANCH   2   6
DOCKED: ATOM      6  C7  UNL     1      12.744  -6.956  -8.336 +0.00 +0.00    +0.159 C  
DOCKED: BRANCH   6   9
DOCKED: ATOM      7  C6  UNL     1      13.786  -7.028  -6.084 +0.00 +0.00    +0.243 C  
DOCKED: ATOM      8  O2  UNL     1      13.197  -6.023  -5.698 +0.00 -0.00    -0.273 OA 
DOCKED: ATOM      9  N1  UNL     1      13.666  -7.535  -7.359 +0.00 -0.00    -0.302 N  
DOCKED: ATOM     10  H12 UNL     1      13.940  -8.508  -7.467 +0.00 +0.00    +0.150 HD 
DOCKED: BRANCH   7  11
DOCKED: ATOM     11  C5  UNL     1      14.734  -7.838  -5.184 +0.00 +0.00    +0.203 C  
DOCKED: BRANCH  11  12
DOCKED: ATOM     12  C3  UNL     1      14.683  -9.345  -5.510 +0.00 +0.00    +0.023 C  
DOCKED: ATOM     13  C4  UNL     1      15.876  -9.764  -6.375 +0.00 +0.00    +0.010 C  
DOCKED: BRANCH  12  15
DOCKED: ATOM     14  C1  UNL     1      13.174 -10.334  -3.653 +0.00 +0.00    +0.004 C  
DOCKED: ATOM     15  C2  UNL     1      14.572 -10.230  -4.247 +0.00 +0.00    +0.003 C  
DOCKED: ENDBRANCH  12  15
DOCKED: ENDBRANCH  11  12
DOCKED: BRANCH  11  16
DOCKED: ATOM     16  O1  UNL     1      14.337  -7.630  -3.822 +0.00 -0.00    -0.382 OA 
DOCKED: ATOM     17  H11 UNL     1      13.451  -7.222  -3.847 +0.00 +0.00    +0.210 HD 
DOCKED: ENDBRANCH  11  16
DOCKED: ENDBRANCH   7  11
DOCKED: ENDBRANCH   6   9
DOCKED: BRANCH   6  18
DOCKED: ATOM     18  C8  UNL     1      12.930  -7.665  -9.685 +0.00 +0.00    +0.037 C  
DOCKED: BRANCH  18  19
DOCKED: ATOM     19  C9  UNL     1      14.364  -7.703 -10.234 +0.00 +0.00    +0.074 C  
DOCKED: BRANCH  19  20
DOCKED: ATOM     20  C10 UNL     1      15.145  -8.948  -9.865 +0.00 +0.00    +0.341 C  
DOCKED: ATOM     21  F1  UNL     1      14.405  -9.724  -9.035 +0.00 -0.00    -0.209 F  
DOCKED: ATOM     22  F2  UNL     1      16.276  -8.613  -9.197 +0.00 -0.00    -0.209 F  
DOCKED: ENDBRANCH  19  20
DOCKED: ENDBRANCH  18  19
DOCKED: ENDBRANCH   6  18
DOCKED: ENDBRANCH   2   6
DOCKED: ENDBRANCH   1   4
DOCKED: BRANCH   1  23
DOCKED: ATOM     23  C13 UNL     1       9.611  -9.413  -6.024 +0.00 +0.00    +0.060 C  
DOCKED: BRANCH  23  24
DOCKED: ATOM     24  C14 UNL     1      10.520 -10.154  -6.973 +0.00 -0.00    -0.046 A  
DOCKED: ATOM     25  C15 UNL     1      11.674 -10.794  -6.501 +0.00 +0.00    +0.004 A  
DOCKED: ATOM     26  C16 UNL     1      12.500 -11.497  -7.379 +0.00 +0.00    +0.000 A  
DOCKED: ATOM     27  C17 UNL     1      12.186 -11.563  -8.733 +0.00 +0.00    +0.000 A  
DOCKED: ATOM     28  C18 UNL     1      11.041 -10.926  -9.213 +0.00 +0.00    +0.000 A  
DOCKED: ATOM     29  C19 UNL     1      10.212 -10.224  -8.339 +0.00 +0.00    +0.004 A  
DOCKED: ENDBRANCH  23  24
DOCKED: ENDBRANCH   1  23
DOCKED: BRANCH   1  30
DOCKED: ATOM     30  C20 UNL     1      10.175  -7.564  -4.315 +0.00 +0.00    +0.136 C  
DOCKED: BRANCH  30  31
DOCKED: ATOM     31  O4  UNL     1      11.560  -7.687  -3.982 +0.00 -0.00    -0.390 OA 
DOCKED: ATOM     32  H29 UNL     1      12.077  -7.083  -4.542 +0.00 +0.00    +0.210 HD 
DOCKED: ENDBRANCH  30  31
DOCKED: BRANCH  30  33
DOCKED: ATOM     33  C21 UNL     1       9.649  -6.137  -4.038 +0.00 +0.00    +0.046 C  
DOCKED: BRANCH  33  34
DOCKED: ATOM     34  C22 UNL     1      10.610  -4.967  -4.338 +0.00 +0.00    +0.078 C  
DOCKED: BRANCH  34  35
DOCKED: ATOM     35  C26 UNL     1      11.428  -4.637  -3.085 +0.00 +0.00    +0.217 C  
DOCKED: ATOM     36  O5  UNL     1      11.025  -3.828  -2.253 +0.00 -0.00    -0.275 OA 
DOCKED: ATOM     37  N3  UNL     1      12.681  -5.192  -3.011 +0.00 -0.00    -0.304 N  
DOCKED: ATOM     38  H38 UNL     1      12.914  -6.029  -3.541 +0.00 +0.00    +0.149 HD 
DOCKED: BRANCH  37  39
DOCKED: ATOM     39  C27 UNL     1      13.607  -4.891  -1.911 +0.00 +0.00    +0.161 C  
DOCKED: BRANCH  39  40
DOCKED: ATOM     40  C28 UNL     1      14.847  -4.259  -2.580 +0.00 +0.00    +0.234 C  
DOCKED: ATOM     41  O6  UNL     1      15.479  -3.352  -2.033 +0.00 -0.00    -0.274 OA 
DOCKED: ATOM     42  N4  UNL     1      15.168  -4.757  -3.818 +0.00 -0.00    -0.310 N  
DOCKED: ATOM     43  H40 UNL     1      14.639  -5.529  -4.207 +0.00 +0.00    +0.149 HD 
DOCKED: BRANCH  42  44
DOCKED: ATOM     44  C29 UNL     1      16.254  -4.224  -4.611 +0.00 +0.00    +0.139 C  
DOCKED: BRANCH  44  45
DOCKED: ATOM     45  C30 UNL     1      16.059  -4.567  -6.063 +0.00 -0.00    -0.027 A  
DOCKED: ATOM     46  C31 UNL     1      16.784  -5.597  -6.667 +0.00 +0.00    +0.025 A  
DOCKED: ATOM     47  C32 UNL     1      16.549  -5.873  -8.005 +0.00 +0.00    +0.111 A  
DOCKED: ATOM     48  N5  UNL     1      15.652  -5.207  -8.766 +0.00 -0.00    -0.263 NA 
DOCKED: ATOM     49  C33 UNL     1      14.967  -4.211  -8.166 +0.00 +0.00    +0.111 A  
DOCKED: ATOM     50  C34 UNL     1      15.138  -3.854  -6.839 +0.00 +0.00    +0.025 A  
DOCKED: ENDBRANCH  44  45
DOCKED: ENDBRANCH  42  44
DOCKED: ENDBRANCH  39  40
DOCKED: BRANCH  39  51
DOCKED: ATOM     51  C35 UNL     1      13.940  -6.134  -1.051 +0.00 +0.00    +0.012 C  
DOCKED: ATOM     52  C36 UNL     1      15.371  -6.635  -1.275 +0.00 +0.00    +0.009 C  
DOCKED: ATOM     53  C37 UNL     1      12.947  -7.286  -1.247 +0.00 +0.00    +0.009 C  
DOCKED: ENDBRANCH  39  51
DOCKED: ENDBRANCH  37  39
DOCKED: ENDBRANCH  34  35
DOCKED: BRANCH  34  54
DOCKED: ATOM     54  C23 UNL     1       9.959  -3.747  -5.016 +0.00 +0.00    +0.018 C  
DOCKED: BRANCH  54  55
DOCKED: ATOM     55  C24 UNL     1      10.187  -3.607  -6.530 +0.00 +0.00    +0.073 C  
DOCKED: BRANCH  55  56
DOCKED: ATOM     56  C25 UNL     1      11.610  -3.253  -6.925 +0.00 +0.00    +0.341 C  
DOCKED: ATOM     57  F3  UNL     1      12.421  -3.303  -5.837 +0.00 -0.00    -0.209 F  
DOCKED: ATOM     58  F4  UNL     1      12.089  -4.146  -7.822 +0.00 -0.00    -0.209 F  
DOCKED: ENDBRANCH  55  56
DOCKED: ENDBRANCH  54  55
DOCKED: ENDBRANCH  34  54
DOCKED: ENDBRANCH  33  34
DOCKED: ENDBRANCH  30  33
DOCKED: ENDBRANCH   1  30
DOCKED: TORSDOF 25
DOCKED: TER
DOCKED: ENDMDL
________________________________________________________________________________


    FINAL DOCKED STATE:
    ________________________


Run:   11 / 20
Time taken for this run:   2.906s

DOCKED: MODEL        11
DOCKED: USER    Run = 11
DOCKED: USER
DOCKED: USER    Estimated Free Energy of Binding    =  +7.46 kcal/mol  [=(1)+(2)+(3)-(4)]
DOCKED: USER
DOCKED: USER    (1) Final Intermolecular Energy     =  +0.00 kcal/mol
DOCKED: USER        vdW + Hbond + desolv Energy     =  +0.00 kcal/mol
DOCKED: USER        Electrostatic Energy            =  +0.00 kcal/mol
DOCKED: USER        Moving Ligand-Fixed Receptor    =  +0.00 kcal/mol
DOCKED: USER        Moving Ligand-Moving Receptor   =  +0.00 kcal/mol
DOCKED: USER    (2) Final Total Internal Energy     = -14.89 kcal/mol
DOCKED: USER    (3) Torsional Free Energy           =  +7.46 kcal/mol
DOCKED: USER    (4) Unbound System's Energy         = -14.89 kcal/mol
DOCKED: USER
DOCKED: USER
DOCKED: REMARK  Name = ligands/ligand_14.pdb
DOCKED: REMARK  29 active torsions:
DOCKED: REMARK  status: ('A' for Active; 'I' for Inactive)
DOCKED: REMARK    1  A    between atoms: C1_1  and  C2_2
DOCKED: REMARK    2  A    between atoms: C2_2  and  C3_3
DOCKED: REMARK    3  A    between atoms: C3_3  and  C4_4
DOCKED: REMARK    4  A    between atoms: C3_3  and  C5_5
DOCKED: REMARK    5  A    between atoms: C5_5  and  O1_6
DOCKED: REMARK    6  A    between atoms: C5_5  and  C6_7
DOCKED: REMARK    7  A    between atoms: N1_9  and  C7_10
DOCKED: REMARK    8  A    between atoms: C7_10  and  C8_11
DOCKED: REMARK    9  A    between atoms: C7_10  and  C11_16
DOCKED: REMARK   10  A    between atoms: C8_11  and  C9_12
DOCKED: REMARK   11  A    between atoms: C9_12  and  C10_13
DOCKED: REMARK   12  A    between atoms: N2_18  and  C12_19
DOCKED: REMARK   13  A    between atoms: C12_19  and  C13_20
DOCKED: REMARK   14  A    between atoms: C12_19  and  C20_27
DOCKED: REMARK   15  A    between atoms: C13_20  and  C14_21
DOCKED: REMARK   16  A    between atoms: C20_27  and  O4_28
DOCKED: REMARK   17  A    between atoms: C20_27  and  C21_29
DOCKED: REMARK   18  A    between atoms: C21_29  and  C22_30
DOCKED: REMARK   19  A    between atoms: C22_30  and  C23_31
DOCKED: REMARK   20  A    between atoms: C22_30  and  C26_36
DOCKED: REMARK   21  A    between atoms: C23_31  and  C24_32
DOCKED: REMARK   22  A    between atoms: C24_32  and  C25_33
DOCKED: REMARK   23  A    between atoms: N3_38  and  C27_39
DOCKED: REMARK   24  A    between atoms: C27_39  and  C28_40
DOCKED: REMARK   25  A    between atoms: C27_39  and  C35_50
DOCKED: REMARK   26  A    between atoms: N4_42  and  C29_43
DOCKED: REMARK   27  A    between atoms: C29_43  and  C30_44
DOCKED: REMARK   28  A    between atoms: C35_50  and  C36_51
DOCKED: REMARK   29  A    between atoms: C35_50  and  C37_52
DOCKED: REMARK                            x       y       z     vdW  Elec       q    Type
DOCKED: REMARK                         _______ _______ _______ _____ _____    ______ ____
DOCKED: USER                              x       y       z     vdW  Elec       q    Type
DOCKED: USER                           _______ _______ _______ _____ _____    ______ ____
DOCKED: ROOT
DOCKED: ATOM      1  C12 UNL     1       5.355  -6.185  -1.925 +0.00 +0.00    +0.106 C  
DOCKED: ENDROOT
DOCKED: BRANCH   1   4
DOCKED: ATOM      2  C11 UNL     1       7.108  -7.022  -0.346 +0.00 +0.00    +0.234 C  
DOCKED: ATOM      3  O3  UNL     1       7.776  -7.541  -1.236 +0.00 -0.00    -0.274 OA 
DOCKED: ATOM      4  N2  UNL     1       5.931  -6.355  -0.589 +0.00 -0.00    -0.308 N  
DOCKED: ATOM      5  H19 UNL     1       5.337  -6.107   0.208 +0.00 +0.00    +0.149 HD 
DOCKED: BRANCH   2   6
DOCKED: ATOM      6  C7  UNL     1       7.479  -7.093   1.152 +0.00 +0.00    +0.159 C  
DOCKED: BRANCH   6   9
DOCKED: ATOM      7  C6  UNL     1       6.011  -5.197   1.791 +0.00 +0.00    +0.243 C  
DOCKED: ATOM      8  O2  UNL     1       6.619  -4.393   1.091 +0.00 -0.00    -0.273 OA 
DOCKED: ATOM      9  N1  UNL     1       6.376  -6.519   1.920 +0.00 -0.00    -0.302 N  
DOCKED: ATOM     10  H12 UNL     1       5.646  -7.140   2.260 +0.00 +0.00    +0.150 HD 
DOCKED: BRANCH   7  11
DOCKED: ATOM     11  C5  UNL     1       4.767  -4.816   2.611 +0.00 +0.00    +0.203 C  
DOCKED: BRANCH  11  12
DOCKED: ATOM     12  C3  UNL     1       3.778  -5.994   2.728 +0.00 +0.00    +0.023 C  
DOCKED: ATOM     13  C4  UNL     1       3.912  -6.696   4.084 +0.00 +0.00    +0.010 C  
DOCKED: BRANCH  12  15
DOCKED: ATOM     14  C1  UNL     1       1.943  -5.434   0.990 +0.00 +0.00    +0.004 C  
DOCKED: ATOM     15  C2  UNL     1       2.313  -5.578   2.459 +0.00 +0.00    +0.003 C  
DOCKED: ENDBRANCH  12  15
DOCKED: ENDBRANCH  11  12
DOCKED: BRANCH  11  16
DOCKED: ATOM     16  O1  UNL     1       4.124  -3.716   1.955 +0.00 -0.00    -0.382 OA 
DOCKED: ATOM     17  H11 UNL     1       4.531  -3.639   1.071 +0.00 +0.00    +0.210 HD 
DOCKED: ENDBRANCH  11  16
DOCKED: ENDBRANCH   7  11
DOCKED: ENDBRANCH   6   9
DOCKED: BRANCH   6  18
DOCKED: ATOM     18  C8  UNL     1       7.723  -8.534   1.622 +0.00 +0.00    +0.037 C  
DOCKED: BRANCH  18  19
DOCKED: ATOM     19  C9  UNL     1       7.970  -8.719   3.126 +0.00 +0.00    +0.074 C  
DOCKED: BRANCH  19  20
DOCKED: ATOM     20  C10 UNL     1       6.730  -9.057   3.929 +0.00 +0.00    +0.341 C  
DOCKED: ATOM     21  F1  UNL     1       5.634  -8.980   3.134 +0.00 -0.00    -0.209 F  
DOCKED: ATOM     22  F2  UNL     1       6.560  -8.160   4.931 +0.00 -0.00    -0.209 F  
DOCKED: ENDBRANCH  19  20
DOCKED: ENDBRANCH  18  19
DOCKED: ENDBRANCH   6  18
DOCKED: ENDBRANCH   2   6
DOCKED: ENDBRANCH   1   4
DOCKED: BRANCH   1  23
DOCKED: ATOM     23  C13 UNL     1       4.340  -7.319  -2.192 +0.00 +0.00    +0.060 C  
DOCKED: BRANCH  23  24
DOCKED: ATOM     24  C14 UNL     1       4.278  -8.347  -1.091 +0.00 -0.00    -0.046 A  
DOCKED: ATOM     25  C15 UNL     1       5.078  -9.496  -1.143 +0.00 +0.00    +0.004 A  
DOCKED: ATOM     26  C16 UNL     1       5.034 -10.435  -0.112 +0.00 +0.00    +0.000 A  
DOCKED: ATOM     27  C17 UNL     1       4.189 -10.239   0.977 +0.00 +0.00    +0.000 A  
DOCKED: ATOM     28  C18 UNL     1       3.386  -9.099   1.037 +0.00 +0.00    +0.000 A  
DOCKED: ATOM     29  C19 UNL     1       3.428  -8.158   0.009 +0.00 +0.00    +0.004 A  
DOCKED: ENDBRANCH  23  24
DOCKED: ENDBRANCH   1  23
DOCKED: BRANCH   1  30
DOCKED: ATOM     30  C20 UNL     1       4.720  -4.770  -2.042 +0.00 +0.00    +0.136 C  
DOCKED: BRANCH  30  31
DOCKED: ATOM     31  O4  UNL     1       4.339  -4.348  -0.729 +0.00 -0.00    -0.390 OA 
DOCKED: ATOM     32  H29 UNL     1       5.128  -4.320  -0.162 +0.00 +0.00    +0.210 HD 
DOCKED: ENDBRANCH  30  31
DOCKED: BRANCH  30  33
DOCKED: ATOM     33  C21 UNL     1       5.707  -3.777  -2.695 +0.00 +0.00    +0.046 C  
DOCKED: BRANCH  33  34
DOCKED: ATOM     34  C22 UNL     1       6.769  -3.139  -1.773 +0.00 +0.00    +0.078 C  
DOCKED: BRANCH  34  35
DOCKED: ATOM     35  C26 UNL     1       6.230  -1.827  -1.195 +0.00 +0.00    +0.217 C  
DOCKED: ATOM     36  O5  UNL     1       6.387  -0.758  -1.780 +0.00 -0.00    -0.275 OA 
DOCKED: ATOM     37  N3  UNL     1       5.680  -1.893   0.061 +0.00 -0.00    -0.304 N  
DOCKED: ATOM     38  H38 UNL     1       5.326  -2.773   0.430 +0.00 +0.00    +0.149 HD 
DOCKED: BRANCH  37  39
DOCKED: ATOM     39  C27 UNL     1       5.206  -0.699   0.772 +0.00 +0.00    +0.161 C  
DOCKED: BRANCH  39  40
DOCKED: ATOM     40  C28 UNL     1       6.041  -0.635   2.069 +0.00 +0.00    +0.234 C  
DOCKED: ATOM     41  O6  UNL     1       6.406   0.443   2.545 +0.00 -0.00    -0.274 OA 
DOCKED: ATOM     42  N4  UNL     1       6.363  -1.848   2.625 +0.00 -0.00    -0.310 N  
DOCKED: ATOM     43  H40 UNL     1       6.006  -2.704   2.216 +0.00 +0.00    +0.149 HD 
DOCKED: BRANCH  42  44
DOCKED: ATOM     44  C29 UNL     1       7.202  -1.966   3.797 +0.00 +0.00    +0.139 C  
DOCKED: BRANCH  44  45
DOCKED: ATOM     45  C30 UNL     1       7.845  -3.325   3.845 +0.00 -0.00    -0.027 A  
DOCKED: ATOM     46  C31 UNL     1       8.936  -3.639   3.031 +0.00 +0.00    +0.025 A  
DOCKED: ATOM     47  C32 UNL     1       9.493  -4.904   3.132 +0.00 +0.00    +0.111 A  
DOCKED: ATOM     48  N5  UNL     1       9.049  -5.859   3.980 +0.00 -0.00    -0.263 NA 
DOCKED: ATOM     49  C33 UNL     1       7.990  -5.539   4.754 +0.00 +0.00    +0.111 A  
DOCKED: ATOM     50  C34 UNL     1       7.360  -4.307   4.718 +0.00 +0.00    +0.025 A  
DOCKED: ENDBRANCH  44  45
DOCKED: ENDBRANCH  42  44
DOCKED: ENDBRANCH  39  40
DOCKED: BRANCH  39  51
DOCKED: ATOM     51  C35 UNL     1       3.679  -0.720   1.026 +0.00 +0.00    +0.012 C  
DOCKED: ATOM     52  C36 UNL     1       3.333  -0.959   2.500 +0.00 +0.00    +0.009 C  
DOCKED: ATOM     53  C37 UNL     1       2.936  -1.732   0.146 +0.00 +0.00    +0.009 C  
DOCKED: ENDBRANCH  39  51
DOCKED: ENDBRANCH  37  39
DOCKED: ENDBRANCH  34  35
DOCKED: BRANCH  34  54
DOCKED: ATOM     54  C23 UNL     1       8.180  -3.038  -2.380 +0.00 +0.00    +0.018 C  
DOCKED: BRANCH  54  55
DOCKED: ATOM     55  C24 UNL     1       9.209  -4.070  -1.889 +0.00 +0.00    +0.073 C  
DOCKED: BRANCH  55  56
DOCKED: ATOM     56  C25 UNL     1       9.610  -3.917  -0.432 +0.00 +0.00    +0.341 C  
DOCKED: ATOM     57  F3  UNL     1       8.892  -2.922   0.146 +0.00 -0.00    -0.209 F  
DOCKED: ATOM     58  F4  UNL     1       9.345  -5.053   0.254 +0.00 -0.00    -0.209 F  
DOCKED: ENDBRANCH  55  56
DOCKED: ENDBRANCH  54  55
DOCKED: ENDBRANCH  34  54
DOCKED: ENDBRANCH  33  34
DOCKED: ENDBRANCH  30  33
DOCKED: ENDBRANCH   1  30
DOCKED: TORSDOF 25
DOCKED: TER
DOCKED: ENDMDL
________________________________________________________________________________


    FINAL DOCKED STATE:
    ________________________


Run:   12 / 20
Time taken for this run:   2.906s

DOCKED: MODEL        12
DOCKED: USER    Run = 12
DOCKED: USER
DOCKED: USER    Estimated Free Energy of Binding    =  +7.46 kcal/mol  [=(1)+(2)+(3)-(4)]
DOCKED: USER
DOCKED: USER    (1) Final Intermolecular Energy     =  +0.00 kcal/mol
DOCKED: USER        vdW + Hbond + desolv Energy     =  +0.00 kcal/mol
DOCKED: USER        Electrostatic Energy            =  +0.00 kcal/mol
DOCKED: USER        Moving Ligand-Fixed Receptor    =  +0.00 kcal/mol
DOCKED: USER        Moving Ligand-Moving Receptor   =  +0.00 kcal/mol
DOCKED: USER    (2) Final Total Internal Energy     = -14.50 kcal/mol
DOCKED: USER    (3) Torsional Free Energy           =  +7.46 kcal/mol
DOCKED: USER    (4) Unbound System's Energy         = -14.50 kcal/mol
DOCKED: USER
DOCKED: USER
DOCKED: REMARK  Name = ligands/ligand_14.pdb
DOCKED: REMARK  29 active torsions:
DOCKED: REMARK  status: ('A' for Active; 'I' for Inactive)
DOCKED: REMARK    1  A    between atoms: C1_1  and  C2_2
DOCKED: REMARK    2  A    between atoms: C2_2  and  C3_3
DOCKED: REMARK    3  A    between atoms: C3_3  and  C4_4
DOCKED: REMARK    4  A    between atoms: C3_3  and  C5_5
DOCKED: REMARK    5  A    between atoms: C5_5  and  O1_6
DOCKED: REMARK    6  A    between atoms: C5_5  and  C6_7
DOCKED: REMARK    7  A    between atoms: N1_9  and  C7_10
DOCKED: REMARK    8  A    between atoms: C7_10  and  C8_11
DOCKED: REMARK    9  A    between atoms: C7_10  and  C11_16
DOCKED: REMARK   10  A    between atoms: C8_11  and  C9_12
DOCKED: REMARK   11  A    between atoms: C9_12  and  C10_13
DOCKED: REMARK   12  A    between atoms: N2_18  and  C12_19
DOCKED: REMARK   13  A    between atoms: C12_19  and  C13_20
DOCKED: REMARK   14  A    between atoms: C12_19  and  C20_27
DOCKED: REMARK   15  A    between atoms: C13_20  and  C14_21
DOCKED: REMARK   16  A    between atoms: C20_27  and  O4_28
DOCKED: REMARK   17  A    between atoms: C20_27  and  C21_29
DOCKED: REMARK   18  A    between atoms: C21_29  and  C22_30
DOCKED: REMARK   19  A    between atoms: C22_30  and  C23_31
DOCKED: REMARK   20  A    between atoms: C22_30  and  C26_36
DOCKED: REMARK   21  A    between atoms: C23_31  and  C24_32
DOCKED: REMARK   22  A    between atoms: C24_32  and  C25_33
DOCKED: REMARK   23  A    between atoms: N3_38  and  C27_39
DOCKED: REMARK   24  A    between atoms: C27_39  and  C28_40
DOCKED: REMARK   25  A    between atoms: C27_39  and  C35_50
DOCKED: REMARK   26  A    between atoms: N4_42  and  C29_43
DOCKED: REMARK   27  A    between atoms: C29_43  and  C30_44
DOCKED: REMARK   28  A    between atoms: C35_50  and  C36_51
DOCKED: REMARK   29  A    between atoms: C35_50  and  C37_52
DOCKED: REMARK                            x       y       z     vdW  Elec       q    Type
DOCKED: REMARK                         _______ _______ _______ _____ _____    ______ ____
DOCKED: USER                              x       y       z     vdW  Elec       q    Type
DOCKED: USER                           _______ _______ _______ _____ _____    ______ ____
DOCKED: ROOT
DOCKED: ATOM      1  C12 UNL     1       9.654  -1.693   3.959 +0.00 +0.00    +0.106 C  
DOCKED: ENDROOT
DOCKED: BRANCH   1   4
DOCKED: ATOM      2  C11 UNL     1       9.401  -2.487   6.320 +0.00 +0.00    +0.234 C  
DOCKED: ATOM      3  O3  UNL     1       8.857  -1.451   6.694 +0.00 -0.00    -0.274 OA 
DOCKED: ATOM      4  N2  UNL     1       9.819  -2.684   5.025 +0.00 -0.00    -0.308 N  
DOCKED: ATOM      5  H19 UNL     1      10.422  -3.488   4.824 +0.00 +0.00    +0.149 HD 
DOCKED: BRANCH   2   6
DOCKED: ATOM      6  C7  UNL     1       9.724  -3.669   7.260 +0.00 +0.00    +0.159 C  
DOCKED: BRANCH   6   9
DOCKED: ATOM      7  C6  UNL     1       9.698  -5.328   5.414 +0.00 +0.00    +0.243 C  
DOCKED: ATOM      8  O2  UNL     1       8.531  -5.090   5.116 +0.00 -0.00    -0.273 OA 
DOCKED: ATOM      9  N1  UNL     1      10.353  -4.723   6.464 +0.00 -0.00    -0.302 N  
DOCKED: ATOM     10  H12 UNL     1      11.368  -4.760   6.422 +0.00 +0.00    +0.150 HD 
DOCKED: BRANCH   7  11
DOCKED: ATOM     11  C5  UNL     1      10.566  -6.338   4.645 +0.00 +0.00    +0.203 C  
DOCKED: BRANCH  11  12
DOCKED: ATOM     12  C3  UNL     1      12.068  -6.013   4.770 +0.00 +0.00    +0.023 C  
DOCKED: ATOM     13  C4  UNL     1      12.761  -6.965   5.750 +0.00 +0.00    +0.010 C  
DOCKED: BRANCH  12  15
DOCKED: ATOM     14  C1  UNL     1      14.292  -6.263   3.468 +0.00 +0.00    +0.004 C  
DOCKED: ATOM     15  C2  UNL     1      12.795  -5.993   3.406 +0.00 +0.00    +0.003 C  
DOCKED: ENDBRANCH  12  15
DOCKED: ENDBRANCH  11  12
DOCKED: BRANCH  11  16
DOCKED: ATOM     16  O1  UNL     1      10.181  -6.294   3.265 +0.00 -0.00    -0.382 OA 
DOCKED: ATOM     17  H11 UNL     1       9.350  -5.783   3.222 +0.00 +0.00    +0.210 HD 
DOCKED: ENDBRANCH  11  16
DOCKED: ENDBRANCH   7  11
DOCKED: ENDBRANCH   6   9
DOCKED: BRANCH   6  18
DOCKED: ATOM     18  C8  UNL     1      10.672  -3.265   8.397 +0.00 +0.00    +0.037 C  
DOCKED: BRANCH  18  19
DOCKED: ATOM     19  C9  UNL     1      12.153  -3.120   8.020 +0.00 +0.00    +0.074 C  
DOCKED: BRANCH  19  20
DOCKED: ATOM     20  C10 UNL     1      13.004  -4.334   8.337 +0.00 +0.00    +0.341 C  
DOCKED: ATOM     21  F1  UNL     1      13.805  -4.620   7.281 +0.00 -0.00    -0.209 F  
DOCKED: ATOM     22  F2  UNL     1      12.216  -5.417   8.547 +0.00 -0.00    -0.209 F  
DOCKED: ENDBRANCH  19  20
DOCKED: ENDBRANCH  18  19
DOCKED: ENDBRANCH   6  18
DOCKED: ENDBRANCH   2   6
DOCKED: ENDBRANCH   1   4
DOCKED: BRANCH   1  23
DOCKED: ATOM     23  C13 UNL     1      10.834  -0.696   4.002 +0.00 +0.00    +0.060 C  
DOCKED: BRANCH  23  24
DOCKED: ATOM     24  C14 UNL     1      12.115  -1.297   4.524 +0.00 -0.00    -0.046 A  
DOCKED: ATOM     25  C15 UNL     1      12.623  -2.481   3.973 +0.00 +0.00    +0.004 A  
DOCKED: ATOM     26  C16 UNL     1      13.820  -3.022   4.444 +0.00 +0.00    +0.000 A  
DOCKED: ATOM     27  C17 UNL     1      14.516  -2.391   5.471 +0.00 +0.00    +0.000 A  
DOCKED: ATOM     28  C18 UNL     1      14.017  -1.213   6.028 +0.00 +0.00    +0.000 A  
DOCKED: ATOM     29  C19 UNL     1      12.822  -0.668   5.559 +0.00 +0.00    +0.004 A  
DOCKED: ENDBRANCH  23  24
DOCKED: ENDBRANCH   1  23
DOCKED: BRANCH   1  30
DOCKED: ATOM     30  C20 UNL     1       9.531  -2.419   2.589 +0.00 +0.00    +0.136 C  
DOCKED: BRANCH  30  31
DOCKED: ATOM     31  O4  UNL     1       9.972  -3.768   2.762 +0.00 -0.00    -0.390 OA 
DOCKED: ATOM     32  H29 UNL     1       9.295  -4.264   3.254 +0.00 +0.00    +0.210 HD 
DOCKED: ENDBRANCH  30  31
DOCKED: BRANCH  30  33
DOCKED: ATOM     33  C21 UNL     1       8.079  -2.358   2.064 +0.00 +0.00    +0.046 C  
DOCKED: BRANCH  33  34
DOCKED: ATOM     34  C22 UNL     1       7.088  -3.400   2.627 +0.00 +0.00    +0.078 C  
DOCKED: BRANCH  34  35
DOCKED: ATOM     35  C26 UNL     1       7.365  -4.769   1.997 +0.00 +0.00    +0.217 C  
DOCKED: ATOM     36  O5  UNL     1       7.775  -5.711   2.670 +0.00 -0.00    -0.275 OA 
DOCKED: ATOM     37  N3  UNL     1       7.253  -4.846   0.631 +0.00 -0.00    -0.304 N  
DOCKED: ATOM     38  H38 UNL     1       6.690  -4.175   0.114 +0.00 +0.00    +0.149 HD 
DOCKED: BRANCH  37  39
DOCKED: ATOM     39  C27 UNL     1       7.576  -6.071  -0.112 +0.00 +0.00    +0.161 C  
DOCKED: BRANCH  39  40
DOCKED: ATOM     40  C28 UNL     1       9.066  -5.939  -0.493 +0.00 +0.00    +0.234 C  
DOCKED: ATOM     41  O6  UNL     1       9.454  -6.133  -1.648 +0.00 -0.00    -0.274 OA 
DOCKED: ATOM     42  N4  UNL     1       9.914  -5.624   0.540 +0.00 -0.00    -0.310 N  
DOCKED: ATOM     43  H40 UNL     1       9.541  -5.437   1.464 +0.00 +0.00    +0.149 HD 
DOCKED: BRANCH  42  44
DOCKED: ATOM     44  C29 UNL     1      11.348  -5.537   0.367 +0.00 +0.00    +0.139 C  
DOCKED: BRANCH  44  45
DOCKED: ATOM     45  C30 UNL     1      11.782  -4.097   0.317 +0.00 -0.00    -0.027 A  
DOCKED: ATOM     46  C31 UNL     1      10.960  -3.111  -0.234 +0.00 +0.00    +0.025 A  
DOCKED: ATOM     47  C32 UNL     1      11.412  -1.801  -0.237 +0.00 +0.00    +0.111 A  
DOCKED: ATOM     48  N5  UNL     1      12.604  -1.413   0.268 +0.00 -0.00    -0.263 NA 
DOCKED: ATOM     49  C33 UNL     1      13.387  -2.381   0.790 +0.00 +0.00    +0.111 A  
DOCKED: ATOM     50  C34 UNL     1      13.028  -3.717   0.830 +0.00 +0.00    +0.025 A  
DOCKED: ENDBRANCH  44  45
DOCKED: ENDBRANCH  42  44
DOCKED: ENDBRANCH  39  40
DOCKED: BRANCH  39  51
DOCKED: ATOM     51  C35 UNL     1       6.649  -6.293  -1.332 +0.00 +0.00    +0.012 C  
DOCKED: ATOM     52  C36 UNL     1       6.598  -5.074  -2.259 +0.00 +0.00    +0.009 C  
DOCKED: ATOM     53  C37 UNL     1       5.226  -6.709  -0.940 +0.00 +0.00    +0.009 C  
DOCKED: ENDBRANCH  39  51
DOCKED: ENDBRANCH  37  39
DOCKED: ENDBRANCH  34  35
DOCKED: BRANCH  34  54
DOCKED: ATOM     54  C23 UNL     1       5.609  -2.972   2.601 +0.00 +0.00    +0.018 C  
DOCKED: BRANCH  54  55
DOCKED: ATOM     55  C24 UNL     1       5.237  -1.866   1.600 +0.00 +0.00    +0.073 C  
DOCKED: BRANCH  55  56
DOCKED: ATOM     56  C25 UNL     1       5.034  -2.348   0.174 +0.00 +0.00    +0.341 C  
DOCKED: ATOM     57  F3  UNL     1       6.210  -2.309  -0.502 +0.00 -0.00    -0.209 F  
DOCKED: ATOM     58  F4  UNL     1       4.609  -3.633   0.164 +0.00 -0.00    -0.209 F  
DOCKED: ENDBRANCH  55  56
DOCKED: ENDBRANCH  54  55
DOCKED: ENDBRANCH  34  54
DOCKED: ENDBRANCH  33  34
DOCKED: ENDBRANCH  30  33
DOCKED: ENDBRANCH   1  30
DOCKED: TORSDOF 25
DOCKED: TER
DOCKED: ENDMDL
________________________________________________________________________________


    FINAL DOCKED STATE:
    ________________________


Run:   13 / 20
Time taken for this run:   2.906s

DOCKED: MODEL        13
DOCKED: USER    Run = 13
DOCKED: USER
DOCKED: USER    Estimated Free Energy of Binding    =  +7.46 kcal/mol  [=(1)+(2)+(3)-(4)]
DOCKED: USER
DOCKED: USER    (1) Final Intermolecular Energy     =  +0.00 kcal/mol
DOCKED: USER        vdW + Hbond + desolv Energy     =  +0.00 kcal/mol
DOCKED: USER        Electrostatic Energy            =  +0.00 kcal/mol
DOCKED: USER        Moving Ligand-Fixed Receptor    =  +0.00 kcal/mol
DOCKED: USER        Moving Ligand-Moving Receptor   =  +0.00 kcal/mol
DOCKED: USER    (2) Final Total Internal Energy     = -14.87 kcal/mol
DOCKED: USER    (3) Torsional Free Energy           =  +7.46 kcal/mol
DOCKED: USER    (4) Unbound System's Energy         = -14.87 kcal/mol
DOCKED: USER
DOCKED: USER
DOCKED: REMARK  Name = ligands/ligand_14.pdb
DOCKED: REMARK  29 active torsions:
DOCKED: REMARK  status: ('A' for Active; 'I' for Inactive)
DOCKED: REMARK    1  A    between atoms: C1_1  and  C2_2
DOCKED: REMARK    2  A    between atoms: C2_2  and  C3_3
DOCKED: REMARK    3  A    between atoms: C3_3  and  C4_4
DOCKED: REMARK    4  A    between atoms: C3_3  and  C5_5
DOCKED: REMARK    5  A    between atoms: C5_5  and  O1_6
DOCKED: REMARK    6  A    between atoms: C5_5  and  C6_7
DOCKED: REMARK    7  A    between atoms: N1_9  and  C7_10
DOCKED: REMARK    8  A    between atoms: C7_10  and  C8_11
DOCKED: REMARK    9  A    between atoms: C7_10  and  C11_16
DOCKED: REMARK   10  A    between atoms: C8_11  and  C9_12
DOCKED: REMARK   11  A    between atoms: C9_12  and  C10_13
DOCKED: REMARK   12  A    between atoms: N2_18  and  C12_19
DOCKED: REMARK   13  A    between atoms: C12_19  and  C13_20
DOCKED: REMARK   14  A    between atoms: C12_19  and  C20_27
DOCKED: REMARK   15  A    between atoms: C13_20  and  C14_21
DOCKED: REMARK   16  A    between atoms: C20_27  and  O4_28
DOCKED: REMARK   17  A    between atoms: C20_27  and  C21_29
DOCKED: REMARK   18  A    between atoms: C21_29  and  C22_30
DOCKED: REMARK   19  A    between atoms: C22_30  and  C23_31
DOCKED: REMARK   20  A    between atoms: C22_30  and  C26_36
DOCKED: REMARK   21  A    between atoms: C23_31  and  C24_32
DOCKED: REMARK   22  A    between atoms: C24_32  and  C25_33
DOCKED: REMARK   23  A    between atoms: N3_38  and  C27_39
DOCKED: REMARK   24  A    between atoms: C27_39  and  C28_40
DOCKED: REMARK   25  A    between atoms: C27_39  and  C35_50
DOCKED: REMARK   26  A    between atoms: N4_42  and  C29_43
DOCKED: REMARK   27  A    between atoms: C29_43  and  C30_44
DOCKED: REMARK   28  A    between atoms: C35_50  and  C36_51
DOCKED: REMARK   29  A    between atoms: C35_50  and  C37_52
DOCKED: REMARK                            x       y       z     vdW  Elec       q    Type
DOCKED: REMARK                         _______ _______ _______ _____ _____    ______ ____
DOCKED: USER                              x       y       z     vdW  Elec       q    Type
DOCKED: USER                           _______ _______ _______ _____ _____    ______ ____
DOCKED: ROOT
DOCKED: ATOM      1  C12 UNL     1       8.766  -2.268  -4.262 +0.00 +0.00    +0.106 C  
DOCKED: ENDROOT
DOCKED: BRANCH   1   4
DOCKED: ATOM      2  C11 UNL     1       6.450  -1.765  -3.457 +0.00 +0.00    +0.234 C  
DOCKED: ATOM      3  O3  UNL     1       6.035  -1.484  -4.578 +0.00 -0.00    -0.274 OA 
DOCKED: ATOM      4  N2  UNL     1       7.748  -2.147  -3.216 +0.00 -0.00    -0.308 N  
DOCKED: ATOM      5  H19 UNL     1       8.071  -2.190  -2.245 +0.00 +0.00    +0.149 HD 
DOCKED: BRANCH   2   6
DOCKED: ATOM      6  C7  UNL     1       5.584  -1.679  -2.181 +0.00 +0.00    +0.159 C  
DOCKED: BRANCH   6   9
DOCKED: ATOM      7  C6  UNL     1       7.108  -3.090  -0.822 +0.00 +0.00    +0.243 C  
DOCKED: ATOM      8  O2  UNL     1       6.953  -4.076  -1.538 +0.00 -0.00    -0.273 OA 
DOCKED: ATOM      9  N1  UNL     1       6.455  -1.895  -1.026 +0.00 -0.00    -0.302 N  
DOCKED: ATOM     10  H12 UNL     1       6.881  -1.086  -0.581 +0.00 +0.00    +0.150 HD 
DOCKED: BRANCH   7  11
DOCKED: ATOM     11  C5  UNL     1       8.050  -3.081   0.392 +0.00 +0.00    +0.203 C  
DOCKED: BRANCH  11  12
DOCKED: ATOM     12  C3  UNL     1       8.696  -1.696   0.603 +0.00 +0.00    +0.023 C  
DOCKED: ATOM     13  C4  UNL     1       7.978  -0.913   1.708 +0.00 +0.00    +0.010 C  
DOCKED: BRANCH  12  15
DOCKED: ATOM     14  C1  UNL     1      11.084  -1.964  -0.361 +0.00 +0.00    +0.004 C  
DOCKED: ATOM     15  C2  UNL     1      10.216  -1.776   0.875 +0.00 +0.00    +0.003 C  
DOCKED: ENDBRANCH  12  15
DOCKED: ENDBRANCH  11  12
DOCKED: BRANCH  11  16
DOCKED: ATOM     16  O1  UNL     1       9.076  -4.056   0.166 +0.00 -0.00    -0.382 OA 
DOCKED: ATOM     17  H11 UNL     1       9.028  -4.299  -0.779 +0.00 +0.00    +0.210 HD 
DOCKED: ENDBRANCH  11  16
DOCKED: ENDBRANCH   7  11
DOCKED: ENDBRANCH   6   9
DOCKED: BRANCH   6  18
DOCKED: ATOM     18  C8  UNL     1       4.890  -0.317  -2.040 +0.00 +0.00    +0.037 C  
DOCKED: BRANCH  18  19
DOCKED: ATOM     19  C9  UNL     1       4.134  -0.079  -0.725 +0.00 +0.00    +0.074 C  
DOCKED: BRANCH  19  20
DOCKED: ATOM     20  C10 UNL     1       4.950   0.602   0.355 +0.00 +0.00    +0.341 C  
DOCKED: ATOM     21  F1  UNL     1       6.221   0.785  -0.078 +0.00 -0.00    -0.209 F  
DOCKED: ATOM     22  F2  UNL     1       5.013  -0.181   1.460 +0.00 -0.00    -0.209 F  
DOCKED: ENDBRANCH  19  20
DOCKED: ENDBRANCH  18  19
DOCKED: ENDBRANCH   6  18
DOCKED: ENDBRANCH   2   6
DOCKED: ENDBRANCH   1   4
DOCKED: BRANCH   1  23
DOCKED: ATOM     23  C13 UNL     1       9.538  -0.935  -4.381 +0.00 +0.00    +0.060 C  
DOCKED: BRANCH  23  24
DOCKED: ATOM     24  C14 UNL     1       9.030   0.142  -3.455 +0.00 -0.00    -0.046 A  
DOCKED: ATOM     25  C15 UNL     1       9.510   0.239  -2.143 +0.00 +0.00    +0.004 A  
DOCKED: ATOM     26  C16 UNL     1       9.054   1.250  -1.296 +0.00 +0.00    +0.000 A  
DOCKED: ATOM     27  C17 UNL     1       8.112   2.169  -1.750 +0.00 +0.00    +0.000 A  
DOCKED: ATOM     28  C18 UNL     1       7.626   2.080  -3.055 +0.00 +0.00    +0.000 A  
DOCKED: ATOM     29  C19 UNL     1       8.080   1.072  -3.904 +0.00 +0.00    +0.004 A  
DOCKED: ENDBRANCH  23  24
DOCKED: ENDBRANCH   1  23
DOCKED: BRANCH   1  30
DOCKED: ATOM     30  C20 UNL     1       9.696  -3.474  -3.945 +0.00 +0.00    +0.136 C  
DOCKED: BRANCH  30  31
DOCKED: ATOM     31  O4  UNL     1       9.682  -3.682  -2.530 +0.00 -0.00    -0.390 OA 
DOCKED: ATOM     32  H29 UNL     1       8.771  -3.859  -2.243 +0.00 +0.00    +0.210 HD 
DOCKED: ENDBRANCH  30  31
DOCKED: BRANCH  30  33
DOCKED: ATOM     33  C21 UNL     1       9.239  -4.736  -4.710 +0.00 +0.00    +0.046 C  
DOCKED: BRANCH  33  34
DOCKED: ATOM     34  C22 UNL     1       8.092  -5.558  -4.082 +0.00 +0.00    +0.078 C  
DOCKED: BRANCH  34  35
DOCKED: ATOM     35  C26 UNL     1       8.674  -6.640  -3.166 +0.00 +0.00    +0.217 C  
DOCKED: ATOM     36  O5  UNL     1       8.963  -7.753  -3.596 +0.00 -0.00    -0.275 OA 
DOCKED: ATOM     37  N3  UNL     1       8.732  -6.340  -1.828 +0.00 -0.00    -0.304 N  
DOCKED: ATOM     38  H38 UNL     1       8.738  -5.374  -1.508 +0.00 +0.00    +0.149 HD 
DOCKED: BRANCH  37  39
DOCKED: ATOM     39  C27 UNL     1       9.184  -7.315  -0.826 +0.00 +0.00    +0.161 C  
DOCKED: BRANCH  39  40
DOCKED: ATOM     40  C28 UNL     1       7.983  -7.511   0.125 +0.00 +0.00    +0.234 C  
DOCKED: ATOM     41  O6  UNL     1       7.723  -8.615   0.611 +0.00 -0.00    -0.274 OA 
DOCKED: ATOM     42  N4  UNL     1       7.227  -6.390   0.361 +0.00 -0.00    -0.310 N  
DOCKED: ATOM     43  H40 UNL     1       7.506  -5.499  -0.032 +0.00 +0.00    +0.149 HD 
DOCKED: BRANCH  42  44
DOCKED: ATOM     44  C29 UNL     1       6.027  -6.420   1.168 +0.00 +0.00    +0.139 C  
DOCKED: BRANCH  44  45
DOCKED: ATOM     45  C30 UNL     1       5.148  -5.244   0.841 +0.00 -0.00    -0.027 A  
DOCKED: ATOM     46  C31 UNL     1       5.100  -4.122   1.672 +0.00 +0.00    +0.025 A  
DOCKED: ATOM     47  C32 UNL     1       4.280  -3.066   1.308 +0.00 +0.00    +0.111 A  
DOCKED: ATOM     48  N5  UNL     1       3.522  -3.049   0.189 +0.00 -0.00    -0.263 NA 
DOCKED: ATOM     49  C33 UNL     1       3.577  -4.145  -0.598 +0.00 +0.00    +0.111 A  
DOCKED: ATOM     50  C34 UNL     1       4.357  -5.253  -0.314 +0.00 +0.00    +0.025 A  
DOCKED: ENDBRANCH  44  45
DOCKED: ENDBRANCH  42  44
DOCKED: ENDBRANCH  39  40
DOCKED: BRANCH  39  51
DOCKED: ATOM     51  C35 UNL     1      10.477  -6.872  -0.099 +0.00 +0.00    +0.012 C  
DOCKED: ATOM     52  C36 UNL     1      10.217  -6.445   1.350 +0.00 +0.00    +0.009 C  
DOCKED: ATOM     53  C37 UNL     1      11.236  -5.766  -0.841 +0.00 +0.00    +0.009 C  
DOCKED: ENDBRANCH  39  51
DOCKED: ENDBRANCH  37  39
DOCKED: ENDBRANCH  34  35
DOCKED: BRANCH  34  54
DOCKED: ATOM     54  C23 UNL     1       7.034  -6.065  -5.078 +0.00 +0.00    +0.018 C  
DOCKED: BRANCH  54  55
DOCKED: ATOM     55  C24 UNL     1       5.698  -5.305  -5.098 +0.00 +0.00    +0.073 C  
DOCKED: BRANCH  55  56
DOCKED: ATOM     56  C25 UNL     1       4.881  -5.430  -3.824 +0.00 +0.00    +0.341 C  
DOCKED: ATOM     57  F3  UNL     1       5.559  -6.165  -2.907 +0.00 -0.00    -0.209 F  
DOCKED: ATOM     58  F4  UNL     1       4.663  -4.210  -3.278 +0.00 -0.00    -0.209 F  
DOCKED: ENDBRANCH  55  56
DOCKED: ENDBRANCH  54  55
DOCKED: ENDBRANCH  34  54
DOCKED: ENDBRANCH  33  34
DOCKED: ENDBRANCH  30  33
DOCKED: ENDBRANCH   1  30
DOCKED: TORSDOF 25
DOCKED: TER
DOCKED: ENDMDL
________________________________________________________________________________


    FINAL DOCKED STATE:
    ________________________


Run:   14 / 20
Time taken for this run:   2.906s

DOCKED: MODEL        14
DOCKED: USER    Run = 14
DOCKED: USER
DOCKED: USER    Estimated Free Energy of Binding    =  +7.46 kcal/mol  [=(1)+(2)+(3)-(4)]
DOCKED: USER
DOCKED: USER    (1) Final Intermolecular Energy     =  +0.00 kcal/mol
DOCKED: USER        vdW + Hbond + desolv Energy     =  +0.00 kcal/mol
DOCKED: USER        Electrostatic Energy            =  +0.00 kcal/mol
DOCKED: USER        Moving Ligand-Fixed Receptor    =  +0.00 kcal/mol
DOCKED: USER        Moving Ligand-Moving Receptor   =  +0.00 kcal/mol
DOCKED: USER    (2) Final Total Internal Energy     = -14.89 kcal/mol
DOCKED: USER    (3) Torsional Free Energy           =  +7.46 kcal/mol
DOCKED: USER    (4) Unbound System's Energy         = -14.89 kcal/mol
DOCKED: USER
DOCKED: USER
DOCKED: REMARK  Name = ligands/ligand_14.pdb
DOCKED: REMARK  29 active torsions:
DOCKED: REMARK  status: ('A' for Active; 'I' for Inactive)
DOCKED: REMARK    1  A    between atoms: C1_1  and  C2_2
DOCKED: REMARK    2  A    between atoms: C2_2  and  C3_3
DOCKED: REMARK    3  A    between atoms: C3_3  and  C4_4
DOCKED: REMARK    4  A    between atoms: C3_3  and  C5_5
DOCKED: REMARK    5  A    between atoms: C5_5  and  O1_6
DOCKED: REMARK    6  A    between atoms: C5_5  and  C6_7
DOCKED: REMARK    7  A    between atoms: N1_9  and  C7_10
DOCKED: REMARK    8  A    between atoms: C7_10  and  C8_11
DOCKED: REMARK    9  A    between atoms: C7_10  and  C11_16
DOCKED: REMARK   10  A    between atoms: C8_11  and  C9_12
DOCKED: REMARK   11  A    between atoms: C9_12  and  C10_13
DOCKED: REMARK   12  A    between atoms: N2_18  and  C12_19
DOCKED: REMARK   13  A    between atoms: C12_19  and  C13_20
DOCKED: REMARK   14  A    between atoms: C12_19  and  C20_27
DOCKED: REMARK   15  A    between atoms: C13_20  and  C14_21
DOCKED: REMARK   16  A    between atoms: C20_27  and  O4_28
DOCKED: REMARK   17  A    between atoms: C20_27  and  C21_29
DOCKED: REMARK   18  A    between atoms: C21_29  and  C22_30
DOCKED: REMARK   19  A    between atoms: C22_30  and  C23_31
DOCKED: REMARK   20  A    between atoms: C22_30  and  C26_36
DOCKED: REMARK   21  A    between atoms: C23_31  and  C24_32
DOCKED: REMARK   22  A    between atoms: C24_32  and  C25_33
DOCKED: REMARK   23  A    between atoms: N3_38  and  C27_39
DOCKED: REMARK   24  A    between atoms: C27_39  and  C28_40
DOCKED: REMARK   25  A    between atoms: C27_39  and  C35_50
DOCKED: REMARK   26  A    between atoms: N4_42  and  C29_43
DOCKED: REMARK   27  A    between atoms: C29_43  and  C30_44
DOCKED: REMARK   28  A    between atoms: C35_50  and  C36_51
DOCKED: REMARK   29  A    between atoms: C35_50  and  C37_52
DOCKED: REMARK                            x       y       z     vdW  Elec       q    Type
DOCKED: REMARK                         _______ _______ _______ _____ _____    ______ ____
DOCKED: USER                              x       y       z     vdW  Elec       q    Type
DOCKED: USER                           _______ _______ _______ _____ _____    ______ ____
DOCKED: ROOT
DOCKED: ATOM      1  C12 UNL     1       8.309  -7.016   3.376 +0.00 +0.00    +0.106 C  
DOCKED: ENDROOT
DOCKED: BRANCH   1   4
DOCKED: ATOM      2  C11 UNL     1       9.394  -6.208   5.482 +0.00 +0.00    +0.234 C  
DOCKED: ATOM      3  O3  UNL     1       8.332  -5.865   5.993 +0.00 -0.00    -0.274 OA 
DOCKED: ATOM      4  N2  UNL     1       9.474  -6.766   4.228 +0.00 -0.00    -0.308 N  
DOCKED: ATOM      5  H19 UNL     1      10.397  -6.860   3.794 +0.00 +0.00    +0.149 HD 
DOCKED: BRANCH   2   6
DOCKED: ATOM      6  C7  UNL     1      10.769  -6.016   6.160 +0.00 +0.00    +0.159 C  
DOCKED: BRANCH   6   9
DOCKED: ATOM      7  C6  UNL     1      11.903  -7.689   4.720 +0.00 +0.00    +0.243 C  
DOCKED: ATOM      8  O2  UNL     1      11.191  -8.612   5.104 +0.00 -0.00    -0.273 OA 
DOCKED: ATOM      9  N1  UNL     1      11.805  -6.403   5.203 +0.00 -0.00    -0.302 N  
DOCKED: ATOM     10  H12 UNL     1      12.213  -5.684   4.611 +0.00 +0.00    +0.150 HD 
DOCKED: BRANCH   7  11
DOCKED: ATOM     11  C5  UNL     1      12.995  -7.866   3.652 +0.00 +0.00    +0.203 C  
DOCKED: BRANCH  11  12
DOCKED: ATOM     12  C3  UNL     1      13.172  -6.593   2.800 +0.00 +0.00    +0.023 C  
DOCKED: ATOM     13  C4  UNL     1      14.374  -5.770   3.277 +0.00 +0.00    +0.010 C  
DOCKED: BRANCH  12  15
DOCKED: ATOM     14  C1  UNL     1      11.936  -7.151   0.594 +0.00 +0.00    +0.004 C  
DOCKED: ATOM     15  C2  UNL     1      13.268  -6.891   1.286 +0.00 +0.00    +0.003 C  
DOCKED: ENDBRANCH  12  15
DOCKED: ENDBRANCH  11  12
DOCKED: BRANCH  11  16
DOCKED: ATOM     16  O1  UNL     1      12.615  -8.959   2.805 +0.00 -0.00    -0.382 OA 
DOCKED: ATOM     17  H11 UNL     1      11.681  -9.158   3.008 +0.00 +0.00    +0.210 HD 
DOCKED: ENDBRANCH  11  16
DOCKED: ENDBRANCH   7  11
DOCKED: ENDBRANCH   6   9
DOCKED: BRANCH   6  18
DOCKED: ATOM     18  C8  UNL     1      11.004  -4.563   6.595 +0.00 +0.00    +0.037 C  
DOCKED: BRANCH  18  19
DOCKED: ATOM     19  C9  UNL     1      12.395  -4.247   7.163 +0.00 +0.00    +0.074 C  
DOCKED: BRANCH  19  20
DOCKED: ATOM     20  C10 UNL     1      13.377  -3.695   6.149 +0.00 +0.00    +0.341 C  
DOCKED: ATOM     21  F1  UNL     1      12.845  -3.775   4.905 +0.00 -0.00    -0.209 F  
DOCKED: ATOM     22  F2  UNL     1      14.514  -4.433   6.146 +0.00 -0.00    -0.209 F  
DOCKED: ENDBRANCH  19  20
DOCKED: ENDBRANCH  18  19
DOCKED: ENDBRANCH   6  18
DOCKED: ENDBRANCH   2   6
DOCKED: ENDBRANCH   1   4
DOCKED: BRANCH   1  23
DOCKED: ATOM     23  C13 UNL     1       8.112  -5.821   2.416 +0.00 +0.00    +0.060 C  
DOCKED: BRANCH  23  24
DOCKED: ATOM     24  C14 UNL     1       9.090  -4.695   2.643 +0.00 -0.00    -0.046 A  
DOCKED: ATOM     25  C15 UNL     1       8.763  -3.627   3.488 +0.00 +0.00    +0.004 A  
DOCKED: ATOM     26  C16 UNL     1       9.678  -2.598   3.714 +0.00 +0.00    +0.000 A  
DOCKED: ATOM     27  C17 UNL     1      10.924  -2.623   3.093 +0.00 +0.00    +0.000 A  
DOCKED: ATOM     28  C18 UNL     1      11.258  -3.681   2.247 +0.00 +0.00    +0.000 A  
DOCKED: ATOM     29  C19 UNL     1      10.347  -4.712   2.021 +0.00 +0.00    +0.004 A  
DOCKED: ENDBRANCH  23  24
DOCKED: ENDBRANCH   1  23
DOCKED: BRANCH   1  30
DOCKED: ATOM     30  C20 UNL     1       8.494  -8.365   2.624 +0.00 +0.00    +0.136 C  
DOCKED: BRANCH  30  31
DOCKED: ATOM     31  O4  UNL     1       9.898  -8.611   2.498 +0.00 -0.00    -0.390 OA 
DOCKED: ATOM     32  H29 UNL     1      10.291  -8.676   3.384 +0.00 +0.00    +0.210 HD 
DOCKED: ENDBRANCH  30  31
DOCKED: BRANCH  30  33
DOCKED: ATOM     33  C21 UNL     1       7.781  -9.513   3.373 +0.00 +0.00    +0.046 C  
DOCKED: BRANCH  33  34
DOCKED: ATOM     34  C22 UNL     1       8.535 -10.146   4.563 +0.00 +0.00    +0.078 C  
DOCKED: BRANCH  34  35
DOCKED: ATOM     35  C26 UNL     1       9.358 -11.342   4.075 +0.00 +0.00    +0.217 C  
DOCKED: ATOM     36  O5  UNL     1       8.883 -12.474   4.040 +0.00 -0.00    -0.275 OA 
DOCKED: ATOM     37  N3  UNL     1      10.682 -11.103   3.805 +0.00 -0.00    -0.304 N  
DOCKED: ATOM     38  H38 UNL     1      11.010 -10.163   3.591 +0.00 +0.00    +0.149 HD 
DOCKED: BRANCH  37  39
DOCKED: ATOM     39  C27 UNL     1      11.608 -12.174   3.415 +0.00 +0.00    +0.161 C  
DOCKED: BRANCH  39  40
DOCKED: ATOM     40  C28 UNL     1      12.705 -12.183   4.502 +0.00 +0.00    +0.234 C  
DOCKED: ATOM     41  O6  UNL     1      13.214 -13.237   4.892 +0.00 -0.00    -0.274 OA 
DOCKED: ATOM     42  N4  UNL     1      13.044 -10.954   5.010 +0.00 -0.00    -0.310 N  
DOCKED: ATOM     43  H40 UNL     1      12.624 -10.114   4.628 +0.00 +0.00    +0.149 HD 
DOCKED: BRANCH  42  44
DOCKED: ATOM     44  C29 UNL     1      13.999 -10.795   6.085 +0.00 +0.00    +0.139 C  
DOCKED: BRANCH  44  45
DOCKED: ATOM     45  C30 UNL     1      13.760  -9.498   6.809 +0.00 -0.00    -0.027 A  
DOCKED: ATOM     46  C31 UNL     1      12.705  -9.357   7.714 +0.00 +0.00    +0.025 A  
DOCKED: ATOM     47  C32 UNL     1      12.547  -8.141   8.359 +0.00 +0.00    +0.111 A  
DOCKED: ATOM     48  N5  UNL     1      13.359  -7.076   8.172 +0.00 -0.00    -0.263 NA 
DOCKED: ATOM     49  C33 UNL     1      14.368  -7.230   7.289 +0.00 +0.00    +0.111 A  
DOCKED: ATOM     50  C34 UNL     1      14.601  -8.401   6.588 +0.00 +0.00    +0.025 A  
DOCKED: ENDBRANCH  44  45
DOCKED: ENDBRANCH  42  44
DOCKED: ENDBRANCH  39  40
DOCKED: BRANCH  39  51
DOCKED: ATOM     51  C35 UNL     1      12.166 -11.992   1.982 +0.00 +0.00    +0.012 C  
DOCKED: ATOM     52  C36 UNL     1      13.639 -11.573   1.976 +0.00 +0.00    +0.009 C  
DOCKED: ATOM     53  C37 UNL     1      11.342 -11.016   1.135 +0.00 +0.00    +0.009 C  
DOCKED: ENDBRANCH  39  51
DOCKED: ENDBRANCH  37  39
DOCKED: ENDBRANCH  34  35
DOCKED: BRANCH  34  54
DOCKED: ATOM     54  C23 UNL     1       7.670 -10.429   5.805 +0.00 +0.00    +0.018 C  
DOCKED: BRANCH  54  55
DOCKED: ATOM     55  C24 UNL     1       7.801  -9.433   6.968 +0.00 +0.00    +0.073 C  
DOCKED: BRANCH  55  56
DOCKED: ATOM     56  C25 UNL     1       9.131  -9.489   7.701 +0.00 +0.00    +0.341 C  
DOCKED: ATOM     57  F3  UNL     1       9.997 -10.290   7.030 +0.00 -0.00    -0.209 F  
DOCKED: ATOM     58  F4  UNL     1       9.690  -8.258   7.763 +0.00 -0.00    -0.209 F  
DOCKED: ENDBRANCH  55  56
DOCKED: ENDBRANCH  54  55
DOCKED: ENDBRANCH  34  54
DOCKED: ENDBRANCH  33  34
DOCKED: ENDBRANCH  30  33
DOCKED: ENDBRANCH   1  30
DOCKED: TORSDOF 25
DOCKED: TER
DOCKED: ENDMDL
________________________________________________________________________________


    FINAL DOCKED STATE:
    ________________________


Run:   15 / 20
Time taken for this run:   2.906s

DOCKED: MODEL        15
DOCKED: USER    Run = 15
DOCKED: USER
DOCKED: USER    Estimated Free Energy of Binding    =  +7.46 kcal/mol  [=(1)+(2)+(3)-(4)]
DOCKED: USER
DOCKED: USER    (1) Final Intermolecular Energy     =  +0.00 kcal/mol
DOCKED: USER        vdW + Hbond + desolv Energy     =  +0.00 kcal/mol
DOCKED: USER        Electrostatic Energy            =  +0.00 kcal/mol
DOCKED: USER        Moving Ligand-Fixed Receptor    =  +0.00 kcal/mol
DOCKED: USER        Moving Ligand-Moving Receptor   =  +0.00 kcal/mol
DOCKED: USER    (2) Final Total Internal Energy     = -14.89 kcal/mol
DOCKED: USER    (3) Torsional Free Energy           =  +7.46 kcal/mol
DOCKED: USER    (4) Unbound System's Energy         = -14.89 kcal/mol
DOCKED: USER
DOCKED: USER
DOCKED: REMARK  Name = ligands/ligand_14.pdb
DOCKED: REMARK  29 active torsions:
DOCKED: REMARK  status: ('A' for Active; 'I' for Inactive)
DOCKED: REMARK    1  A    between atoms: C1_1  and  C2_2
DOCKED: REMARK    2  A    between atoms: C2_2  and  C3_3
DOCKED: REMARK    3  A    between atoms: C3_3  and  C4_4
DOCKED: REMARK    4  A    between atoms: C3_3  and  C5_5
DOCKED: REMARK    5  A    between atoms: C5_5  and  O1_6
DOCKED: REMARK    6  A    between atoms: C5_5  and  C6_7
DOCKED: REMARK    7  A    between atoms: N1_9  and  C7_10
DOCKED: REMARK    8  A    between atoms: C7_10  and  C8_11
DOCKED: REMARK    9  A    between atoms: C7_10  and  C11_16
DOCKED: REMARK   10  A    between atoms: C8_11  and  C9_12
DOCKED: REMARK   11  A    between atoms: C9_12  and  C10_13
DOCKED: REMARK   12  A    between atoms: N2_18  and  C12_19
DOCKED: REMARK   13  A    between atoms: C12_19  and  C13_20
DOCKED: REMARK   14  A    between atoms: C12_19  and  C20_27
DOCKED: REMARK   15  A    between atoms: C13_20  and  C14_21
DOCKED: REMARK   16  A    between atoms: C20_27  and  O4_28
DOCKED: REMARK   17  A    between atoms: C20_27  and  C21_29
DOCKED: REMARK   18  A    between atoms: C21_29  and  C22_30
DOCKED: REMARK   19  A    between atoms: C22_30  and  C23_31
DOCKED: REMARK   20  A    between atoms: C22_30  and  C26_36
DOCKED: REMARK   21  A    between atoms: C23_31  and  C24_32
DOCKED: REMARK   22  A    between atoms: C24_32  and  C25_33
DOCKED: REMARK   23  A    between atoms: N3_38  and  C27_39
DOCKED: REMARK   24  A    between atoms: C27_39  and  C28_40
DOCKED: REMARK   25  A    between atoms: C27_39  and  C35_50
DOCKED: REMARK   26  A    between atoms: N4_42  and  C29_43
DOCKED: REMARK   27  A    between atoms: C29_43  and  C30_44
DOCKED: REMARK   28  A    between atoms: C35_50  and  C36_51
DOCKED: REMARK   29  A    between atoms: C35_50  and  C37_52
DOCKED: REMARK                            x       y       z     vdW  Elec       q    Type
DOCKED: REMARK                         _______ _______ _______ _____ _____    ______ ____
DOCKED: USER                              x       y       z     vdW  Elec       q    Type
DOCKED: USER                           _______ _______ _______ _____ _____    ______ ____
DOCKED: ROOT
DOCKED: ATOM      1  C12 UNL     1      10.436  -5.678  -1.016 +0.00 +0.00    +0.106 C  
DOCKED: ENDROOT
DOCKED: BRANCH   1   4
DOCKED: ATOM      2  C11 UNL     1       9.358  -3.545  -1.761 +0.00 +0.00    +0.234 C  
DOCKED: ATOM      3  O3  UNL     1      10.418  -3.043  -2.126 +0.00 -0.00    -0.274 OA 
DOCKED: ATOM      4  N2  UNL     1       9.277  -4.803  -1.213 +0.00 -0.00    -0.308 N  
DOCKED: ATOM      5  H19 UNL     1       8.400  -5.086  -0.768 +0.00 +0.00    +0.149 HD 
DOCKED: BRANCH   2   6
DOCKED: ATOM      6  C7  UNL     1       8.000  -2.812  -1.827 +0.00 +0.00    +0.159 C  
DOCKED: BRANCH   6   9
DOCKED: ATOM      7  C6  UNL     1       6.670  -4.901  -1.663 +0.00 +0.00    +0.243 C  
DOCKED: ATOM      8  O2  UNL     1       7.129  -5.363  -2.703 +0.00 -0.00    -0.273 OA 
DOCKED: ATOM      9  N1  UNL     1       6.998  -3.655  -1.176 +0.00 -0.00    -0.302 N  
DOCKED: ATOM     10  H12 UNL     1       6.811  -3.512  -0.187 +0.00 +0.00    +0.150 HD 
DOCKED: BRANCH   7  11
DOCKED: ATOM     11  C5  UNL     1       5.669  -5.665  -0.781 +0.00 +0.00    +0.203 C  
DOCKED: BRANCH  11  12
DOCKED: ATOM     12  C3  UNL     1       5.864  -5.343   0.715 +0.00 +0.00    +0.023 C  
DOCKED: ATOM     13  C4  UNL     1       4.837  -4.312   1.198 +0.00 +0.00    +0.010 C  
DOCKED: BRANCH  12  15
DOCKED: ATOM     14  C1  UNL     1       7.152  -7.391   1.640 +0.00 +0.00    +0.004 C  
DOCKED: ATOM     15  C2  UNL     1       5.848  -6.605   1.609 +0.00 +0.00    +0.003 C  
DOCKED: ENDBRANCH  12  15
DOCKED: ENDBRANCH  11  12
DOCKED: BRANCH  11  16
DOCKED: ATOM     16  O1  UNL     1       5.868  -7.069  -0.997 +0.00 -0.00    -0.382 OA 
DOCKED: ATOM     17  H11 UNL     1       6.716  -7.161  -1.473 +0.00 +0.00    +0.210 HD 
DOCKED: ENDBRANCH  11  16
DOCKED: ENDBRANCH   7  11
DOCKED: ENDBRANCH   6   9
DOCKED: BRANCH   6  18
DOCKED: ATOM     18  C8  UNL     1       8.041  -1.447  -1.125 +0.00 +0.00    +0.037 C  
DOCKED: BRANCH  18  19
DOCKED: ATOM     19  C9  UNL     1       6.702  -0.705  -1.017 +0.00 +0.00    +0.074 C  
DOCKED: BRANCH  19  20
DOCKED: ATOM     20  C10 UNL     1       5.960  -0.932   0.285 +0.00 +0.00    +0.341 C  
DOCKED: ATOM     21  F1  UNL     1       6.584  -1.897   1.005 +0.00 -0.00    -0.209 F  
DOCKED: ATOM     22  F2  UNL     1       4.701  -1.369   0.038 +0.00 -0.00    -0.209 F  
DOCKED: ENDBRANCH  19  20
DOCKED: ENDBRANCH  18  19
DOCKED: ENDBRANCH   6  18
DOCKED: ENDBRANCH   2   6
DOCKED: ENDBRANCH   1   4
DOCKED: BRANCH   1  23
DOCKED: ATOM     23  C13 UNL     1      10.952  -5.523   0.432 +0.00 +0.00    +0.060 C  
DOCKED: BRANCH  23  24
DOCKED: ATOM     24  C14 UNL     1      10.230  -4.461   1.222 +0.00 -0.00    -0.046 A  
DOCKED: ATOM     25  C15 UNL     1      10.704  -3.143   1.243 +0.00 +0.00    +0.004 A  
DOCKED: ATOM     26  C16 UNL     1      10.021  -2.157   1.957 +0.00 +0.00    +0.000 A  
DOCKED: ATOM     27  C17 UNL     1       8.863  -2.479   2.659 +0.00 +0.00    +0.000 A  
DOCKED: ATOM     28  C18 UNL     1       8.384  -3.790   2.647 +0.00 +0.00    +0.000 A  
DOCKED: ATOM     29  C19 UNL     1       9.063  -4.777   1.933 +0.00 +0.00    +0.004 A  
DOCKED: ENDBRANCH  23  24
DOCKED: ENDBRANCH   1  23
DOCKED: BRANCH   1  30
DOCKED: ATOM     30  C20 UNL     1      10.045  -7.143  -1.361 +0.00 +0.00    +0.136 C  
DOCKED: BRANCH  30  31
DOCKED: ATOM     31  O4  UNL     1       8.643  -7.294  -1.124 +0.00 -0.00    -0.390 OA 
DOCKED: ATOM     32  H29 UNL     1       8.157  -6.652  -1.669 +0.00 +0.00    +0.210 HD 
DOCKED: ENDBRANCH  30  31
DOCKED: BRANCH  30  33
DOCKED: ATOM     33  C21 UNL     1      10.414  -7.481  -2.823 +0.00 +0.00    +0.046 C  
DOCKED: BRANCH  33  34
DOCKED: ATOM     34  C22 UNL     1       9.416  -7.039  -3.916 +0.00 +0.00    +0.078 C  
DOCKED: BRANCH  34  35
DOCKED: ATOM     35  C26 UNL     1       8.414  -8.166  -4.186 +0.00 +0.00    +0.217 C  
DOCKED: ATOM     36  O5  UNL     1       8.636  -9.030  -5.030 +0.00 -0.00    -0.275 OA 
DOCKED: ATOM     37  N3  UNL     1       7.211  -8.084  -3.530 +0.00 -0.00    -0.304 N  
DOCKED: ATOM     38  H38 UNL     1       7.120  -7.542  -2.673 +0.00 +0.00    +0.149 HD 
DOCKED: BRANCH  37  39
DOCKED: ATOM     39  C27 UNL     1       6.126  -9.046  -3.762 +0.00 +0.00    +0.161 C  
DOCKED: BRANCH  39  40
DOCKED: ATOM     40  C28 UNL     1       4.950  -8.211  -4.315 +0.00 +0.00    +0.234 C  
DOCKED: ATOM     41  O6  UNL     1       4.194  -8.662  -5.179 +0.00 -0.00    -0.274 OA 
DOCKED: ATOM     42  N4  UNL     1       4.831  -6.944  -3.801 +0.00 -0.00    -0.310 N  
DOCKED: ATOM     43  H40 UNL     1       5.455  -6.635  -3.065 +0.00 +0.00    +0.149 HD 
DOCKED: BRANCH  42  44
DOCKED: ATOM     44  C29 UNL     1       3.831  -6.009  -4.267 +0.00 +0.00    +0.139 C  
DOCKED: BRANCH  44  45
DOCKED: ATOM     45  C30 UNL     1       4.240  -4.599  -3.940 +0.00 -0.00    -0.027 A  
DOCKED: ATOM     46  C31 UNL     1       5.200  -3.928  -4.702 +0.00 +0.00    +0.025 A  
DOCKED: ATOM     47  C32 UNL     1       5.523  -2.625  -4.358 +0.00 +0.00    +0.111 A  
DOCKED: ATOM     48  N5  UNL     1       4.961  -1.955  -3.326 +0.00 -0.00    -0.263 NA 
DOCKED: ATOM     49  C33 UNL     1       4.042  -2.623  -2.597 +0.00 +0.00    +0.111 A  
DOCKED: ATOM     50  C34 UNL     1       3.659  -3.928  -2.857 +0.00 +0.00    +0.025 A  
DOCKED: ENDBRANCH  44  45
DOCKED: ENDBRANCH  42  44
DOCKED: ENDBRANCH  39  40
DOCKED: BRANCH  39  51
DOCKED: ATOM     51  C35 UNL     1       5.760  -9.854  -2.492 +0.00 +0.00    +0.012 C  
DOCKED: ATOM     52  C36 UNL     1       4.414  -9.431  -1.896 +0.00 +0.00    +0.009 C  
DOCKED: ATOM     53  C37 UNL     1       6.848  -9.804  -1.413 +0.00 +0.00    +0.009 C  
DOCKED: ENDBRANCH  39  51
DOCKED: ENDBRANCH  37  39
DOCKED: ENDBRANCH  34  35
DOCKED: BRANCH  34  54
DOCKED: ATOM     54  C23 UNL     1      10.059  -6.439  -5.179 +0.00 +0.00    +0.018 C  
DOCKED: BRANCH  54  55
DOCKED: ATOM     55  C24 UNL     1      10.011  -4.907  -5.306 +0.00 +0.00    +0.073 C  
DOCKED: BRANCH  55  56
DOCKED: ATOM     56  C25 UNL     1       8.630  -4.340  -5.584 +0.00 +0.00    +0.341 C  
DOCKED: ATOM     57  F3  UNL     1       7.695  -5.318  -5.478 +0.00 -0.00    -0.209 F  
DOCKED: ATOM     58  F4  UNL     1       8.317  -3.388  -4.674 +0.00 -0.00    -0.209 F  
DOCKED: ENDBRANCH  55  56
DOCKED: ENDBRANCH  54  55
DOCKED: ENDBRANCH  34  54
DOCKED: ENDBRANCH  33  34
DOCKED: ENDBRANCH  30  33
DOCKED: ENDBRANCH   1  30
DOCKED: TORSDOF 25
DOCKED: TER
DOCKED: ENDMDL
________________________________________________________________________________


    FINAL DOCKED STATE:
    ________________________


Run:   16 / 20
Time taken for this run:   2.906s

DOCKED: MODEL        16
DOCKED: USER    Run = 16
DOCKED: USER
DOCKED: USER    Estimated Free Energy of Binding    =  +7.46 kcal/mol  [=(1)+(2)+(3)-(4)]
DOCKED: USER
DOCKED: USER    (1) Final Intermolecular Energy     =  +0.00 kcal/mol
DOCKED: USER        vdW + Hbond + desolv Energy     =  +0.00 kcal/mol
DOCKED: USER        Electrostatic Energy            =  +0.00 kcal/mol
DOCKED: USER        Moving Ligand-Fixed Receptor    =  +0.00 kcal/mol
DOCKED: USER        Moving Ligand-Moving Receptor   =  +0.00 kcal/mol
DOCKED: USER    (2) Final Total Internal Energy     = -14.56 kcal/mol
DOCKED: USER    (3) Torsional Free Energy           =  +7.46 kcal/mol
DOCKED: USER    (4) Unbound System's Energy         = -14.56 kcal/mol
DOCKED: USER
DOCKED: USER
DOCKED: REMARK  Name = ligands/ligand_14.pdb
DOCKED: REMARK  29 active torsions:
DOCKED: REMARK  status: ('A' for Active; 'I' for Inactive)
DOCKED: REMARK    1  A    between atoms: C1_1  and  C2_2
DOCKED: REMARK    2  A    between atoms: C2_2  and  C3_3
DOCKED: REMARK    3  A    between atoms: C3_3  and  C4_4
DOCKED: REMARK    4  A    between atoms: C3_3  and  C5_5
DOCKED: REMARK    5  A    between atoms: C5_5  and  O1_6
DOCKED: REMARK    6  A    between atoms: C5_5  and  C6_7
DOCKED: REMARK    7  A    between atoms: N1_9  and  C7_10
DOCKED: REMARK    8  A    between atoms: C7_10  and  C8_11
DOCKED: REMARK    9  A    between atoms: C7_10  and  C11_16
DOCKED: REMARK   10  A    between atoms: C8_11  and  C9_12
DOCKED: REMARK   11  A    between atoms: C9_12  and  C10_13
DOCKED: REMARK   12  A    between atoms: N2_18  and  C12_19
DOCKED: REMARK   13  A    between atoms: C12_19  and  C13_20
DOCKED: REMARK   14  A    between atoms: C12_19  and  C20_27
DOCKED: REMARK   15  A    between atoms: C13_20  and  C14_21
DOCKED: REMARK   16  A    between atoms: C20_27  and  O4_28
DOCKED: REMARK   17  A    between atoms: C20_27  and  C21_29
DOCKED: REMARK   18  A    between atoms: C21_29  and  C22_30
DOCKED: REMARK   19  A    between atoms: C22_30  and  C23_31
DOCKED: REMARK   20  A    between atoms: C22_30  and  C26_36
DOCKED: REMARK   21  A    between atoms: C23_31  and  C24_32
DOCKED: REMARK   22  A    between atoms: C24_32  and  C25_33
DOCKED: REMARK   23  A    between atoms: N3_38  and  C27_39
DOCKED: REMARK   24  A    between atoms: C27_39  and  C28_40
DOCKED: REMARK   25  A    between atoms: C27_39  and  C35_50
DOCKED: REMARK   26  A    between atoms: N4_42  and  C29_43
DOCKED: REMARK   27  A    between atoms: C29_43  and  C30_44
DOCKED: REMARK   28  A    between atoms: C35_50  and  C36_51
DOCKED: REMARK   29  A    between atoms: C35_50  and  C37_52
DOCKED: REMARK                            x       y       z     vdW  Elec       q    Type
DOCKED: REMARK                         _______ _______ _______ _____ _____    ______ ____
DOCKED: USER                              x       y       z     vdW  Elec       q    Type
DOCKED: USER                           _______ _______ _______ _____ _____    ______ ____
DOCKED: ROOT
DOCKED: ATOM      1  C12 UNL     1      11.485  -1.749   1.427 +0.00 +0.00    +0.106 C  
DOCKED: ENDROOT
DOCKED: BRANCH   1   4
DOCKED: ATOM      2  C11 UNL     1      12.121   0.644   1.059 +0.00 +0.00    +0.234 C  
DOCKED: ATOM      3  O3  UNL     1      12.580   0.780   2.190 +0.00 -0.00    -0.274 OA 
DOCKED: ATOM      4  N2  UNL     1      11.572  -0.535   0.612 +0.00 -0.00    -0.308 N  
DOCKED: ATOM      5  H19 UNL     1      11.049  -0.526  -0.268 +0.00 +0.00    +0.149 HD 
DOCKED: BRANCH   2   6
DOCKED: ATOM      6  C7  UNL     1      12.059   1.786   0.020 +0.00 +0.00    +0.159 C  
DOCKED: BRANCH   6   9
DOCKED: ATOM      7  C6  UNL     1      11.820   0.255  -1.918 +0.00 +0.00    +0.243 C  
DOCKED: ATOM      8  O2  UNL     1      12.908  -0.280  -1.725 +0.00 -0.00    -0.273 OA 
DOCKED: ATOM      9  N1  UNL     1      11.338   1.294  -1.153 +0.00 -0.00    -0.302 N  
DOCKED: ATOM     10  H12 UNL     1      10.333   1.440  -1.203 +0.00 +0.00    +0.150 HD 
DOCKED: BRANCH   7  11
DOCKED: ATOM     11  C5  UNL     1      10.868  -0.175  -3.046 +0.00 +0.00    +0.203 C  
DOCKED: BRANCH  11  12
DOCKED: ATOM     12  C3  UNL     1       9.400   0.163  -2.714 +0.00 +0.00    +0.023 C  
DOCKED: ATOM     13  C4  UNL     1       8.934   1.410  -3.474 +0.00 +0.00    +0.010 C  
DOCKED: BRANCH  12  15
DOCKED: ATOM     14  C1  UNL     1       6.991  -0.640  -3.222 +0.00 +0.00    +0.004 C  
DOCKED: ATOM     15  C2  UNL     1       8.439  -1.025  -2.952 +0.00 +0.00    +0.003 C  
DOCKED: ENDBRANCH  12  15
DOCKED: ENDBRANCH  11  12
DOCKED: BRANCH  11  16
DOCKED: ATOM     16  O1  UNL     1      11.002  -1.592  -3.225 +0.00 -0.00    -0.382 OA 
DOCKED: ATOM     17  H11 UNL     1      11.787  -1.865  -2.712 +0.00 +0.00    +0.210 HD 
DOCKED: ENDBRANCH  11  16
DOCKED: ENDBRANCH   7  11
DOCKED: ENDBRANCH   6   9
DOCKED: BRANCH   6  18
DOCKED: ATOM     18  C8  UNL     1      11.343   3.029   0.565 +0.00 +0.00    +0.037 C  
DOCKED: BRANCH  18  19
DOCKED: ATOM     19  C9  UNL     1       9.811   2.948   0.633 +0.00 +0.00    +0.074 C  
DOCKED: BRANCH  19  20
DOCKED: ATOM     20  C10 UNL     1       9.095   3.607  -0.529 +0.00 +0.00    +0.341 C  
DOCKED: ATOM     21  F1  UNL     1       8.088   2.808  -0.959 +0.00 -0.00    -0.209 F  
DOCKED: ATOM     22  F2  UNL     1       9.946   3.774  -1.571 +0.00 -0.00    -0.209 F  
DOCKED: ENDBRANCH  19  20
DOCKED: ENDBRANCH  18  19
DOCKED: ENDBRANCH   6  18
DOCKED: ENDBRANCH   2   6
DOCKED: ENDBRANCH   1   4
DOCKED: BRANCH   1  23
DOCKED: ATOM     23  C13 UNL     1      10.292  -1.626   2.401 +0.00 +0.00    +0.060 C  
DOCKED: BRANCH  23  24
DOCKED: ATOM     24  C14 UNL     1       9.158  -0.788   1.866 +0.00 -0.00    -0.046 A  
DOCKED: ATOM     25  C15 UNL     1       8.604  -1.058   0.608 +0.00 +0.00    +0.004 A  
DOCKED: ATOM     26  C16 UNL     1       7.541  -0.294   0.125 +0.00 +0.00    +0.000 A  
DOCKED: ATOM     27  C17 UNL     1       7.026   0.749   0.890 +0.00 +0.00    +0.000 A  
DOCKED: ATOM     28  C18 UNL     1       7.573   1.028   2.143 +0.00 +0.00    +0.000 A  
DOCKED: ATOM     29  C19 UNL     1       8.634   0.266   2.629 +0.00 +0.00    +0.004 A  
DOCKED: ENDBRANCH  23  24
DOCKED: ENDBRANCH   1  23
DOCKED: BRANCH   1  30
DOCKED: ATOM     30  C20 UNL     1      11.375  -2.992   0.498 +0.00 +0.00    +0.136 C  
DOCKED: BRANCH  30  31
DOCKED: ATOM     31  O4  UNL     1      11.012  -2.536  -0.808 +0.00 -0.00    -0.390 OA 
DOCKED: ATOM     32  H29 UNL     1      11.768  -2.073  -1.206 +0.00 +0.00    +0.210 HD 
DOCKED: ENDBRANCH  30  31
DOCKED: BRANCH  30  33
DOCKED: ATOM     33  C21 UNL     1      12.705  -3.779   0.475 +0.00 +0.00    +0.046 C  
DOCKED: BRANCH  33  34
DOCKED: ATOM     34  C22 UNL     1      13.823  -3.237  -0.442 +0.00 +0.00    +0.078 C  
DOCKED: BRANCH  34  35
DOCKED: ATOM     35  C26 UNL     1      13.492  -3.556  -1.904 +0.00 +0.00    +0.217 C  
DOCKED: ATOM     36  O5  UNL     1      13.230  -2.667  -2.709 +0.00 -0.00    -0.275 OA 
DOCKED: ATOM     37  N3  UNL     1      13.379  -4.885  -2.228 +0.00 -0.00    -0.304 N  
DOCKED: ATOM     38  H38 UNL     1      13.826  -5.602  -1.660 +0.00 +0.00    +0.149 HD 
DOCKED: BRANCH  37  39
DOCKED: ATOM     39  C27 UNL     1      12.979  -5.332  -3.569 +0.00 +0.00    +0.161 C  
DOCKED: BRANCH  39  40
DOCKED: ATOM     40  C28 UNL     1      11.443  -5.478  -3.511 +0.00 +0.00    +0.234 C  
DOCKED: ATOM     41  O6  UNL     1      10.880  -6.502  -3.906 +0.00 -0.00    -0.274 OA 
DOCKED: ATOM     42  N4  UNL     1      10.764  -4.389  -3.023 +0.00 -0.00    -0.310 N  
DOCKED: ATOM     43  H40 UNL     1      11.276  -3.586  -2.676 +0.00 +0.00    +0.149 HD 
DOCKED: BRANCH  42  44
DOCKED: ATOM     44  C29 UNL     1       9.319  -4.334  -2.974 +0.00 +0.00    +0.139 C  
DOCKED: BRANCH  44  45
DOCKED: ATOM     45  C30 UNL     1       8.837  -4.532  -1.562 +0.00 -0.00    -0.027 A  
DOCKED: ATOM     46  C31 UNL     1       9.505  -5.385  -0.681 +0.00 +0.00    +0.025 A  
DOCKED: ATOM     47  C32 UNL     1       9.019  -5.513   0.611 +0.00 +0.00    +0.111 A  
DOCKED: ATOM     48  N5  UNL     1       7.933  -4.855   1.077 +0.00 -0.00    -0.263 NA 
DOCKED: ATOM     49  C33 UNL     1       7.297  -4.041   0.208 +0.00 +0.00    +0.111 A  
DOCKED: ATOM     50  C34 UNL     1       7.700  -3.855  -1.103 +0.00 +0.00    +0.025 A  
DOCKED: ENDBRANCH  44  45
DOCKED: ENDBRANCH  42  44
DOCKED: ENDBRANCH  39  40
DOCKED: BRANCH  39  51
DOCKED: ATOM     51  C35 UNL     1      13.701  -6.630  -4.008 +0.00 +0.00    +0.012 C  
DOCKED: ATOM     52  C36 UNL     1      13.600  -7.741  -2.958 +0.00 +0.00    +0.009 C  
DOCKED: ATOM     53  C37 UNL     1      15.169  -6.402  -4.387 +0.00 +0.00    +0.009 C  
DOCKED: ENDBRANCH  39  51
DOCKED: ENDBRANCH  37  39
DOCKED: ENDBRANCH  34  35
DOCKED: BRANCH  34  54
DOCKED: ATOM     54  C23 UNL     1      15.254  -3.612  -0.015 +0.00 +0.00    +0.018 C  
DOCKED: BRANCH  54  55
DOCKED: ATOM     55  C24 UNL     1      16.190  -2.442   0.330 +0.00 +0.00    +0.073 C  
DOCKED: BRANCH  55  56
DOCKED: ATOM     56  C25 UNL     1      15.517  -1.285   1.047 +0.00 +0.00    +0.341 C  
DOCKED: ATOM     57  F3  UNL     1      14.840  -0.517   0.156 +0.00 -0.00    -0.209 F  
DOCKED: ATOM     58  F4  UNL     1      14.615  -1.744   1.946 +0.00 -0.00    -0.209 F  
DOCKED: ENDBRANCH  55  56
DOCKED: ENDBRANCH  54  55
DOCKED: ENDBRANCH  34  54
DOCKED: ENDBRANCH  33  34
DOCKED: ENDBRANCH  30  33
DOCKED: ENDBRANCH   1  30
DOCKED: TORSDOF 25
DOCKED: TER
DOCKED: ENDMDL
________________________________________________________________________________


    FINAL DOCKED STATE:
    ________________________


Run:   17 / 20
Time taken for this run:   2.906s

DOCKED: MODEL        17
DOCKED: USER    Run = 17
DOCKED: USER
DOCKED: USER    Estimated Free Energy of Binding    =  +7.46 kcal/mol  [=(1)+(2)+(3)-(4)]
DOCKED: USER
DOCKED: USER    (1) Final Intermolecular Energy     =  +0.00 kcal/mol
DOCKED: USER        vdW + Hbond + desolv Energy     =  +0.00 kcal/mol
DOCKED: USER        Electrostatic Energy            =  +0.00 kcal/mol
DOCKED: USER        Moving Ligand-Fixed Receptor    =  +0.00 kcal/mol
DOCKED: USER        Moving Ligand-Moving Receptor   =  +0.00 kcal/mol
DOCKED: USER    (2) Final Total Internal Energy     = -14.91 kcal/mol
DOCKED: USER    (3) Torsional Free Energy           =  +7.46 kcal/mol
DOCKED: USER    (4) Unbound System's Energy         = -14.91 kcal/mol
DOCKED: USER
DOCKED: USER
DOCKED: REMARK  Name = ligands/ligand_14.pdb
DOCKED: REMARK  29 active torsions:
DOCKED: REMARK  status: ('A' for Active; 'I' for Inactive)
DOCKED: REMARK    1  A    between atoms: C1_1  and  C2_2
DOCKED: REMARK    2  A    between atoms: C2_2  and  C3_3
DOCKED: REMARK    3  A    between atoms: C3_3  and  C4_4
DOCKED: REMARK    4  A    between atoms: C3_3  and  C5_5
DOCKED: REMARK    5  A    between atoms: C5_5  and  O1_6
DOCKED: REMARK    6  A    between atoms: C5_5  and  C6_7
DOCKED: REMARK    7  A    between atoms: N1_9  and  C7_10
DOCKED: REMARK    8  A    between atoms: C7_10  and  C8_11
DOCKED: REMARK    9  A    between atoms: C7_10  and  C11_16
DOCKED: REMARK   10  A    between atoms: C8_11  and  C9_12
DOCKED: REMARK   11  A    between atoms: C9_12  and  C10_13
DOCKED: REMARK   12  A    between atoms: N2_18  and  C12_19
DOCKED: REMARK   13  A    between atoms: C12_19  and  C13_20
DOCKED: REMARK   14  A    between atoms: C12_19  and  C20_27
DOCKED: REMARK   15  A    between atoms: C13_20  and  C14_21
DOCKED: REMARK   16  A    between atoms: C20_27  and  O4_28
DOCKED: REMARK   17  A    between atoms: C20_27  and  C21_29
DOCKED: REMARK   18  A    between atoms: C21_29  and  C22_30
DOCKED: REMARK   19  A    between atoms: C22_30  and  C23_31
DOCKED: REMARK   20  A    between atoms: C22_30  and  C26_36
DOCKED: REMARK   21  A    between atoms: C23_31  and  C24_32
DOCKED: REMARK   22  A    between atoms: C24_32  and  C25_33
DOCKED: REMARK   23  A    between atoms: N3_38  and  C27_39
DOCKED: REMARK   24  A    between atoms: C27_39  and  C28_40
DOCKED: REMARK   25  A    between atoms: C27_39  and  C35_50
DOCKED: REMARK   26  A    between atoms: N4_42  and  C29_43
DOCKED: REMARK   27  A    between atoms: C29_43  and  C30_44
DOCKED: REMARK   28  A    between atoms: C35_50  and  C36_51
DOCKED: REMARK   29  A    between atoms: C35_50  and  C37_52
DOCKED: REMARK                            x       y       z     vdW  Elec       q    Type
DOCKED: REMARK                         _______ _______ _______ _____ _____    ______ ____
DOCKED: USER                              x       y       z     vdW  Elec       q    Type
DOCKED: USER                           _______ _______ _______ _____ _____    ______ ____
DOCKED: ROOT
DOCKED: ATOM      1  C12 UNL     1      14.774  -1.658  -0.801 +0.00 +0.00    +0.106 C  
DOCKED: ENDROOT
DOCKED: BRANCH   1   4
DOCKED: ATOM      2  C11 UNL     1      12.693  -2.217   0.473 +0.00 +0.00    +0.234 C  
DOCKED: ATOM      3  O3  UNL     1      13.297  -2.842   1.341 +0.00 -0.00    -0.274 OA 
DOCKED: ATOM      4  N2  UNL     1      13.325  -1.621  -0.592 +0.00 -0.00    -0.308 N  
DOCKED: ATOM      5  H19 UNL     1      12.752  -1.275  -1.367 +0.00 +0.00    +0.149 HD 
DOCKED: BRANCH   2   6
DOCKED: ATOM      6  C7  UNL     1      11.156  -2.064   0.445 +0.00 +0.00    +0.159 C  
DOCKED: BRANCH   6   9
DOCKED: ATOM      7  C6  UNL     1      11.199  -0.131  -1.111 +0.00 +0.00    +0.243 C  
DOCKED: ATOM      8  O2  UNL     1      11.829   0.578  -0.332 +0.00 -0.00    -0.273 OA 
DOCKED: ATOM      9  N1  UNL     1      10.789  -1.411  -0.811 +0.00 -0.00    -0.302 N  
DOCKED: ATOM     10  H12 UNL     1      10.561  -1.994  -1.613 +0.00 +0.00    +0.150 HD 
DOCKED: BRANCH   7  11
DOCKED: ATOM     11  C5  UNL     1      10.791   0.335  -2.519 +0.00 +0.00    +0.203 C  
DOCKED: BRANCH  11  12
DOCKED: ATOM     12  C3  UNL     1      10.755  -0.838  -3.520 +0.00 +0.00    +0.023 C  
DOCKED: ATOM     13  C4  UNL     1       9.321  -1.330  -3.745 +0.00 +0.00    +0.010 C  
DOCKED: BRANCH  12  15
DOCKED: ATOM     14  C1  UNL     1      12.966  -0.581  -4.842 +0.00 +0.00    +0.004 C  
DOCKED: ATOM     15  C2  UNL     1      11.446  -0.504  -4.863 +0.00 +0.00    +0.003 C  
DOCKED: ENDBRANCH  12  15
DOCKED: ENDBRANCH  11  12
DOCKED: BRANCH  11  16
DOCKED: ATOM     16  O1  UNL     1      11.746   1.309  -2.959 +0.00 -0.00    -0.382 OA 
DOCKED: ATOM     17  H11 UNL     1      12.496   1.267  -2.335 +0.00 +0.00    +0.210 HD 
DOCKED: ENDBRANCH  11  16
DOCKED: ENDBRANCH   7  11
DOCKED: ENDBRANCH   6   9
DOCKED: BRANCH   6  18
DOCKED: ATOM     18  C8  UNL     1      10.436  -3.416   0.538 +0.00 +0.00    +0.037 C  
DOCKED: BRANCH  18  19
DOCKED: ATOM     19  C9  UNL     1       8.908  -3.377   0.389 +0.00 +0.00    +0.074 C  
DOCKED: BRANCH  19  20
DOCKED: ATOM     20  C10 UNL     1       8.408  -3.620  -1.021 +0.00 +0.00    +0.341 C  
DOCKED: ATOM     21  F1  UNL     1       9.459  -3.693  -1.873 +0.00 -0.00    -0.209 F  
DOCKED: ATOM     22  F2  UNL     1       7.633  -2.585  -1.429 +0.00 -0.00    -0.209 F  
DOCKED: ENDBRANCH  19  20
DOCKED: ENDBRANCH  18  19
DOCKED: ENDBRANCH   6  18
DOCKED: ENDBRANCH   2   6
DOCKED: ENDBRANCH   1   4
DOCKED: BRANCH   1  23
DOCKED: ATOM     23  C13 UNL     1      15.126  -2.838  -1.735 +0.00 +0.00    +0.060 C  
DOCKED: BRANCH  23  24
DOCKED: ATOM     24  C14 UNL     1      13.940  -3.698  -2.094 +0.00 -0.00    -0.046 A  
DOCKED: ATOM     25  C15 UNL     1      13.620  -4.826  -1.328 +0.00 +0.00    +0.004 A  
DOCKED: ATOM     26  C16 UNL     1      12.509  -5.607  -1.651 +0.00 +0.00    +0.000 A  
DOCKED: ATOM     27  C17 UNL     1      11.714  -5.274  -2.743 +0.00 +0.00    +0.000 A  
DOCKED: ATOM     28  C18 UNL     1      12.027  -4.154  -3.515 +0.00 +0.00    +0.000 A  
DOCKED: ATOM     29  C19 UNL     1      13.134  -3.370  -3.195 +0.00 +0.00    +0.004 A  
DOCKED: ENDBRANCH  23  24
DOCKED: ENDBRANCH   1  23
DOCKED: BRANCH   1  30
DOCKED: ATOM     30  C20 UNL     1      15.255  -0.288  -1.359 +0.00 +0.00    +0.136 C  
DOCKED: BRANCH  30  31
DOCKED: ATOM     31  O4  UNL     1      14.164   0.308  -2.066 +0.00 -0.00    -0.390 OA 
DOCKED: ATOM     32  H29 UNL     1      13.419   0.435  -1.454 +0.00 +0.00    +0.210 HD 
DOCKED: ENDBRANCH  30  31
DOCKED: BRANCH  30  33
DOCKED: ATOM     33  C21 UNL     1      15.758   0.624  -0.218 +0.00 +0.00    +0.046 C  
DOCKED: BRANCH  33  34
DOCKED: ATOM     34  C22 UNL     1      14.690   1.403   0.579 +0.00 +0.00    +0.078 C  
DOCKED: BRANCH  34  35
DOCKED: ATOM     35  C26 UNL     1      14.470   2.778  -0.061 +0.00 +0.00    +0.217 C  
DOCKED: ATOM     36  O5  UNL     1      15.135   3.754   0.277 +0.00 -0.00    -0.275 OA 
DOCKED: ATOM     37  N3  UNL     1      13.413   2.886  -0.930 +0.00 -0.00    -0.304 N  
DOCKED: ATOM     38  H38 UNL     1      13.032   2.064  -1.394 +0.00 +0.00    +0.149 HD 
DOCKED: BRANCH  37  39
DOCKED: ATOM     39  C27 UNL     1      13.033   4.164  -1.545 +0.00 +0.00    +0.161 C  
DOCKED: BRANCH  39  40
DOCKED: ATOM     40  C28 UNL     1      11.584   4.429  -1.079 +0.00 +0.00    +0.234 C  
DOCKED: ATOM     41  O6  UNL     1      11.190   5.570  -0.827 +0.00 -0.00    -0.274 OA 
DOCKED: ATOM     42  N4  UNL     1      10.794   3.315  -0.943 +0.00 -0.00    -0.310 N  
DOCKED: ATOM     43  H40 UNL     1      11.155   2.403  -1.200 +0.00 +0.00    +0.149 HD 
DOCKED: BRANCH  42  44
DOCKED: ATOM     44  C29 UNL     1       9.438   3.382  -0.445 +0.00 +0.00    +0.139 C  
DOCKED: BRANCH  44  45
DOCKED: ATOM     45  C30 UNL     1       9.037   2.065   0.161 +0.00 -0.00    -0.027 A  
DOCKED: ATOM     46  C31 UNL     1       9.513   1.670   1.414 +0.00 +0.00    +0.025 A  
DOCKED: ATOM     47  C32 UNL     1       9.096   0.451   1.924 +0.00 +0.00    +0.111 A  
DOCKED: ATOM     48  N5  UNL     1       8.247  -0.384   1.284 +0.00 -0.00    -0.263 NA 
DOCKED: ATOM     49  C33 UNL     1       7.804   0.012   0.072 +0.00 +0.00    +0.111 A  
DOCKED: ATOM     50  C34 UNL     1       8.171   1.206  -0.525 +0.00 +0.00    +0.025 A  
DOCKED: ENDBRANCH  44  45
DOCKED: ENDBRANCH  42  44
DOCKED: ENDBRANCH  39  40
DOCKED: BRANCH  39  51
DOCKED: ATOM     51  C35 UNL     1      13.189   4.156  -3.086 +0.00 +0.00    +0.012 C  
DOCKED: ATOM     52  C36 UNL     1      11.841   4.125  -3.812 +0.00 +0.00    +0.009 C  
DOCKED: ATOM     53  C37 UNL     1      14.083   3.019  -3.594 +0.00 +0.00    +0.009 C  
DOCKED: ENDBRANCH  39  51
DOCKED: ENDBRANCH  37  39
DOCKED: ENDBRANCH  34  35
DOCKED: BRANCH  34  54
DOCKED: ATOM     54  C23 UNL     1      14.907   1.434   2.102 +0.00 +0.00    +0.018 C  
DOCKED: BRANCH  54  55
DOCKED: ATOM     55  C24 UNL     1      14.062   0.453   2.931 +0.00 +0.00    +0.073 C  
DOCKED: BRANCH  55  56
DOCKED: ATOM     56  C25 UNL     1      12.589   0.810   3.024 +0.00 +0.00    +0.341 C  
DOCKED: ATOM     57  F3  UNL     1      12.303   1.829   2.174 +0.00 -0.00    -0.209 F  
DOCKED: ATOM     58  F4  UNL     1      11.822  -0.243   2.657 +0.00 -0.00    -0.209 F  
DOCKED: ENDBRANCH  55  56
DOCKED: ENDBRANCH  54  55
DOCKED: ENDBRANCH  34  54
DOCKED: ENDBRANCH  33  34
DOCKED: ENDBRANCH  30  33
DOCKED: ENDBRANCH   1  30
DOCKED: TORSDOF 25
DOCKED: TER
DOCKED: ENDMDL
________________________________________________________________________________


    FINAL DOCKED STATE:
    ________________________


Run:   18 / 20
Time taken for this run:   2.906s

DOCKED: MODEL        18
DOCKED: USER    Run = 18
DOCKED: USER
DOCKED: USER    Estimated Free Energy of Binding    =  +7.46 kcal/mol  [=(1)+(2)+(3)-(4)]
DOCKED: USER
DOCKED: USER    (1) Final Intermolecular Energy     =  +0.00 kcal/mol
DOCKED: USER        vdW + Hbond + desolv Energy     =  +0.00 kcal/mol
DOCKED: USER        Electrostatic Energy            =  +0.00 kcal/mol
DOCKED: USER        Moving Ligand-Fixed Receptor    =  +0.00 kcal/mol
DOCKED: USER        Moving Ligand-Moving Receptor   =  +0.00 kcal/mol
DOCKED: USER    (2) Final Total Internal Energy     = -14.90 kcal/mol
DOCKED: USER    (3) Torsional Free Energy           =  +7.46 kcal/mol
DOCKED: USER    (4) Unbound System's Energy         = -14.90 kcal/mol
DOCKED: USER
DOCKED: USER
DOCKED: REMARK  Name = ligands/ligand_14.pdb
DOCKED: REMARK  29 active torsions:
DOCKED: REMARK  status: ('A' for Active; 'I' for Inactive)
DOCKED: REMARK    1  A    between atoms: C1_1  and  C2_2
DOCKED: REMARK    2  A    between atoms: C2_2  and  C3_3
DOCKED: REMARK    3  A    between atoms: C3_3  and  C4_4
DOCKED: REMARK    4  A    between atoms: C3_3  and  C5_5
DOCKED: REMARK    5  A    between atoms: C5_5  and  O1_6
DOCKED: REMARK    6  A    between atoms: C5_5  and  C6_7
DOCKED: REMARK    7  A    between atoms: N1_9  and  C7_10
DOCKED: REMARK    8  A    between atoms: C7_10  and  C8_11
DOCKED: REMARK    9  A    between atoms: C7_10  and  C11_16
DOCKED: REMARK   10  A    between atoms: C8_11  and  C9_12
DOCKED: REMARK   11  A    between atoms: C9_12  and  C10_13
DOCKED: REMARK   12  A    between atoms: N2_18  and  C12_19
DOCKED: REMARK   13  A    between atoms: C12_19  and  C13_20
DOCKED: REMARK   14  A    between atoms: C12_19  and  C20_27
DOCKED: REMARK   15  A    between atoms: C13_20  and  C14_21
DOCKED: REMARK   16  A    between atoms: C20_27  and  O4_28
DOCKED: REMARK   17  A    between atoms: C20_27  and  C21_29
DOCKED: REMARK   18  A    between atoms: C21_29  and  C22_30
DOCKED: REMARK   19  A    between atoms: C22_30  and  C23_31
DOCKED: REMARK   20  A    between atoms: C22_30  and  C26_36
DOCKED: REMARK   21  A    between atoms: C23_31  and  C24_32
DOCKED: REMARK   22  A    between atoms: C24_32  and  C25_33
DOCKED: REMARK   23  A    between atoms: N3_38  and  C27_39
DOCKED: REMARK   24  A    between atoms: C27_39  and  C28_40
DOCKED: REMARK   25  A    between atoms: C27_39  and  C35_50
DOCKED: REMARK   26  A    between atoms: N4_42  and  C29_43
DOCKED: REMARK   27  A    between atoms: C29_43  and  C30_44
DOCKED: REMARK   28  A    between atoms: C35_50  and  C36_51
DOCKED: REMARK   29  A    between atoms: C35_50  and  C37_52
DOCKED: REMARK                            x       y       z     vdW  Elec       q    Type
DOCKED: REMARK                         _______ _______ _______ _____ _____    ______ ____
DOCKED: USER                              x       y       z     vdW  Elec       q    Type
DOCKED: USER                           _______ _______ _______ _____ _____    ______ ____
DOCKED: ROOT
DOCKED: ATOM      1  C12 UNL     1       7.798   2.931   1.965 +0.00 +0.00    +0.106 C  
DOCKED: ENDROOT
DOCKED: BRANCH   1   4
DOCKED: ATOM      2  C11 UNL     1       6.781   3.670  -0.199 +0.00 +0.00    +0.234 C  
DOCKED: ATOM      3  O3  UNL     1       7.865   3.934  -0.711 +0.00 -0.00    -0.274 OA 
DOCKED: ATOM      4  N2  UNL     1       6.657   3.188   1.082 +0.00 -0.00    -0.308 N  
DOCKED: ATOM      5  H19 UNL     1       5.725   3.161   1.506 +0.00 +0.00    +0.149 HD 
DOCKED: BRANCH   2   6
DOCKED: ATOM      6  C7  UNL     1       5.426   3.888  -0.909 +0.00 +0.00    +0.159 C  
DOCKED: BRANCH   6   9
DOCKED: ATOM      7  C6  UNL     1       4.195   2.349   0.598 +0.00 +0.00    +0.243 C  
DOCKED: ATOM      8  O2  UNL     1       4.869   1.375   0.276 +0.00 -0.00    -0.273 OA 
DOCKED: ATOM      9  N1  UNL     1       4.360   3.601   0.049 +0.00 -0.00    -0.302 N  
DOCKED: ATOM     10  H12 UNL     1       3.978   4.369   0.596 +0.00 +0.00    +0.150 HD 
DOCKED: BRANCH   7  11
DOCKED: ATOM     11  C5  UNL     1       3.081   2.279   1.656 +0.00 +0.00    +0.203 C  
DOCKED: BRANCH  11  12
DOCKED: ATOM     12  C3  UNL     1       2.957   3.600   2.443 +0.00 +0.00    +0.023 C  
DOCKED: ATOM     13  C4  UNL     1       1.796   4.451   1.917 +0.00 +0.00    +0.010 C  
DOCKED: BRANCH  12  15
DOCKED: ATOM     14  C1  UNL     1       4.160   3.120   4.685 +0.00 +0.00    +0.004 C  
DOCKED: ATOM     15  C2  UNL     1       2.842   3.382   3.969 +0.00 +0.00    +0.003 C  
DOCKED: ENDBRANCH  12  15
DOCKED: ENDBRANCH  11  12
DOCKED: BRANCH  11  16
DOCKED: ATOM     16  O1  UNL     1       3.394   1.212   2.560 +0.00 -0.00    -0.382 OA 
DOCKED: ATOM     17  H11 UNL     1       4.322   0.963   2.390 +0.00 +0.00    +0.210 HD 
DOCKED: ENDBRANCH  11  16
DOCKED: ENDBRANCH   7  11
DOCKED: ENDBRANCH   6   9
DOCKED: BRANCH   6  18
DOCKED: ATOM     18  C8  UNL     1       5.266   5.326  -1.424 +0.00 +0.00    +0.037 C  
DOCKED: BRANCH  18  19
DOCKED: ATOM     19  C9  UNL     1       3.899   5.675  -2.030 +0.00 +0.00    +0.074 C  
DOCKED: BRANCH  19  20
DOCKED: ATOM     20  C10 UNL     1       2.919   6.295  -1.053 +0.00 +0.00    +0.341 C  
DOCKED: ATOM     21  F1  UNL     1       3.450   6.290   0.194 +0.00 -0.00    -0.209 F  
DOCKED: ATOM     22  F2  UNL     1       1.778   5.564  -1.006 +0.00 -0.00    -0.209 F  
DOCKED: ENDBRANCH  19  20
DOCKED: ENDBRANCH  18  19
DOCKED: ENDBRANCH   6  18
DOCKED: ENDBRANCH   2   6
DOCKED: ENDBRANCH   1   4
DOCKED: BRANCH   1  23
DOCKED: ATOM     23  C13 UNL     1       8.042   4.169   2.857 +0.00 +0.00    +0.060 C  
DOCKED: BRANCH  23  24
DOCKED: ATOM     24  C14 UNL     1       7.134   5.330   2.541 +0.00 -0.00    -0.046 A  
DOCKED: ATOM     25  C15 UNL     1       7.536   6.324   1.639 +0.00 +0.00    +0.004 A  
DOCKED: ATOM     26  C16 UNL     1       6.684   7.386   1.332 +0.00 +0.00    +0.000 A  
DOCKED: ATOM     27  C17 UNL     1       5.428   7.469   1.926 +0.00 +0.00    +0.000 A  
DOCKED: ATOM     28  C18 UNL     1       5.020   6.486   2.829 +0.00 +0.00    +0.000 A  
DOCKED: ATOM     29  C19 UNL     1       5.867   5.423   3.137 +0.00 +0.00    +0.004 A  
DOCKED: ENDBRANCH  23  24
DOCKED: ENDBRANCH   1  23
DOCKED: BRANCH   1  30
DOCKED: ATOM     30  C20 UNL     1       7.535   1.639   2.791 +0.00 +0.00    +0.136 C  
DOCKED: BRANCH  30  31
DOCKED: ATOM     31  O4  UNL     1       6.119   1.468   2.905 +0.00 -0.00    -0.390 OA 
DOCKED: ATOM     32  H29 UNL     1       5.738   1.367   2.017 +0.00 +0.00    +0.210 HD 
DOCKED: ENDBRANCH  30  31
DOCKED: BRANCH  30  33
DOCKED: ATOM     33  C21 UNL     1       8.203   0.415   2.125 +0.00 +0.00    +0.046 C  
DOCKED: BRANCH  33  34
DOCKED: ATOM     34  C22 UNL     1       7.439  -0.251   0.960 +0.00 +0.00    +0.078 C  
DOCKED: BRANCH  34  35
DOCKED: ATOM     35  C26 UNL     1       6.554  -1.378   1.501 +0.00 +0.00    +0.217 C  
DOCKED: ATOM     36  O5  UNL     1       6.977  -2.526   1.613 +0.00 -0.00    -0.275 OA 
DOCKED: ATOM     37  N3  UNL     1       5.237  -1.065   1.730 +0.00 -0.00    -0.304 N  
DOCKED: ATOM     38  H38 UNL     1       4.948  -0.101   1.881 +0.00 +0.00    +0.149 HD 
DOCKED: BRANCH  37  39
DOCKED: ATOM     39  C27 UNL     1       4.257  -2.069   2.163 +0.00 +0.00    +0.161 C  
DOCKED: BRANCH  39  40
DOCKED: ATOM     40  C28 UNL     1       3.166  -2.075   1.071 +0.00 +0.00    +0.234 C  
DOCKED: ATOM     41  O6  UNL     1       2.583  -3.115   0.752 +0.00 -0.00    -0.274 OA 
DOCKED: ATOM     42  N4  UNL     1       2.920  -0.864   0.475 +0.00 -0.00    -0.310 N  
DOCKED: ATOM     43  H40 UNL     1       3.399  -0.032   0.799 +0.00 +0.00    +0.149 HD 
DOCKED: BRANCH  42  44
DOCKED: ATOM     44  C29 UNL     1       1.983  -0.713  -0.617 +0.00 +0.00    +0.139 C  
DOCKED: BRANCH  44  45
DOCKED: ATOM     45  C30 UNL     1       2.312   0.514  -1.423 +0.00 -0.00    -0.027 A  
DOCKED: ATOM     46  C31 UNL     1       3.391   0.529  -2.311 +0.00 +0.00    +0.025 A  
DOCKED: ATOM     47  C32 UNL     1       3.633   1.686  -3.035 +0.00 +0.00    +0.111 A  
DOCKED: ATOM     48  N5  UNL     1       2.883   2.807  -2.940 +0.00 -0.00    -0.263 NA 
DOCKED: ATOM     49  C33 UNL     1       1.850   2.775  -2.072 +0.00 +0.00    +0.111 A  
DOCKED: ATOM     50  C34 UNL     1       1.534   1.671  -1.298 +0.00 +0.00    +0.025 A  
DOCKED: ENDBRANCH  44  45
DOCKED: ENDBRANCH  42  44
DOCKED: ENDBRANCH  39  40
DOCKED: BRANCH  39  51
DOCKED: ATOM     51  C35 UNL     1       3.703  -1.791   3.582 +0.00 +0.00    +0.012 C  
DOCKED: ATOM     52  C36 UNL     1       2.248  -1.311   3.559 +0.00 +0.00    +0.009 C  
DOCKED: ATOM     53  C37 UNL     1       4.565  -0.809   4.384 +0.00 +0.00    +0.009 C  
DOCKED: ENDBRANCH  39  51
DOCKED: ENDBRANCH  37  39
DOCKED: ENDBRANCH  34  35
DOCKED: BRANCH  34  54
DOCKED: ATOM     54  C23 UNL     1       8.308  -0.644  -0.248 +0.00 +0.00    +0.018 C  
DOCKED: BRANCH  54  55
DOCKED: ATOM     55  C24 UNL     1       8.267   0.306  -1.456 +0.00 +0.00    +0.073 C  
DOCKED: BRANCH  55  56
DOCKED: ATOM     56  C25 UNL     1       6.963   0.280  -2.235 +0.00 +0.00    +0.341 C  
DOCKED: ATOM     57  F3  UNL     1       6.030  -0.436  -1.557 +0.00 -0.00    -0.209 F  
DOCKED: ATOM     58  F4  UNL     1       6.474   1.533  -2.383 +0.00 -0.00    -0.209 F  
DOCKED: ENDBRANCH  55  56
DOCKED: ENDBRANCH  54  55
DOCKED: ENDBRANCH  34  54
DOCKED: ENDBRANCH  33  34
DOCKED: ENDBRANCH  30  33
DOCKED: ENDBRANCH   1  30
DOCKED: TORSDOF 25
DOCKED: TER
DOCKED: ENDMDL
________________________________________________________________________________


    FINAL DOCKED STATE:
    ________________________


Run:   19 / 20
Time taken for this run:   2.906s

DOCKED: MODEL        19
DOCKED: USER    Run = 19
DOCKED: USER
DOCKED: USER    Estimated Free Energy of Binding    =  +7.46 kcal/mol  [=(1)+(2)+(3)-(4)]
DOCKED: USER
DOCKED: USER    (1) Final Intermolecular Energy     =  +0.00 kcal/mol
DOCKED: USER        vdW + Hbond + desolv Energy     =  +0.00 kcal/mol
DOCKED: USER        Electrostatic Energy            =  +0.00 kcal/mol
DOCKED: USER        Moving Ligand-Fixed Receptor    =  +0.00 kcal/mol
DOCKED: USER        Moving Ligand-Moving Receptor   =  +0.00 kcal/mol
DOCKED: USER    (2) Final Total Internal Energy     = -14.85 kcal/mol
DOCKED: USER    (3) Torsional Free Energy           =  +7.46 kcal/mol
DOCKED: USER    (4) Unbound System's Energy         = -14.85 kcal/mol
DOCKED: USER
DOCKED: USER
DOCKED: REMARK  Name = ligands/ligand_14.pdb
DOCKED: REMARK  29 active torsions:
DOCKED: REMARK  status: ('A' for Active; 'I' for Inactive)
DOCKED: REMARK    1  A    between atoms: C1_1  and  C2_2
DOCKED: REMARK    2  A    between atoms: C2_2  and  C3_3
DOCKED: REMARK    3  A    between atoms: C3_3  and  C4_4
DOCKED: REMARK    4  A    between atoms: C3_3  and  C5_5
DOCKED: REMARK    5  A    between atoms: C5_5  and  O1_6
DOCKED: REMARK    6  A    between atoms: C5_5  and  C6_7
DOCKED: REMARK    7  A    between atoms: N1_9  and  C7_10
DOCKED: REMARK    8  A    between atoms: C7_10  and  C8_11
DOCKED: REMARK    9  A    between atoms: C7_10  and  C11_16
DOCKED: REMARK   10  A    between atoms: C8_11  and  C9_12
DOCKED: REMARK   11  A    between atoms: C9_12  and  C10_13
DOCKED: REMARK   12  A    between atoms: N2_18  and  C12_19
DOCKED: REMARK   13  A    between atoms: C12_19  and  C13_20
DOCKED: REMARK   14  A    between atoms: C12_19  and  C20_27
DOCKED: REMARK   15  A    between atoms: C13_20  and  C14_21
DOCKED: REMARK   16  A    between atoms: C20_27  and  O4_28
DOCKED: REMARK   17  A    between atoms: C20_27  and  C21_29
DOCKED: REMARK   18  A    between atoms: C21_29  and  C22_30
DOCKED: REMARK   19  A    between atoms: C22_30  and  C23_31
DOCKED: REMARK   20  A    between atoms: C22_30  and  C26_36
DOCKED: REMARK   21  A    between atoms: C23_31  and  C24_32
DOCKED: REMARK   22  A    between atoms: C24_32  and  C25_33
DOCKED: REMARK   23  A    between atoms: N3_38  and  C27_39
DOCKED: REMARK   24  A    between atoms: C27_39  and  C28_40
DOCKED: REMARK   25  A    between atoms: C27_39  and  C35_50
DOCKED: REMARK   26  A    between atoms: N4_42  and  C29_43
DOCKED: REMARK   27  A    between atoms: C29_43  and  C30_44
DOCKED: REMARK   28  A    between atoms: C35_50  and  C36_51
DOCKED: REMARK   29  A    between atoms: C35_50  and  C37_52
DOCKED: REMARK                            x       y       z     vdW  Elec       q    Type
DOCKED: REMARK                         _______ _______ _______ _____ _____    ______ ____
DOCKED: USER                              x       y       z     vdW  Elec       q    Type
DOCKED: USER                           _______ _______ _______ _____ _____    ______ ____
DOCKED: ROOT
DOCKED: ATOM      1  C12 UNL     1       8.276   1.949  -4.302 +0.00 +0.00    +0.106 C  
DOCKED: ENDROOT
DOCKED: BRANCH   1   4
DOCKED: ATOM      2  C11 UNL     1       9.627   0.591  -5.913 +0.00 +0.00    +0.234 C  
DOCKED: ATOM      3  O3  UNL     1      10.292   1.552  -6.289 +0.00 -0.00    -0.274 OA 
DOCKED: ATOM      4  N2  UNL     1       8.636   0.694  -4.965 +0.00 -0.00    -0.308 N  
DOCKED: ATOM      5  H19 UNL     1       8.006  -0.102  -4.831 +0.00 +0.00    +0.149 HD 
DOCKED: BRANCH   2   6
DOCKED: ATOM      6  C7  UNL     1       9.788  -0.835  -6.486 +0.00 +0.00    +0.159 C  
DOCKED: BRANCH   6   9
DOCKED: ATOM      7  C6  UNL     1       8.641  -1.920  -4.570 +0.00 +0.00    +0.243 C  
DOCKED: ATOM      8  O2  UNL     1       9.472  -1.529  -3.756 +0.00 -0.00    -0.273 OA 
DOCKED: ATOM      9  N1  UNL     1       8.729  -1.672  -5.922 +0.00 -0.00    -0.302 N  
DOCKED: ATOM     10  H12 UNL     1       7.858  -1.767  -6.439 +0.00 +0.00    +0.150 HD 
DOCKED: BRANCH   7  11
DOCKED: ATOM     11  C5  UNL     1       7.403  -2.740  -4.172 +0.00 +0.00    +0.203 C  
DOCKED: BRANCH  11  12
DOCKED: ATOM     12  C3  UNL     1       6.192  -2.420  -5.072 +0.00 +0.00    +0.023 C  
DOCKED: ATOM     13  C4  UNL     1       6.013  -3.487  -6.158 +0.00 +0.00    +0.010 C  
DOCKED: BRANCH  12  15
DOCKED: ATOM     14  C1  UNL     1       4.746  -0.856  -3.600 +0.00 +0.00    +0.004 C  
DOCKED: ATOM     15  C2  UNL     1       4.885  -2.215  -4.272 +0.00 +0.00    +0.003 C  
DOCKED: ENDBRANCH  12  15
DOCKED: ENDBRANCH  11  12
DOCKED: BRANCH  11  16
DOCKED: ATOM     16  O1  UNL     1       7.082  -2.425  -2.810 +0.00 -0.00    -0.382 OA 
DOCKED: ATOM     17  H11 UNL     1       7.599  -1.630  -2.577 +0.00 +0.00    +0.210 HD 
DOCKED: ENDBRANCH  11  16
DOCKED: ENDBRANCH   7  11
DOCKED: ENDBRANCH   6   9
DOCKED: BRANCH   6  18
DOCKED: ATOM     18  C8  UNL     1       9.687  -0.860  -8.017 +0.00 +0.00    +0.037 C  
DOCKED: BRANCH  18  19
DOCKED: ATOM     19  C9  UNL     1       9.681  -2.250  -8.669 +0.00 +0.00    +0.074 C  
DOCKED: BRANCH  19  20
DOCKED: ATOM     20  C10 UNL     1       8.300  -2.826  -8.908 +0.00 +0.00    +0.341 C  
DOCKED: ATOM     21  F1  UNL     1       7.361  -1.992  -8.396 +0.00 -0.00    -0.209 F  
DOCKED: ATOM     22  F2  UNL     1       8.170  -4.015  -8.268 +0.00 -0.00    -0.209 F  
DOCKED: ENDBRANCH  19  20
DOCKED: ENDBRANCH  18  19
DOCKED: ENDBRANCH   6  18
DOCKED: ENDBRANCH   2   6
DOCKED: ENDBRANCH   1   4
DOCKED: BRANCH   1  23
DOCKED: ATOM     23  C13 UNL     1       7.113   2.616  -5.069 +0.00 +0.00    +0.060 C  
DOCKED: BRANCH  23  24
DOCKED: ATOM     24  C14 UNL     1       6.676   1.850  -6.292 +0.00 -0.00    -0.046 A  
DOCKED: ATOM     25  C15 UNL     1       5.717   0.833  -6.192 +0.00 +0.00    +0.004 A  
DOCKED: ATOM     26  C16 UNL     1       5.299   0.141  -7.329 +0.00 +0.00    +0.000 A  
DOCKED: ATOM     27  C17 UNL     1       5.839   0.453  -8.574 +0.00 +0.00    +0.000 A  
DOCKED: ATOM     28  C18 UNL     1       6.797   1.461  -8.684 +0.00 +0.00    +0.000 A  
DOCKED: ATOM     29  C19 UNL     1       7.216   2.156  -7.550 +0.00 +0.00    +0.004 A  
DOCKED: ENDBRANCH  23  24
DOCKED: ENDBRANCH   1  23
DOCKED: BRANCH   1  30
DOCKED: ATOM     30  C20 UNL     1       7.929   1.668  -2.811 +0.00 +0.00    +0.136 C  
DOCKED: BRANCH  30  31
DOCKED: ATOM     31  O4  UNL     1       7.466   0.318  -2.712 +0.00 -0.00    -0.390 OA 
DOCKED: ATOM     32  H29 UNL     1       8.168  -0.282  -3.016 +0.00 +0.00    +0.210 HD 
DOCKED: ENDBRANCH  30  31
DOCKED: BRANCH  30  33
DOCKED: ATOM     33  C21 UNL     1       9.156   1.916  -1.906 +0.00 +0.00    +0.046 C  
DOCKED: BRANCH  33  34
DOCKED: ATOM     34  C22 UNL     1      10.221   0.799  -1.850 +0.00 +0.00    +0.078 C  
DOCKED: BRANCH  34  35
DOCKED: ATOM     35  C26 UNL     1       9.931  -0.132  -0.668 +0.00 +0.00    +0.217 C  
DOCKED: ATOM     36  O5  UNL     1      10.426   0.066   0.439 +0.00 -0.00    -0.275 OA 
DOCKED: ATOM     37  N3  UNL     1       9.199  -1.260  -0.944 +0.00 -0.00    -0.304 N  
DOCKED: ATOM     38  H38 UNL     1       8.593  -1.302  -1.761 +0.00 +0.00    +0.149 HD 
DOCKED: BRANCH  37  39
DOCKED: ATOM     39  C27 UNL     1       8.923  -2.282   0.073 +0.00 +0.00    +0.161 C  
DOCKED: BRANCH  39  40
DOCKED: ATOM     40  C28 UNL     1       9.611  -3.567  -0.440 +0.00 +0.00    +0.234 C  
DOCKED: ATOM     41  O6  UNL     1      10.189  -4.337   0.330 +0.00 -0.00    -0.274 OA 
DOCKED: ATOM     42  N4  UNL     1       9.553  -3.766  -1.797 +0.00 -0.00    -0.310 N  
DOCKED: ATOM     43  H40 UNL     1       9.033  -3.123  -2.383 +0.00 +0.00    +0.149 HD 
DOCKED: BRANCH  42  44
DOCKED: ATOM     44  C29 UNL     1      10.210  -4.879  -2.446 +0.00 +0.00    +0.139 C  
DOCKED: BRANCH  44  45
DOCKED: ATOM     45  C30 UNL     1      10.585  -4.515  -3.857 +0.00 -0.00    -0.027 A  
DOCKED: ATOM     46  C31 UNL     1      11.678  -3.688  -4.126 +0.00 +0.00    +0.025 A  
DOCKED: ATOM     47  C32 UNL     1      11.979  -3.402  -5.448 +0.00 +0.00    +0.111 A  
DOCKED: ATOM     48  N5  UNL     1      11.281  -3.880  -6.502 +0.00 -0.00    -0.263 NA 
DOCKED: ATOM     49  C33 UNL     1      10.224  -4.671  -6.222 +0.00 +0.00    +0.111 A  
DOCKED: ATOM     50  C34 UNL     1       9.838  -5.007  -4.935 +0.00 +0.00    +0.025 A  
DOCKED: ENDBRANCH  44  45
DOCKED: ENDBRANCH  42  44
DOCKED: ENDBRANCH  39  40
DOCKED: BRANCH  39  51
DOCKED: ATOM     51  C35 UNL     1       7.410  -2.464   0.344 +0.00 +0.00    +0.012 C  
DOCKED: ATOM     52  C36 UNL     1       6.864  -3.775  -0.231 +0.00 +0.00    +0.009 C  
DOCKED: ATOM     53  C37 UNL     1       6.564  -1.285  -0.150 +0.00 +0.00    +0.009 C  
DOCKED: ENDBRANCH  39  51
DOCKED: ENDBRANCH  37  39
DOCKED: ENDBRANCH  34  35
DOCKED: BRANCH  34  54
DOCKED: ATOM     54  C23 UNL     1      11.679   1.286  -1.938 +0.00 +0.00    +0.018 C  
DOCKED: BRANCH  54  55
DOCKED: ATOM     55  C24 UNL     1      12.360   1.153  -3.310 +0.00 +0.00    +0.073 C  
DOCKED: BRANCH  55  56
DOCKED: ATOM     56  C25 UNL     1      12.724  -0.270  -3.699 +0.00 +0.00    +0.341 C  
DOCKED: ATOM     57  F3  UNL     1      12.121  -1.150  -2.860 +0.00 -0.00    -0.209 F  
DOCKED: ATOM     58  F4  UNL     1      12.285  -0.545  -4.950 +0.00 -0.00    -0.209 F  
DOCKED: ENDBRANCH  55  56
DOCKED: ENDBRANCH  54  55
DOCKED: ENDBRANCH  34  54
DOCKED: ENDBRANCH  33  34
DOCKED: ENDBRANCH  30  33
DOCKED: ENDBRANCH   1  30
DOCKED: TORSDOF 25
DOCKED: TER
DOCKED: ENDMDL
________________________________________________________________________________


    FINAL DOCKED STATE:
    ________________________


Run:   20 / 20
Time taken for this run:   2.906s

DOCKED: MODEL        20
DOCKED: USER    Run = 20
DOCKED: USER
DOCKED: USER    Estimated Free Energy of Binding    =  +7.46 kcal/mol  [=(1)+(2)+(3)-(4)]
DOCKED: USER
DOCKED: USER    (1) Final Intermolecular Energy     =  +0.00 kcal/mol
DOCKED: USER        vdW + Hbond + desolv Energy     =  +0.00 kcal/mol
DOCKED: USER        Electrostatic Energy            =  +0.00 kcal/mol
DOCKED: USER        Moving Ligand-Fixed Receptor    =  +0.00 kcal/mol
DOCKED: USER        Moving Ligand-Moving Receptor   =  +0.00 kcal/mol
DOCKED: USER    (2) Final Total Internal Energy     = -14.57 kcal/mol
DOCKED: USER    (3) Torsional Free Energy           =  +7.46 kcal/mol
DOCKED: USER    (4) Unbound System's Energy         = -14.57 kcal/mol
DOCKED: USER
DOCKED: USER
DOCKED: REMARK  Name = ligands/ligand_14.pdb
DOCKED: REMARK  29 active torsions:
DOCKED: REMARK  status: ('A' for Active; 'I' for Inactive)
DOCKED: REMARK    1  A    between atoms: C1_1  and  C2_2
DOCKED: REMARK    2  A    between atoms: C2_2  and  C3_3
DOCKED: REMARK    3  A    between atoms: C3_3  and  C4_4
DOCKED: REMARK    4  A    between atoms: C3_3  and  C5_5
DOCKED: REMARK    5  A    between atoms: C5_5  and  O1_6
DOCKED: REMARK    6  A    between atoms: C5_5  and  C6_7
DOCKED: REMARK    7  A    between atoms: N1_9  and  C7_10
DOCKED: REMARK    8  A    between atoms: C7_10  and  C8_11
DOCKED: REMARK    9  A    between atoms: C7_10  and  C11_16
DOCKED: REMARK   10  A    between atoms: C8_11  and  C9_12
DOCKED: REMARK   11  A    between atoms: C9_12  and  C10_13
DOCKED: REMARK   12  A    between atoms: N2_18  and  C12_19
DOCKED: REMARK   13  A    between atoms: C12_19  and  C13_20
DOCKED: REMARK   14  A    between atoms: C12_19  and  C20_27
DOCKED: REMARK   15  A    between atoms: C13_20  and  C14_21
DOCKED: REMARK   16  A    between atoms: C20_27  and  O4_28
DOCKED: REMARK   17  A    between atoms: C20_27  and  C21_29
DOCKED: REMARK   18  A    between atoms: C21_29  and  C22_30
DOCKED: REMARK   19  A    between atoms: C22_30  and  C23_31
DOCKED: REMARK   20  A    between atoms: C22_30  and  C26_36
DOCKED: REMARK   21  A    between atoms: C23_31  and  C24_32
DOCKED: REMARK   22  A    between atoms: C24_32  and  C25_33
DOCKED: REMARK   23  A    between atoms: N3_38  and  C27_39
DOCKED: REMARK   24  A    between atoms: C27_39  and  C28_40
DOCKED: REMARK   25  A    between atoms: C27_39  and  C35_50
DOCKED: REMARK   26  A    between atoms: N4_42  and  C29_43
DOCKED: REMARK   27  A    between atoms: C29_43  and  C30_44
DOCKED: REMARK   28  A    between atoms: C35_50  and  C36_51
DOCKED: REMARK   29  A    between atoms: C35_50  and  C37_52
DOCKED: REMARK                            x       y       z     vdW  Elec       q    Type
DOCKED: REMARK                         _______ _______ _______ _____ _____    ______ ____
DOCKED: USER                              x       y       z     vdW  Elec       q    Type
DOCKED: USER                           _______ _______ _______ _____ _____    ______ ____
DOCKED: ROOT
DOCKED: ATOM      1  C12 UNL     1      12.067  -3.254  -6.971 +0.00 +0.00    +0.106 C  
DOCKED: ENDROOT
DOCKED: BRANCH   1   4
DOCKED: ATOM      2  C11 UNL     1      12.503  -2.082  -9.139 +0.00 +0.00    +0.234 C  
DOCKED: ATOM      3  O3  UNL     1      13.716  -2.261  -9.084 +0.00 -0.00    -0.274 OA 
DOCKED: ATOM      4  N2  UNL     1      11.638  -2.522  -8.165 +0.00 -0.00    -0.308 N  
DOCKED: ATOM      5  H19 UNL     1      10.672  -2.185  -8.182 +0.00 +0.00    +0.149 HD 
DOCKED: BRANCH   2   6
DOCKED: ATOM      6  C7  UNL     1      11.805  -1.305 -10.278 +0.00 +0.00    +0.159 C  
DOCKED: BRANCH   6   9
DOCKED: ATOM      7  C6  UNL     1       9.564  -2.259  -9.805 +0.00 +0.00    +0.243 C  
DOCKED: ATOM      8  O2  UNL     1       9.921  -3.409 -10.041 +0.00 -0.00    -0.273 OA 
DOCKED: ATOM      9  N1  UNL     1      10.391  -1.166  -9.932 +0.00 -0.00    -0.302 N  
DOCKED: ATOM     10  H12 UNL     1      10.094  -0.335  -9.426 +0.00 +0.00    +0.150 HD 
DOCKED: BRANCH   7  11
DOCKED: ATOM     11  C5  UNL     1       8.141  -1.907  -9.340 +0.00 +0.00    +0.203 C  
DOCKED: BRANCH  11  12
DOCKED: ATOM     12  C3  UNL     1       8.112  -0.591  -8.536 +0.00 +0.00    +0.023 C  
DOCKED: ATOM     13  C4  UNL     1       7.588   0.568  -9.389 +0.00 +0.00    +0.010 C  
DOCKED: BRANCH  12  15
DOCKED: ATOM     14  C1  UNL     1       6.726   0.591  -6.696 +0.00 +0.00    +0.004 C  
DOCKED: ATOM     15  C2  UNL     1       7.320  -0.712  -7.213 +0.00 +0.00    +0.003 C  
DOCKED: ENDBRANCH  12  15
DOCKED: ENDBRANCH  11  12
DOCKED: BRANCH  11  16
DOCKED: ATOM     16  O1  UNL     1       7.664  -2.980  -8.518 +0.00 -0.00    -0.382 OA 
DOCKED: ATOM     17  H11 UNL     1       8.289  -3.721  -8.634 +0.00 +0.00    +0.210 HD 
DOCKED: ENDBRANCH  11  16
DOCKED: ENDBRANCH   7  11
DOCKED: ENDBRANCH   6   9
DOCKED: BRANCH   6  18
DOCKED: ATOM     18  C8  UNL     1      12.412   0.090 -10.485 +0.00 +0.00    +0.037 C  
DOCKED: BRANCH  18  19
DOCKED: ATOM     19  C9  UNL     1      12.011   1.158  -9.458 +0.00 +0.00    +0.074 C  
DOCKED: BRANCH  19  20
DOCKED: ATOM     20  C10 UNL     1      10.890   2.074  -9.909 +0.00 +0.00    +0.341 C  
DOCKED: ATOM     21  F1  UNL     1      10.018   2.266  -8.889 +0.00 -0.00    -0.209 F  
DOCKED: ATOM     22  F2  UNL     1      10.198   1.503 -10.926 +0.00 -0.00    -0.209 F  
DOCKED: ENDBRANCH  19  20
DOCKED: ENDBRANCH  18  19
DOCKED: ENDBRANCH   6  18
DOCKED: ENDBRANCH   2   6
DOCKED: ENDBRANCH   1   4
DOCKED: BRANCH   1  23
DOCKED: ATOM     23  C13 UNL     1      12.653  -2.258  -5.944 +0.00 +0.00    +0.060 C  
DOCKED: BRANCH  23  24
DOCKED: ATOM     24  C14 UNL     1      12.034  -0.885  -6.013 +0.00 -0.00    -0.046 A  
DOCKED: ATOM     25  C15 UNL     1      10.644  -0.725  -5.940 +0.00 +0.00    +0.004 A  
DOCKED: ATOM     26  C16 UNL     1      10.076   0.549  -5.982 +0.00 +0.00    +0.000 A  
DOCKED: ATOM     27  C17 UNL     1      10.889   1.673  -6.103 +0.00 +0.00    +0.000 A  
DOCKED: ATOM     28  C18 UNL     1      12.274   1.524  -6.180 +0.00 +0.00    +0.000 A  
DOCKED: ATOM     29  C19 UNL     1      12.845   0.253  -6.137 +0.00 +0.00    +0.004 A  
DOCKED: ENDBRANCH  23  24
DOCKED: ENDBRANCH   1  23
DOCKED: BRANCH   1  30
DOCKED: ATOM     30  C20 UNL     1      10.870  -4.067  -6.401 +0.00 +0.00    +0.136 C  
DOCKED: BRANCH  30  31
DOCKED: ATOM     31  O4  UNL     1       9.668  -3.544  -6.974 +0.00 -0.00    -0.390 OA 
DOCKED: ATOM     32  H29 UNL     1       9.622  -3.805  -7.910 +0.00 +0.00    +0.210 HD 
DOCKED: ENDBRANCH  30  31
DOCKED: BRANCH  30  33
DOCKED: ATOM     33  C21 UNL     1      11.035  -5.573  -6.704 +0.00 +0.00    +0.046 C  
DOCKED: BRANCH  33  34
DOCKED: ATOM     34  C22 UNL     1      10.634  -6.051  -8.116 +0.00 +0.00    +0.078 C  
DOCKED: BRANCH  34  35
DOCKED: ATOM     35  C26 UNL     1       9.106  -6.095  -8.232 +0.00 +0.00    +0.217 C  
DOCKED: ATOM     36  O5  UNL     1       8.500  -5.335  -8.983 +0.00 -0.00    -0.275 OA 
DOCKED: ATOM     37  N3  UNL     1       8.452  -6.932  -7.363 +0.00 -0.00    -0.304 N  
DOCKED: ATOM     38  H38 UNL     1       8.933  -7.720  -6.935 +0.00 +0.00    +0.149 HD 
DOCKED: BRANCH  37  39
DOCKED: ATOM     39  C27 UNL     1       6.986  -7.007  -7.303 +0.00 +0.00    +0.161 C  
DOCKED: BRANCH  39  40
DOCKED: ATOM     40  C28 UNL     1       6.567  -5.979  -6.229 +0.00 +0.00    +0.234 C  
DOCKED: ATOM     41  O6  UNL     1       5.792  -6.282  -5.319 +0.00 -0.00    -0.274 OA 
DOCKED: ATOM     42  N4  UNL     1       7.092  -4.720  -6.380 +0.00 -0.00    -0.310 N  
DOCKED: ATOM     43  H40 UNL     1       7.755  -4.532  -7.123 +0.00 +0.00    +0.149 HD 
DOCKED: BRANCH  42  44
DOCKED: ATOM     44  C29 UNL     1       6.740  -3.623  -5.504 +0.00 +0.00    +0.139 C  
DOCKED: BRANCH  44  45
DOCKED: ATOM     45  C30 UNL     1       7.857  -3.351  -4.533 +0.00 -0.00    -0.027 A  
DOCKED: ATOM     46  C31 UNL     1       8.653  -4.386  -4.036 +0.00 +0.00    +0.025 A  
DOCKED: ATOM     47  C32 UNL     1       9.675  -4.068  -3.155 +0.00 +0.00    +0.111 A  
DOCKED: ATOM     48  N5  UNL     1       9.955  -2.810  -2.747 +0.00 -0.00    -0.263 NA 
DOCKED: ATOM     49  C33 UNL     1       9.170  -1.825  -3.232 +0.00 +0.00    +0.111 A  
DOCKED: ATOM     50  C34 UNL     1       8.121  -2.043  -4.108 +0.00 +0.00    +0.025 A  
DOCKED: ENDBRANCH  44  45
DOCKED: ENDBRANCH  42  44
DOCKED: ENDBRANCH  39  40
DOCKED: BRANCH  39  51
DOCKED: ATOM     51  C35 UNL     1       6.472  -8.438  -7.015 +0.00 +0.00    +0.012 C  
DOCKED: ATOM     52  C36 UNL     1       7.163  -9.079  -5.807 +0.00 +0.00    +0.009 C  
DOCKED: ATOM     53  C37 UNL     1       6.573  -9.370  -8.228 +0.00 +0.00    +0.009 C  
DOCKED: ENDBRANCH  39  51
DOCKED: ENDBRANCH  37  39
DOCKED: ENDBRANCH  34  35
DOCKED: BRANCH  34  54
DOCKED: ATOM     54  C23 UNL     1      11.348  -7.327  -8.600 +0.00 +0.00    +0.018 C  
DOCKED: BRANCH  54  55
DOCKED: ATOM     55  C24 UNL     1      12.213  -7.186  -9.863 +0.00 +0.00    +0.073 C  
DOCKED: BRANCH  55  56
DOCKED: ATOM     56  C25 UNL     1      12.987  -5.883  -9.956 +0.00 +0.00    +0.341 C  
DOCKED: ATOM     57  F3  UNL     1      12.173  -4.888 -10.389 +0.00 -0.00    -0.209 F  
DOCKED: ATOM     58  F4  UNL     1      13.450  -5.519  -8.737 +0.00 -0.00    -0.209 F  
DOCKED: ENDBRANCH  55  56
DOCKED: ENDBRANCH  54  55
DOCKED: ENDBRANCH  34  54
DOCKED: ENDBRANCH  33  34
DOCKED: ENDBRANCH  30  33
DOCKED: ENDBRANCH   1  30
DOCKED: TORSDOF 25
DOCKED: TER
DOCKED: ENDMDL
________________________________________________________________________________


    CLUSTERING HISTOGRAM
    ____________________


________________________________________________________________________________
     |           |     |           |     |
Clus | Lowest    | Run | Mean      | Num | Histogram
-ter | Binding   |     | Binding   | in  |
Rank | Energy    |     | Energy    | Clus|    5    10   15   20   25   30   35
_____|___________|_____|___________|_____|____:____|____:____|____:____|____:___
   1 |     +7.46 |   1 |     +7.46 |   1 |#
   2 |     +7.46 |   2 |     +7.46 |   1 |#
   3 |     +7.46 |   3 |     +7.46 |   1 |#
   4 |     +7.46 |   4 |     +7.46 |   1 |#
   5 |     +7.46 |   5 |     +7.46 |   1 |#
   6 |     +7.46 |   6 |     +7.46 |   1 |#
   7 |     +7.46 |   7 |     +7.46 |   1 |#
   8 |     +7.46 |   8 |     +7.46 |   1 |#
   9 |     +7.46 |   9 |     +7.46 |   1 |#
  10 |     +7.46 |  10 |     +7.46 |   1 |#
  11 |     +7.46 |  11 |     +7.46 |   1 |#
  12 |     +7.46 |  12 |     +7.46 |   1 |#
  13 |     +7.46 |  13 |     +7.46 |   1 |#
  14 |     +7.46 |  14 |     +7.46 |   1 |#
  15 |     +7.46 |  15 |     +7.46 |   1 |#
  16 |     +7.46 |  16 |     +7.46 |   1 |#
  17 |     +7.46 |  17 |     +7.46 |   1 |#
  18 |     +7.46 |  18 |     +7.46 |   1 |#
  19 |     +7.46 |  19 |     +7.46 |   1 |#
  20 |     +7.46 |  20 |     +7.46 |   1 |#
_____|___________|_____|___________|_____|______________________________________


    RMSD TABLE
    __________


_______________________________________________________________________
     |      |      |           |         |                 |
Rank | Sub- | Run  | Binding   | Cluster | Reference       | Grep
     | Rank |      | Energy    | RMSD    | RMSD            | Pattern
_____|______|______|___________|_________|_________________|___________
   1      1      1       +7.46      0.00      4.72           RANKING
   2      1      2       +7.46      0.00      8.72           RANKING
   3      1      3       +7.46      0.00      9.61           RANKING
   4      1      4       +7.46      0.00     13.99           RANKING
   5      1      5       +7.46      0.00      6.70           RANKING
   6      1      6       +7.46      0.00      9.13           RANKING
   7      1      7       +7.46      0.00      9.83           RANKING
   8      1      8       +7.46      0.00     10.18           RANKING
   9      1      9       +7.46      0.00     10.61           RANKING
  10      1     10       +7.46      0.00     12.96           RANKING
  11      1     11       +7.46      0.00      6.65           RANKING
  12      1     12       +7.46      0.00      9.03           RANKING
  13      1     13       +7.46      0.00      6.53           RANKING
  14      1     14       +7.46      0.00     11.81           RANKING
  15      1     15       +7.46      0.00      7.40           RANKING
  16      1     16       +7.46      0.00      8.48           RANKING
  17      1     17       +7.46      0.00      8.78           RANKING
  18      1     18       +7.46      0.00      5.38           RANKING
  19      1     19       +7.46      0.00      7.36           RANKING
  20      1     20       +7.46      0.00     10.28           RANKING

Run time 58.579 sec
Idle time 0.281 sec
