REMARK  Name = ligands/ligand_0.pdb
REMARK  40 active torsions:
REMARK  status: ('A' for Active; 'I' for Inactive)
REMARK    1  A    between atoms: C1_1  and  C2_2
REMARK    2  A    between atoms: C2_2  and  C3_3
REMARK    3  A    between atoms: C2_2  and  C4_4
REMARK    4  A    between atoms: C4_4  and  C5_5
REMARK    5  A    between atoms: C5_5  and  N1_6
REMARK    6  A    between atoms: C5_5  and  C20_31
REMARK    7  A    between atoms: C6_7  and  C7_9
REMARK    8  A    between atoms: C7_9  and  C8_10
REMARK    9  A    between atoms: C7_9  and  N3_14
REMARK   10  A    between atoms: C8_10  and  C9_11
REMARK   11  A    between atoms: C10_15  and  C11_17
REMARK   12  A    between atoms: C11_17  and  N4_18
REMARK   13  A    between atoms: C11_17  and  C17_28
REMARK   14  A    between atoms: C12_19  and  C13_21
REMARK   15  A    between atoms: C13_21  and  N5_22
REMARK   16  A    between atoms: C13_21  and  C14_23
REMARK   17  A    between atoms: C14_23  and  C15_24
REMARK   18  A    between atoms: C15_24  and  C16_25
REMARK   19  A    between atoms: C16_25  and  O6_27
REMARK   20  A    between atoms: C17_28  and  C18_29
REMARK   21  A    between atoms: C17_28  and  C19_30
REMARK   22  A    between atoms: C20_31  and  O7_32
REMARK   23  A    between atoms: C20_31  and  C21_33
REMARK   24  A    between atoms: C21_33  and  C22_34
REMARK   25  A    between atoms: C22_34  and  C23_35
REMARK   26  A    between atoms: C22_34  and  C24_36
REMARK   27  A    between atoms: N6_38  and  C25_39
REMARK   28  A    between atoms: C25_39  and  C26_40
REMARK   29  A    between atoms: C25_39  and  C27_41
REMARK   30  A    between atoms: N7_43  and  C28_44
REMARK   31  A    between atoms: C28_44  and  C29_45
REMARK   32  A    between atoms: C28_44  and  C32_50
REMARK   33  A    between atoms: C29_45  and  C30_46
REMARK   34  A    between atoms: C30_46  and  C31_47
REMARK   35  A    between atoms: C31_47  and  O11_49
REMARK   36  A    between atoms: N8_52  and  C33_53
REMARK   37  A    between atoms: C33_53  and  C34_54
REMARK   38  A    between atoms: C33_53  and  C41_61
REMARK   39  A    between atoms: C34_54  and  C35_55
REMARK   40  A    between atoms: C41_61  and  O14_63
REMARK                            x       y       z     vdW  Elec       q    Type
REMARK                         _______ _______ _______ _____ _____    ______ ____
ROOT
ATOM      1  C20 UNL     1       4.231  -1.282   2.759  0.00  0.00    +0.135 C 
ENDROOT
BRANCH   1   2
ATOM      2  O7  UNL     1       4.242  -0.002   3.384  0.00  0.00    -0.390 OA
ATOM      3  H36 UNL     1       4.379   0.681   2.693  0.00  0.00    +0.210 HD
ENDBRANCH   1   2
BRANCH   1   4
ATOM      4  C21 UNL     1       2.785  -1.806   2.653  0.00  0.00    +0.045 C 
BRANCH   4   5
ATOM      5  C22 UNL     1       1.820  -1.034   1.731  0.00  0.00    +0.074 C 
ATOM      6  C23 UNL     1       1.633  -1.778   0.401  0.00  0.00    +0.017 C 
BRANCH   5   7
ATOM      7  C24 UNL     1       0.440  -0.876   2.379  0.00  0.00    +0.217 C 
ATOM      8  O8  UNL     1       0.082  -1.489   3.380  0.00  0.00    -0.276 OA
ATOM      9  N6  UNL     1      -0.405  -0.009   1.711  0.00  0.00    -0.304 N 
ATOM     10  H43 UNL     1      -0.163   0.200   0.745  0.00  0.00    +0.149 HD
BRANCH   9  11
ATOM     11  C25 UNL     1      -1.821  -0.014   2.063  0.00  0.00    +0.156 C 
ATOM     12  C26 UNL     1      -2.496   1.276   1.616  0.00  0.00    +0.038 C 
BRANCH  11  13
ATOM     13  C27 UNL     1      -2.510  -1.228   1.399  0.00  0.00    +0.234 C 
ATOM     14  O9  UNL     1      -2.043  -1.807   0.414  0.00  0.00    -0.274 OA
ATOM     15  N7  UNL     1      -3.710  -1.587   1.972  0.00  0.00    -0.302 N 
ATOM     16  H48 UNL     1      -4.170  -0.925   2.590  0.00  0.00    +0.150 HD
BRANCH  15  17
ATOM     17  C28 UNL     1      -4.578  -2.585   1.355  0.00  0.00    +0.159 C 
BRANCH  17  18
ATOM     18  C32 UNL     1      -5.763  -1.830   0.720  0.00  0.00    +0.234 C 
ATOM     19  O12 UNL     1      -6.283  -0.855   1.254  0.00  0.00    -0.274 OA
ATOM     20  N8  UNL     1      -6.245  -2.423  -0.428  0.00  0.00    -0.301 N 
ATOM     21  H55 UNL     1      -5.527  -2.862  -0.993  0.00  0.00    +0.150 HD
BRANCH  20  22
ATOM     22  C33 UNL     1      -7.303  -1.762  -1.199  0.00  0.00    +0.186 C 
BRANCH  22  23
ATOM     23  C41 UNL     1      -8.600  -1.725  -0.384  0.00  0.00    +0.326 C 
ATOM     24  O13 UNL     1      -8.980  -2.541   0.444  0.00  0.00    -0.249 OA
BRANCH  23  25
ATOM     25  O14 UNL     1      -9.388  -0.674  -0.703  0.00  0.00    -0.479 OA
ATOM     26  H64 UNL     1     -10.138  -0.757  -0.077  0.00  0.00    +0.295 HD
ENDBRANCH  23  25
ENDBRANCH  22  23
BRANCH  22  27
ATOM     27  C34 UNL     1      -7.622  -2.519  -2.500  0.00  0.00    +0.069 C 
BRANCH  27  28
ATOM     28  C35 UNL     1      -6.437  -2.680  -3.423  0.00  0.00    -0.045 A 
ATOM     29  C36 UNL     1      -5.746  -3.900  -3.481  0.00  0.00    +0.004 A 
ATOM     30  C37 UNL     1      -4.633  -4.045  -4.311  0.00  0.00    +0.000 A 
ATOM     31  C38 UNL     1      -4.204  -2.976  -5.094  0.00  0.00    +0.000 A 
ATOM     32  C39 UNL     1      -4.887  -1.761  -5.049  0.00  0.00    +0.000 A 
ATOM     33  C40 UNL     1      -5.996  -1.612  -4.214  0.00  0.00    +0.004 A 
ENDBRANCH  27  28
ENDBRANCH  22  27
ENDBRANCH  20  22
ENDBRANCH  17  18
BRANCH  17  34
ATOM     34  C29 UNL     1      -5.081  -3.570   2.420  0.00  0.00    +0.043 C 
BRANCH  34  35
ATOM     35  C30 UNL     1      -5.858  -4.762   1.857  0.00  0.00    +0.123 C 
BRANCH  35  36
ATOM     36  C31 UNL     1      -5.068  -5.590   0.881  0.00  0.00    +0.305 C 
ATOM     37  O10 UNL     1      -5.478  -6.024  -0.186  0.00  0.00    -0.251 OA
BRANCH  36  38
ATOM     38  O11 UNL     1      -3.832  -5.886   1.312  0.00  0.00    -0.481 OA
ATOM     39  H54 UNL     1      -3.448  -6.452   0.610  0.00  0.00    +0.295 HD
ENDBRANCH  36  38
ENDBRANCH  35  36
ENDBRANCH  34  35
ENDBRANCH  17  34
ENDBRANCH  15  17
ENDBRANCH  11  13
ENDBRANCH   9  11
ENDBRANCH   5   7
ENDBRANCH   4   5
ENDBRANCH   1   4
BRANCH   1  40
ATOM     40  C5  UNL     1       5.113  -1.372   1.482  0.00  0.00    +0.102 C 
BRANCH  40  41
ATOM     41  N1  UNL     1       4.652  -0.562   0.341  0.00  0.00    -0.308 N 
ATOM     42  C6  UNL     1       4.558   0.812   0.313  0.00  0.00    +0.234 C 
ATOM     43  O1  UNL     1       4.758   1.518   1.298  0.00  0.00    -0.274 OA
ATOM     44  H11 UNL     1       4.513  -1.057  -0.536  0.00  0.00    +0.149 HD
BRANCH  42  45
ATOM     45  C7  UNL     1       4.277   1.402  -1.078  0.00  0.00    +0.168 C 
BRANCH  45  46
ATOM     46  N3  UNL     1       3.511   2.639  -0.933  0.00  0.00    -0.302 N 
ATOM     47  C10 UNL     1       2.137   2.604  -0.831  0.00  0.00    +0.234 C 
ATOM     48  O3  UNL     1       1.492   1.551  -0.797  0.00  0.00    -0.274 OA
ATOM     49  H17 UNL     1       3.985   3.441  -0.535  0.00  0.00    +0.150 HD
BRANCH  47  50
ATOM     50  C11 UNL     1       1.454   3.991  -0.770  0.00  0.00    +0.161 C 
BRANCH  50  51
ATOM     51  N4  UNL     1       0.091   3.816  -1.270  0.00  0.00    -0.302 N 
ATOM     52  C12 UNL     1      -0.119   3.780  -2.637  0.00  0.00    +0.230 C 
ATOM     53  O4  UNL     1       0.677   4.252  -3.446  0.00  0.00    -0.274 OA
ATOM     54  H19 UNL     1      -0.481   3.191  -0.718  0.00  0.00    +0.150 HD
BRANCH  52  55
ATOM     55  C13 UNL     1      -1.447   3.103  -3.075  0.00  0.00    +0.138 C 
BRANCH  55  56
ATOM     56  N5  UNL     1      -1.630   3.267  -4.533  0.00  0.00    -0.320 NA
ATOM     57  H21 UNL     1      -1.427   4.246  -4.756  0.00  0.00    +0.119 HD
ATOM     58  H22 UNL     1      -0.861   2.774  -4.998  0.00  0.00    +0.119 HD
ENDBRANCH  55  56
BRANCH  55  59
ATOM     59  C14 UNL     1      -1.430   1.617  -2.699  0.00  0.00    +0.039 C 
BRANCH  59  60
ATOM     60  C15 UNL     1      -2.688   0.852  -3.112  0.00  0.00    +0.122 C 
BRANCH  60  61
ATOM     61  C16 UNL     1      -2.925  -0.297  -2.172  0.00  0.00    +0.305 C 
ATOM     62  O5  UNL     1      -3.954  -0.500  -1.546  0.00  0.00    -0.251 OA
BRANCH  61  63
ATOM     63  O6  UNL     1      -1.843  -1.085  -2.033  0.00  0.00    -0.481 OA
ATOM     64  H27 UNL     1      -2.016  -1.638  -1.229  0.00  0.00    +0.295 HD
ENDBRANCH  61  63
ENDBRANCH  60  61
ENDBRANCH  59  60
ENDBRANCH  55  59
ENDBRANCH  52  55
ENDBRANCH  50  51
BRANCH  50  65
ATOM     65  C17 UNL     1       1.512   4.591   0.650  0.00  0.00    +0.012 C 
ATOM     66  C18 UNL     1       1.045   6.050   0.637  0.00  0.00    +0.009 C 
ATOM     67  C19 UNL     1       0.703   3.801   1.683  0.00  0.00    +0.009 C 
ENDBRANCH  50  65
ENDBRANCH  47  50
ENDBRANCH  45  46
BRANCH  45  68
ATOM     68  C8  UNL     1       5.629   1.652  -1.757  0.00  0.00    +0.127 C 
BRANCH  68  69
ATOM     69  C9  UNL     1       5.664   1.137  -3.176  0.00  0.00    +0.213 C 
ATOM     70  N2  UNL     1       6.847   1.354  -3.821  0.00  0.00    -0.329 N 
ATOM     71  O2  UNL     1       4.739   0.564  -3.739  0.00  0.00    -0.276 OA
ATOM     72  H15 UNL     1       6.922   1.048  -4.783  0.00  0.00    +0.145 HD
ATOM     73  H16 UNL     1       7.641   1.817  -3.399  0.00  0.00    +0.145 HD
ENDBRANCH  68  69
ENDBRANCH  45  68
ENDBRANCH  42  45
ENDBRANCH  40  41
BRANCH  40  74
ATOM     74  C4  UNL     1       6.614  -1.068   1.724  0.00  0.00    +0.028 C 
BRANCH  74  76
ATOM     75  C1  UNL     1       7.429  -1.774   4.059  0.00  0.00    +0.007 C 
ATOM     76  C2  UNL     1       7.457  -2.062   2.557  0.00  0.00    -0.015 C 
ATOM     77  C3  UNL     1       7.141  -3.529   2.276  0.00  0.00    +0.007 C 
ENDBRANCH  74  76
ENDBRANCH  40  74
ENDBRANCH   1  40
TORSDOF 34
