REMARK  Name = ligands/ligand_48.pdb
REMARK  94 active torsions:
REMARK  status: ('A' for Active; 'I' for Inactive)
REMARK    1  A    between atoms: C1_1  and  C2_2
REMARK    2  A    between atoms: C2_2  and  C3_3
REMARK    3  A    between atoms: C3_3  and  C4_4
REMARK    4  A    between atoms: C3_3  and  C5_5
REMARK    5  A    between atoms: C5_5  and  N1_6
REMARK    6  A    between atoms: C5_5  and  C40_64
REMARK    7  A    between atoms: C6_7  and  C7_9
REMARK    8  A    between atoms: C7_9  and  C8_10
REMARK    9  A    between atoms: C7_9  and  N2_15
REMARK   10  A    between atoms: C8_10  and  C9_11
REMARK   11  A    between atoms: C9_11  and  C10_12
REMARK   12  A    between atoms: C10_12  and  O3_14
REMARK   13  A    between atoms: C11_16  and  C12_18
REMARK   14  A    between atoms: C12_18  and  C13_19
REMARK   15  A    between atoms: C12_18  and  N3_24
REMARK   16  A    between atoms: C13_19  and  C14_20
REMARK   17  A    between atoms: C14_20  and  C15_21
REMARK   18  A    between atoms: C15_21  and  O6_23
REMARK   19  A    between atoms: C16_25  and  C17_27
REMARK   20  A    between atoms: C17_27  and  N4_28
REMARK   21  A    between atoms: C17_27  and  C38_61
REMARK   22  A    between atoms: C18_29  and  C19_31
REMARK   23  A    between atoms: C19_31  and  C20_32
REMARK   24  A    between atoms: C19_31  and  N6_37
REMARK   25  A    between atoms: C20_32  and  C21_33
REMARK   26  A    between atoms: C21_33  and  C22_34
REMARK   27  A    between atoms: C22_34  and  C23_35
REMARK   28  A    between atoms: C23_35  and  N5_36
REMARK   29  A    between atoms: C24_38  and  C25_40
REMARK   30  A    between atoms: C25_40  and  N7_41
REMARK   31  A    between atoms: C25_40  and  C34_57
REMARK   32  A    between atoms: C26_42  and  C27_44
REMARK   33  A    between atoms: C27_44  and  C28_45
REMARK   34  A    between atoms: C27_44  and  N9_49
REMARK   35  A    between atoms: C28_45  and  C29_46
REMARK   36  A    between atoms: C30_50  and  C31_52
REMARK   37  A    between atoms: C31_52  and  N10_53
REMARK   38  A    between atoms: C31_52  and  C32_54
REMARK   39  A    between atoms: C32_54  and  C33_55
REMARK   40  A    between atoms: C32_54  and  O13_56
REMARK   41  A    between atoms: C34_57  and  C35_58
REMARK   42  A    between atoms: C34_57  and  C36_59
REMARK   43  A    between atoms: C36_59  and  C37_60
REMARK   44  A    between atoms: C38_61  and  C39_62
REMARK   45  A    between atoms: C38_61  and  O14_63
REMARK   46  A    between atoms: N11_66  and  C41_67
REMARK   47  A    between atoms: C41_67  and  C42_68
REMARK   48  A    between atoms: C41_67  and  C43_70
REMARK   49  A    between atoms: C42_68  and  O16_69
REMARK   50  A    between atoms: N12_72  and  C44_73
REMARK   51  A    between atoms: C44_73  and  C45_74
REMARK   52  A    between atoms: C44_73  and  C48_79
REMARK   53  A    between atoms: C45_74  and  C46_75
REMARK   54  A    between atoms: C46_75  and  C47_76
REMARK   55  A    between atoms: C47_76  and  O19_78
REMARK   56  A    between atoms: N13_81  and  C49_82
REMARK   57  A    between atoms: C49_82  and  C50_83
REMARK   58  A    between atoms: C49_82  and  C86_145
REMARK   59  A    between atoms: N14_85  and  C51_86
REMARK   60  A    between atoms: C51_86  and  C52_87
REMARK   61  A    between atoms: C51_86  and  C54_91
REMARK   62  A    between atoms: C52_87  and  C53_88
REMARK   63  A    between atoms: N16_93  and  C55_94
REMARK   64  A    between atoms: C55_94  and  C56_95
REMARK   65  A    between atoms: C55_94  and  C84_142
REMARK   66  A    between atoms: N17_97  and  C57_98
REMARK   67  A    between atoms: C57_98  and  C58_99
REMARK   68  A    between atoms: C57_98  and  C60_103
REMARK   69  A    between atoms: C58_99  and  C59_100
REMARK   70  A    between atoms: C59_100  and  O26_102
REMARK   71  A    between atoms: N18_105  and  C61_106
REMARK   72  A    between atoms: C61_106  and  C62_107
REMARK   73  A    between atoms: C61_106  and  C63_108
REMARK   74  A    between atoms: N19_110  and  C64_111
REMARK   75  A    between atoms: C64_111  and  C65_112
REMARK   76  A    between atoms: C64_111  and  C68_117
REMARK   77  A    between atoms: C65_112  and  C66_113
REMARK   78  A    between atoms: C66_113  and  C67_114
REMARK   79  A    between atoms: C67_114  and  O30_116
REMARK   80  A    between atoms: N20_119  and  C69_120
REMARK   81  A    between atoms: C69_120  and  C70_121
REMARK   82  A    between atoms: C69_120  and  C77_128
REMARK   83  A    between atoms: C70_121  and  C71_122
REMARK   84  A    between atoms: N21_130  and  C78_131
REMARK   85  A    between atoms: C78_131  and  C79_132
REMARK   86  A    between atoms: C78_131  and  C83_139
REMARK   87  A    between atoms: C79_132  and  C80_133
REMARK   88  A    between atoms: C80_133  and  C81_134
REMARK   89  A    between atoms: C81_134  and  N22_135
REMARK   90  A    between atoms: C83_139  and  O34_141
REMARK   91  A    between atoms: C84_142  and  C85_143
REMARK   92  A    between atoms: C84_142  and  O35_144
REMARK   93  A    between atoms: C86_145  and  C87_146
REMARK   94  A    between atoms: C86_145  and  C88_147
REMARK                            x       y       z     vdW  Elec       q    Type
REMARK                         _______ _______ _______ _____ _____    ______ ____
ROOT
ATOM      1  C44 UNL     1      -0.705   0.965  -5.615  0.00  0.00    +0.159 C 
ENDROOT
BRANCH   1   2
ATOM      2  C48 UNL     1      -1.278   2.317  -5.115  0.00  0.00    +0.234 C 
ATOM      3  O20 UNL     1      -0.682   3.047  -4.326  0.00  0.00    -0.274 OA
ATOM      4  N13 UNL     1      -2.433   2.697  -5.775  0.00  0.00    -0.302 N 
ATOM      5  H82 UNL     1      -2.929   1.924  -6.204  0.00  0.00    +0.150 HD
BRANCH   4   6
ATOM      6  C49 UNL     1      -3.285   3.763  -5.252  0.00  0.00    +0.161 C 
BRANCH   6   7
ATOM      7  C50 UNL     1      -4.360   3.045  -4.427  0.00  0.00    +0.234 C 
ATOM      8  O21 UNL     1      -4.895   2.003  -4.816  0.00  0.00    -0.274 OA
ATOM      9  N14 UNL     1      -4.757   3.679  -3.280  0.00  0.00    -0.302 N 
ATOM     10  H84 UNL     1      -4.233   4.473  -2.937  0.00  0.00    +0.150 HD
BRANCH   9  11
ATOM     11  C51 UNL     1      -5.948   3.244  -2.549  0.00  0.00    +0.168 C 
BRANCH  11  12
ATOM     12  C54 UNL     1      -6.516   4.454  -1.798  0.00  0.00    +0.234 C 
ATOM     13  O23 UNL     1      -7.662   4.853  -2.000  0.00  0.00    -0.274 OA
ATOM     14  N16 UNL     1      -5.668   5.011  -0.880  0.00  0.00    -0.300 N 
ATOM     15  H90 UNL     1      -4.744   4.606  -0.706  0.00  0.00    +0.150 HD
BRANCH  14  16
ATOM     16  C55 UNL     1      -6.079   6.141  -0.040  0.00  0.00    +0.187 C 
BRANCH  16  17
ATOM     17  C56 UNL     1      -4.767   6.880   0.318  0.00  0.00    +0.236 C 
ATOM     18  O24 UNL     1      -4.420   7.919  -0.233  0.00  0.00    -0.274 OA
ATOM     19  N17 UNL     1      -3.992   6.197   1.234  0.00  0.00    -0.302 N 
ATOM     20  H92 UNL     1      -4.352   5.288   1.533  0.00  0.00    +0.150 HD
BRANCH  19  21
ATOM     21  C57 UNL     1      -2.544   6.390   1.332  0.00  0.00    +0.169 C 
BRANCH  21  22
ATOM     22  C60 UNL     1      -1.903   5.369   0.345  0.00  0.00    +0.234 C 
ATOM     23  O27 UNL     1      -2.585   4.581  -0.323  0.00  0.00    -0.274 OA
ATOM     24  N18 UNL     1      -0.527   5.387   0.294  0.00  0.00    -0.303 N 
ATOM     25  H97 UNL     1      -0.005   6.110   0.796  0.00  0.00    +0.149 HD
BRANCH  24  26
ATOM     26  C61 UNL     1       0.277   4.387  -0.392  0.00  0.00    +0.156 C 
ATOM     27  C62 UNL     1       0.650   4.848  -1.796  0.00  0.00    +0.038 C 
BRANCH  26  28
ATOM     28  C63 UNL     1       1.554   4.095   0.443  0.00  0.00    +0.234 C 
ATOM     29  O28 UNL     1       1.960   4.836   1.333  0.00  0.00    -0.274 OA
ATOM     30  N19 UNL     1       2.205   2.931   0.095  0.00  0.00    -0.302 N 
ATOM     31  HA2 UNL     1       1.864   2.393  -0.704  0.00  0.00    +0.150 HD
BRANCH  30  32
ATOM     32  C64 UNL     1       3.425   2.436   0.737  0.00  0.00    +0.159 C 
BRANCH  32  33
ATOM     33  C68 UNL     1       3.163   1.961   2.184  0.00  0.00    +0.234 C 
ATOM     34  O31 UNL     1       3.115   0.761   2.459  0.00  0.00    -0.274 OA
ATOM     35  N20 UNL     1       2.978   2.929   3.147  0.00  0.00    -0.302 N 
ATOM     36  HA9 UNL     1       2.774   3.887   2.839  0.00  0.00    +0.150 HD
BRANCH  35  37
ATOM     37  C69 UNL     1       2.628   2.561   4.524  0.00  0.00    +0.163 C 
BRANCH  37  38
ATOM     38  C77 UNL     1       1.795   3.666   5.232  0.00  0.00    +0.234 C 
ATOM     39  O32 UNL     1       1.717   4.824   4.824  0.00  0.00    -0.274 OA
ATOM     40  N21 UNL     1       1.111   3.213   6.348  0.00  0.00    -0.301 N 
ATOM     41  HB8 UNL     1       1.441   2.369   6.794  0.00  0.00    +0.150 HD
BRANCH  40  42
ATOM     42  C78 UNL     1       0.256   4.088   7.146  0.00  0.00    +0.182 C 
BRANCH  42  43
ATOM     43  C83 UNL     1       1.074   4.654   8.308  0.00  0.00    +0.325 C 
ATOM     44  O33 UNL     1       2.040   4.128   8.842  0.00  0.00    -0.249 OA
BRANCH  43  45
ATOM     45  O34 UNL     1       0.604   5.837   8.759  0.00  0.00    -0.479 OA
ATOM     46  HD0 UNL     1       1.228   6.086   9.471  0.00  0.00    +0.295 HD
ENDBRANCH  43  45
ENDBRANCH  42  43
BRANCH  42  47
ATOM     47  C79 UNL     1      -0.956   3.336   7.716  0.00  0.00    +0.035 C 
BRANCH  47  48
ATOM     48  C80 UNL     1      -1.736   2.498   6.701  0.00  0.00    +0.026 C 
BRANCH  48  49
ATOM     49  C81 UNL     1      -2.249   3.279   5.492  0.00  0.00    +0.145 C 
BRANCH  49  50
ATOM     50  N22 UNL     1      -2.770   2.319   4.526  0.00  0.00    -0.253 NA
ATOM     51  C82 UNL     1      -4.023   2.099   4.415  0.00  0.00    +0.188 C 
ATOM     52  N23 UNL     1      -5.076   2.664   5.048  0.00  0.00    -0.370 N 
ATOM     53  N24 UNL     1      -4.444   1.145   3.553  0.00  0.00    -0.370 N 
ATOM     54  HC6 UNL     1      -4.884   3.560   5.468  0.00  0.00    +0.159 HD
ATOM     55  HC7 UNL     1      -5.887   2.732   4.433  0.00  0.00    +0.159 HD
ATOM     56  HC8 UNL     1      -5.122   0.524   3.979  0.00  0.00    +0.159 HD
ATOM     57  HC9 UNL     1      -3.638   0.623   3.228  0.00  0.00    +0.159 HD
ENDBRANCH  49  50
ENDBRANCH  48  49
ENDBRANCH  47  48
ENDBRANCH  42  47
ENDBRANCH  40  42
ENDBRANCH  37  38
BRANCH  37  58
ATOM     58  C70 UNL     1       3.837   2.107   5.366  0.00  0.00    +0.067 C 
BRANCH  58  59
ATOM     59  C71 UNL     1       4.930   3.130   5.550  0.00  0.00    -0.045 A 
ATOM     60  C72 UNL     1       4.841   4.121   6.543  0.00  0.00    +0.004 A 
ATOM     61  C73 UNL     1       5.871   5.043   6.724  0.00  0.00    +0.000 A 
ATOM     62  C74 UNL     1       7.011   4.985   5.931  0.00  0.00    +0.000 A 
ATOM     63  C75 UNL     1       7.119   4.006   4.944  0.00  0.00    +0.000 A 
ATOM     64  C76 UNL     1       6.087   3.084   4.754  0.00  0.00    +0.004 A 
ENDBRANCH  58  59
ENDBRANCH  37  58
ENDBRANCH  35  37
ENDBRANCH  32  33
BRANCH  32  65
ATOM     65  C65 UNL     1       4.638   3.360   0.613  0.00  0.00    +0.043 C 
BRANCH  65  66
ATOM     66  C66 UNL     1       5.930   2.538   0.703  0.00  0.00    +0.123 C 
BRANCH  66  67
ATOM     67  C67 UNL     1       7.154   3.417   0.757  0.00  0.00    +0.305 C 
ATOM     68  O29 UNL     1       7.339   4.468   0.165  0.00  0.00    -0.251 OA
BRANCH  67  69
ATOM     69  O30 UNL     1       8.130   2.876   1.525  0.00  0.00    -0.481 OA
ATOM     70  HA8 UNL     1       8.864   3.517   1.461  0.00  0.00    +0.295 HD
ENDBRANCH  67  69
ENDBRANCH  66  67
ENDBRANCH  65  66
ENDBRANCH  32  65
ENDBRANCH  30  32
ENDBRANCH  26  28
ENDBRANCH  24  26
ENDBRANCH  21  22
BRANCH  21  71
ATOM     71  C58 UNL     1      -2.135   6.094   2.770  0.00  0.00    +0.152 C 
BRANCH  71  72
ATOM     72  C59 UNL     1      -0.753   6.590   3.093  0.00  0.00    +0.307 C 
ATOM     73  O25 UNL     1      -0.005   7.186   2.346  0.00  0.00    -0.251 OA
BRANCH  72  74
ATOM     74  O26 UNL     1      -0.397   6.226   4.342  0.00  0.00    -0.481 OA
ATOM     75  H96 UNL     1       0.598   6.184   4.368  0.00  0.00    +0.295 HD
ENDBRANCH  72  74
ENDBRANCH  71  72
ENDBRANCH  21  71
ENDBRANCH  19  21
ENDBRANCH  16  17
BRANCH  16  76
ATOM     76  C84 UNL     1      -6.839   5.723   1.238  0.00  0.00    +0.141 C 
ATOM     77  C85 UNL     1      -8.306   5.382   1.005  0.00  0.00    +0.040 C 
BRANCH  76  78
ATOM     78  O35 UNL     1      -6.190   4.605   1.874  0.00  0.00    -0.390 OA
ATOM     79  HD5 UNL     1      -6.456   3.791   1.378  0.00  0.00    +0.210 HD
ENDBRANCH  76  78
ENDBRANCH  16  76
ENDBRANCH  14  16
ENDBRANCH  11  12
BRANCH  11  80
ATOM     80  C52 UNL     1      -5.661   2.062  -1.635  0.00  0.00    +0.127 C 
BRANCH  80  81
ATOM     81  C53 UNL     1      -6.785   1.853  -0.654  0.00  0.00    +0.213 C 
ATOM     82  N15 UNL     1      -7.865   1.167  -1.124  0.00  0.00    -0.329 N 
ATOM     83  O22 UNL     1      -6.769   2.298   0.491  0.00  0.00    -0.276 OA
ATOM     84  H88 UNL     1      -8.017   0.999  -2.112  0.00  0.00    +0.145 HD
ATOM     85  H89 UNL     1      -8.675   1.116  -0.517  0.00  0.00    +0.145 HD
ENDBRANCH  80  81
ENDBRANCH  11  80
ENDBRANCH   9  11
ENDBRANCH   6   7
BRANCH   6  86
ATOM     86  C86 UNL     1      -3.975   4.521  -6.410  0.00  0.00    +0.012 C 
ATOM     87  C87 UNL     1      -2.948   5.122  -7.378  0.00  0.00    +0.009 C 
ATOM     88  C88 UNL     1      -4.909   5.630  -5.906  0.00  0.00    +0.009 C 
ENDBRANCH   6  86
ENDBRANCH   4   6
ENDBRANCH   1   2
BRANCH   1  91
ATOM     89  C43 UNL     1      -2.584  -0.403  -4.748  0.00  0.00    +0.236 C 
ATOM     90  O17 UNL     1      -2.429   0.075  -3.625  0.00  0.00    -0.274 OA
ATOM     91  N12 UNL     1      -1.834   0.029  -5.834  0.00  0.00    -0.302 N 
ATOM     92  H75 UNL     1      -1.738  -0.642  -6.591  0.00  0.00    +0.150 HD
BRANCH  89  93
ATOM     93  C41 UNL     1      -3.672  -1.451  -5.073  0.00  0.00    +0.184 C 
BRANCH  93  96
ATOM     94  C40 UNL     1      -3.610  -3.031  -3.170  0.00  0.00    +0.234 C 
ATOM     95  O15 UNL     1      -2.704  -3.675  -3.695  0.00  0.00    -0.274 OA
ATOM     96  N11 UNL     1      -4.215  -1.976  -3.818  0.00  0.00    -0.301 N 
ATOM     97  H70 UNL     1      -4.745  -1.316  -3.266  0.00  0.00    +0.150 HD
BRANCH  94  98
ATOM     98  C5  UNL     1      -4.240  -3.397  -1.787  0.00  0.00    +0.162 C 
BRANCH  98  99
ATOM     99  N1  UNL     1      -3.990  -4.823  -1.556  0.00  0.00    -0.302 N 
ATOM    100  C6  UNL     1      -2.782  -5.330  -1.112  0.00  0.00    +0.234 C 
ATOM    101  O1  UNL     1      -1.831  -4.635  -0.753  0.00  0.00    -0.274 OA
ATOM    102  H11 UNL     1      -4.550  -5.458  -2.107  0.00  0.00    +0.150 HD
BRANCH 100 103
ATOM    103  C7  UNL     1      -2.755  -6.873  -1.012  0.00  0.00    +0.159 C 
BRANCH 103 104
ATOM    104  N2  UNL     1      -1.391  -7.355  -0.880  0.00  0.00    -0.302 N 
ATOM    105  C11 UNL     1      -1.035  -8.672  -1.071  0.00  0.00    +0.234 C 
ATOM    106  O4  UNL     1      -1.873  -9.541  -1.318  0.00  0.00    -0.274 OA
ATOM    107  H18 UNL     1      -0.649  -6.647  -0.797  0.00  0.00    +0.150 HD
BRANCH 105 108
ATOM    108  C12 UNL     1       0.492  -8.947  -1.060  0.00  0.00    +0.159 C 
BRANCH 108 109
ATOM    109  N3  UNL     1       1.125  -8.500   0.180  0.00  0.00    -0.302 N 
ATOM    110  C16 UNL     1       1.480  -7.202   0.402  0.00  0.00    +0.236 C 
ATOM    111  O7  UNL     1       1.143  -6.299  -0.364  0.00  0.00    -0.274 OA
ATOM    112  H25 UNL     1       1.222  -9.153   0.961  0.00  0.00    +0.150 HD
BRANCH 110 113
ATOM    113  C17 UNL     1       2.375  -6.932   1.625  0.00  0.00    +0.187 C 
BRANCH 113 114
ATOM    114  N4  UNL     1       2.539  -5.483   1.664  0.00  0.00    -0.300 N 
ATOM    115  C18 UNL     1       3.769  -4.895   1.852  0.00  0.00    +0.234 C 
ATOM    116  O8  UNL     1       4.737  -5.503   2.312  0.00  0.00    -0.274 OA
ATOM    117  H27 UNL     1       1.919  -4.964   1.039  0.00  0.00    +0.150 HD
BRANCH 115 118
ATOM    118  C19 UNL     1       3.760  -3.370   1.606  0.00  0.00    +0.159 C 
BRANCH 118 119
ATOM    119  N6  UNL     1       3.000  -3.079   0.377  0.00  0.00    -0.302 N 
ATOM    120  C24 UNL     1       3.604  -3.134  -0.866  0.00  0.00    +0.234 C 
ATOM    121  O9  UNL     1       4.690  -3.671  -1.063  0.00  0.00    -0.274 OA
ATOM    122  H39 UNL     1       2.187  -2.475   0.463  0.00  0.00    +0.150 HD
BRANCH 120 123
ATOM    123  C25 UNL     1       2.765  -2.481  -2.000  0.00  0.00    +0.162 C 
BRANCH 123 124
ATOM    124  N7  UNL     1       3.651  -2.046  -3.062  0.00  0.00    -0.302 N 
ATOM    125  C26 UNL     1       4.480  -0.956  -2.894  0.00  0.00    +0.234 C 
ATOM    126  O10 UNL     1       4.439  -0.223  -1.914  0.00  0.00    -0.274 OA
ATOM    127  H41 UNL     1       3.962  -2.767  -3.726  0.00  0.00    +0.150 HD
BRANCH 125 128
ATOM    128  C27 UNL     1       5.519  -0.805  -4.025  0.00  0.00    +0.168 C 
BRANCH 128 129
ATOM    129  N9  UNL     1       5.977   0.580  -4.043  0.00  0.00    -0.302 N 
ATOM    130  C30 UNL     1       6.544   1.150  -5.159  0.00  0.00    +0.233 C 
ATOM    131  O12 UNL     1       6.496   0.624  -6.266  0.00  0.00    -0.274 OA
ATOM    132  H47 UNL     1       6.154   1.056  -3.162  0.00  0.00    +0.150 HD
BRANCH 130 133
ATOM    133  C31 UNL     1       7.212   2.511  -4.859  0.00  0.00    +0.166 C 
BRANCH 133 134
ATOM    134  N10 UNL     1       7.691   2.525  -3.441  0.00  0.00    -0.318 NA
ATOM    135  H49 UNL     1       8.559   1.977  -3.449  0.00  0.00    +0.119 HD
ATOM    136  H50 UNL     1       7.997   3.473  -3.219  0.00  0.00    +0.119 HD
ENDBRANCH 133 134
BRANCH 133 137
ATOM    137  C32 UNL     1       8.367   2.765  -5.860  0.00  0.00    +0.137 C 
ATOM    138  C33 UNL     1       8.839   4.209  -5.846  0.00  0.00    +0.040 C 
BRANCH 137 139
ATOM    139  O13 UNL     1       9.491   1.942  -5.497  0.00  0.00    -0.390 OA
ATOM    140  H55 UNL     1      10.140   2.024  -6.223  0.00  0.00    +0.210 HD
ENDBRANCH 137 139
ENDBRANCH 133 137
ENDBRANCH 130 133
ENDBRANCH 128 129
BRANCH 128 141
ATOM    141  C28 UNL     1       6.700  -1.745  -3.769  0.00  0.00    +0.127 C 
BRANCH 141 142
ATOM    142  C29 UNL     1       6.394  -3.161  -4.201  0.00  0.00    +0.213 C 
ATOM    143  N8  UNL     1       7.432  -4.038  -4.053  0.00  0.00    -0.329 N 
ATOM    144  O11 UNL     1       5.327  -3.547  -4.654  0.00  0.00    -0.276 OA
ATOM    145  H45 UNL     1       7.203  -5.011  -4.203  0.00  0.00    +0.145 HD
ATOM    146  H46 UNL     1       8.212  -3.829  -3.443  0.00  0.00    +0.145 HD
ENDBRANCH 141 142
ENDBRANCH 128 141
ENDBRANCH 125 128
ENDBRANCH 123 124
BRANCH 123 147
ATOM    147  C34 UNL     1       1.639  -3.412  -2.515  0.00  0.00    +0.015 C 
ATOM    148  C35 UNL     1       0.755  -2.650  -3.510  0.00  0.00    +0.010 C 
BRANCH 147 149
ATOM    149  C36 UNL     1       2.188  -4.716  -3.136  0.00  0.00    +0.002 C 
ATOM    150  C37 UNL     1       1.100  -5.701  -3.549  0.00  0.00    +0.004 C 
ENDBRANCH 147 149
ENDBRANCH 123 147
ENDBRANCH 120 123
ENDBRANCH 118 119
BRANCH 118 151
ATOM    151  C20 UNL     1       3.068  -2.661   2.773  0.00  0.00    +0.032 C 
BRANCH 151 152
ATOM    152  C21 UNL     1       3.896  -2.614   4.056  0.00  0.00    +0.003 C 
BRANCH 152 153
ATOM    153  C22 UNL     1       3.108  -1.883   5.146  0.00  0.00    +0.015 C 
BRANCH 153 154
ATOM    154  C23 UNL     1       3.892  -1.788   6.456  0.00  0.00    +0.077 C 
BRANCH 154 155
ATOM    155  N5  UNL     1       3.068  -1.157   7.479  0.00  0.00    -0.330 NA
ATOM    156  H37 UNL     1       2.217  -1.703   7.602  0.00  0.00    +0.118 HD
ATOM    157  H38 UNL     1       3.551  -1.211   8.384  0.00  0.00    +0.118 HD
ENDBRANCH 154 155
ENDBRANCH 153 154
ENDBRANCH 152 153
ENDBRANCH 151 152
ENDBRANCH 118 151
ENDBRANCH 115 118
ENDBRANCH 113 114
BRANCH 113 158
ATOM    158  C38 UNL     1       1.835  -7.514   2.944  0.00  0.00    +0.141 C 
ATOM    159  C39 UNL     1       0.419  -7.065   3.286  0.00  0.00    +0.040 C 
BRANCH 158 160
ATOM    160  O14 UNL     1       1.854  -8.944   2.887  0.00  0.00    -0.390 OA
ATOM    161  H69 UNL     1       1.640  -9.266   3.783  0.00  0.00    +0.210 HD
ENDBRANCH 158 160
ENDBRANCH 113 158
ENDBRANCH 110 113
ENDBRANCH 108 109
BRANCH 108 162
ATOM    162  C13 UNL     1       0.798 -10.426  -1.307  0.00  0.00    +0.043 C 
BRANCH 162 163
ATOM    163  C14 UNL     1       2.290 -10.652  -1.553  0.00  0.00    +0.123 C 
BRANCH 163 164
ATOM    164  C15 UNL     1       2.622 -12.116  -1.661  0.00  0.00    +0.305 C 
ATOM    165  O5  UNL     1       1.872 -13.057  -1.498  0.00  0.00    -0.251 OA
BRANCH 164 166
ATOM    166  O6  UNL     1       3.925 -12.304  -1.959  0.00  0.00    -0.481 OA
ATOM    167  H24 UNL     1       4.032 -13.280  -2.017  0.00  0.00    +0.295 HD
ENDBRANCH 164 166
ENDBRANCH 163 164
ENDBRANCH 162 163
ENDBRANCH 108 162
ENDBRANCH 105 108
ENDBRANCH 103 104
BRANCH 103 168
ATOM    168  C8  UNL     1      -3.645  -7.339   0.153  0.00  0.00    +0.043 C 
BRANCH 168 169
ATOM    169  C9  UNL     1      -3.165  -6.827   1.511  0.00  0.00    +0.123 C 
BRANCH 169 170
ATOM    170  C10 UNL     1      -3.746  -7.610   2.651  0.00  0.00    +0.305 C 
ATOM    171  O2  UNL     1      -3.138  -7.982   3.642  0.00  0.00    -0.251 OA
BRANCH 170 172
ATOM    172  O3  UNL     1      -5.069  -7.831   2.532  0.00  0.00    -0.481 OA
ATOM    173  H17 UNL     1      -5.297  -8.353   3.328  0.00  0.00    +0.295 HD
ENDBRANCH 170 172
ENDBRANCH 169 170
ENDBRANCH 168 169
ENDBRANCH 103 168
ENDBRANCH 100 103
ENDBRANCH  98  99
BRANCH  98 174
ATOM    174  C3  UNL     1      -3.908  -2.482  -0.571  0.00  0.00    +0.015 C 
ATOM    175  C4  UNL     1      -4.281  -1.015  -0.811  0.00  0.00    +0.010 C 
BRANCH 174 177
ATOM    176  C1  UNL     1      -4.323  -2.233   1.966  0.00  0.00    +0.004 C 
ATOM    177  C2  UNL     1      -4.651  -2.993   0.685  0.00  0.00    +0.002 C 
ENDBRANCH 174 177
ENDBRANCH  98 174
ENDBRANCH  94  98
ENDBRANCH  93  96
BRANCH  93 178
ATOM    178  C42 UNL     1      -4.791  -0.805  -5.897  0.00  0.00    +0.187 C 
BRANCH 178 179
ATOM    179  O16 UNL     1      -5.589  -1.801  -6.550  0.00  0.00    -0.393 OA
ATOM    180  H74 UNL     1      -6.433  -1.374  -6.767  0.00  0.00    +0.209 HD
ENDBRANCH 178 179
ENDBRANCH  93 178
ENDBRANCH  89  93
ENDBRANCH   1  91
BRANCH   1 181
ATOM    181  C45 UNL     1       0.027   1.242  -6.938  0.00  0.00    +0.043 C 
BRANCH 181 182
ATOM    182  C46 UNL     1       0.994   0.136  -7.360  0.00  0.00    +0.123 C 
BRANCH 182 183
ATOM    183  C47 UNL     1       2.360   0.305  -6.732  0.00  0.00    +0.305 C 
ATOM    184  O18 UNL     1       2.625   0.940  -5.724  0.00  0.00    -0.251 OA
BRANCH 183 185
ATOM    185  O19 UNL     1       3.315  -0.383  -7.403  0.00  0.00    -0.481 OA
ATOM    186  H81 UNL     1       4.166  -0.185  -6.951  0.00  0.00    +0.295 HD
ENDBRANCH 183 185
ENDBRANCH 182 183
ENDBRANCH 181 182
ENDBRANCH   1 181
TORSDOF 84
