REMARK  Name = ligands/ligand_9.pdb
REMARK  24 active torsions:
REMARK  status: ('A' for Active; 'I' for Inactive)
REMARK    1  A    between atoms: C1_1  and  C2_2
REMARK    2  A    between atoms: C2_2  and  C3_3
REMARK    3  A    between atoms: C2_2  and  C4_4
REMARK    4  A    between atoms: C4_4  and  O1_5
REMARK    5  A    between atoms: C4_4  and  C5_6
REMARK    6  A    between atoms: N1_8  and  C6_9
REMARK    7  A    between atoms: C6_9  and  C7_10
REMARK    8  A    between atoms: C6_9  and  C8_11
REMARK    9  A    between atoms: N2_13  and  C9_14
REMARK   10  A    between atoms: C9_14  and  C10_15
REMARK   11  A    between atoms: C9_14  and  C17_22
REMARK   12  A    between atoms: C10_15  and  C11_16
REMARK   13  A    between atoms: C17_22  and  O4_23
REMARK   14  A    between atoms: C17_22  and  C18_24
REMARK   15  A    between atoms: C18_24  and  C19_25
REMARK   16  A    between atoms: C19_25  and  C20_26
REMARK   17  A    between atoms: C19_25  and  C21_27
REMARK   18  A    between atoms: N3_29  and  C22_30
REMARK   19  A    between atoms: C22_30  and  C23_31
REMARK   20  A    between atoms: C22_30  and  C31_41
REMARK   21  A    between atoms: N4_33  and  C24_34
REMARK   22  A    between atoms: C24_34  and  C25_35
REMARK   23  A    between atoms: C31_41  and  C32_42
REMARK   24  A    between atoms: C31_41  and  C33_43
REMARK                            x       y       z     vdW  Elec       q    Type
REMARK                         _______ _______ _______ _____ _____    ______ ____
ROOT
ATOM      1  C17 UNL     1      -2.928  -0.900   2.509  0.00  0.00    +0.136 C 
ENDROOT
BRANCH   1   2
ATOM      2  O4  UNL     1      -3.948  -0.264   3.301  0.00  0.00    -0.390 OA
ATOM      3  H25 UNL     1      -4.807  -0.609   2.999  0.00  0.00    +0.210 HD
ENDBRANCH   1   2
BRANCH   1   4
ATOM      4  C18 UNL     1      -3.086  -0.366   1.076  0.00  0.00    +0.045 C 
BRANCH   4   5
ATOM      5  C19 UNL     1      -2.255  -1.026  -0.035  0.00  0.00    +0.074 C 
ATOM      6  C20 UNL     1      -2.455  -2.543  -0.080  0.00  0.00    +0.017 C 
BRANCH   5   7
ATOM      7  C21 UNL     1      -2.667  -0.430  -1.385  0.00  0.00    +0.217 C 
ATOM      8  O5  UNL     1      -3.334  -1.045  -2.212  0.00  0.00    -0.276 OA
ATOM      9  N3  UNL     1      -2.265   0.866  -1.592  0.00  0.00    -0.304 N 
ATOM     10  H32 UNL     1      -1.668   1.348  -0.921  0.00  0.00    +0.149 HD
BRANCH   9  11
ATOM     11  C22 UNL     1      -2.626   1.603  -2.805  0.00  0.00    +0.161 C 
BRANCH  11  12
ATOM     12  C23 UNL     1      -1.504   2.621  -3.090  0.00  0.00    +0.234 C 
ATOM     13  O6  UNL     1      -0.788   3.067  -2.195  0.00  0.00    -0.274 OA
ATOM     14  N4  UNL     1      -1.373   2.998  -4.407  0.00  0.00    -0.310 N 
ATOM     15  H34 UNL     1      -1.890   2.504  -5.121  0.00  0.00    +0.149 HD
BRANCH  14  16
ATOM     16  C24 UNL     1      -0.301   3.865  -4.848  0.00  0.00    +0.139 C 
BRANCH  16  17
ATOM     17  C25 UNL     1       0.760   3.142  -5.645  0.00  0.00    -0.030 A 
ATOM     18  C26 UNL     1       1.087   1.795  -5.416  0.00  0.00    +0.005 A 
ATOM     19  C27 UNL     1       2.097   1.170  -6.150  0.00  0.00    +0.000 A 
ATOM     20  C28 UNL     1       2.813   1.889  -7.107  0.00  0.00    +0.000 A 
ATOM     21  C29 UNL     1       2.520   3.234  -7.329  0.00  0.00    +0.000 A 
ATOM     22  C30 UNL     1       1.504   3.856  -6.602  0.00  0.00    +0.005 A 
ENDBRANCH  16  17
ENDBRANCH  14  16
ENDBRANCH  11  12
BRANCH  11  23
ATOM     23  C31 UNL     1      -4.029   2.240  -2.669  0.00  0.00    +0.012 C 
ATOM     24  C32 UNL     1      -4.549   2.801  -3.995  0.00  0.00    +0.009 C 
ATOM     25  C33 UNL     1      -4.092   3.317  -1.581  0.00  0.00    +0.009 C 
ENDBRANCH  11  23
ENDBRANCH   9  11
ENDBRANCH   5   7
ENDBRANCH   4   5
ENDBRANCH   1   4
BRANCH   1  26
ATOM     26  C9  UNL     1      -1.570  -0.716   3.244  0.00  0.00    +0.106 C 
BRANCH  26  29
ATOM     27  C8  UNL     1      -0.117  -2.723   2.969  0.00  0.00    +0.233 C 
ATOM     28  O3  UNL     1      -0.787  -3.407   3.742  0.00  0.00    -0.274 OA
ATOM     29  N2  UNL     1      -0.453  -1.431   2.625  0.00  0.00    -0.308 N 
ATOM     30  H15 UNL     1       0.099  -0.946   1.930  0.00  0.00    +0.149 HD
BRANCH  27  31
ATOM     31  C6  UNL     1       1.169  -3.254   2.306  0.00  0.00    +0.156 C 
ATOM     32  C7  UNL     1       0.938  -3.552   0.831  0.00  0.00    +0.038 C 
BRANCH  31  35
ATOM     33  C5  UNL     1       2.897  -4.903   3.007  0.00  0.00    +0.242 C 
ATOM     34  O2  UNL     1       3.782  -4.355   2.361  0.00  0.00    -0.273 OA
ATOM     35  N1  UNL     1       1.599  -4.444   3.022  0.00  0.00    -0.302 N 
ATOM     36  H10 UNL     1       0.920  -4.923   3.614  0.00  0.00    +0.150 HD
BRANCH  33  37
ATOM     37  C4  UNL     1       3.100  -6.146   3.906  0.00  0.00    +0.202 C 
BRANCH  37  39
ATOM     38  C1  UNL     1       4.537  -7.449   2.216  0.00  0.00    +0.010 C 
ATOM     39  C2  UNL     1       4.388  -6.959   3.659  0.00  0.00    +0.020 C 
ATOM     40  C3  UNL     1       5.643  -6.205   4.101  0.00  0.00    +0.010 C 
ENDBRANCH  37  39
BRANCH  37  41
ATOM     41  O1  UNL     1       1.960  -7.009   3.813  0.00  0.00    -0.382 OA
ATOM     42  H9  UNL     1       1.879  -7.279   2.882  0.00  0.00    +0.210 HD
ENDBRANCH  37  41
ENDBRANCH  33  37
ENDBRANCH  31  35
ENDBRANCH  27  31
ENDBRANCH  26  29
BRANCH  26  43
ATOM     43  C10 UNL     1      -1.195   0.728   3.668  0.00  0.00    +0.060 C 
BRANCH  43  44
ATOM     44  C11 UNL     1      -0.625   1.647   2.615  0.00  0.00    -0.046 A 
ATOM     45  C12 UNL     1      -1.425   2.641   2.038  0.00  0.00    +0.004 A 
ATOM     46  C13 UNL     1      -0.900   3.501   1.074  0.00  0.00    +0.000 A 
ATOM     47  C14 UNL     1       0.432   3.386   0.688  0.00  0.00    +0.000 A 
ATOM     48  C15 UNL     1       1.246   2.420   1.272  0.00  0.00    +0.000 A 
ATOM     49  C16 UNL     1       0.724   1.561   2.238  0.00  0.00    +0.004 A 
ENDBRANCH  43  44
ENDBRANCH  26  43
ENDBRANCH   1  26
TORSDOF 18
