AutoDock-GPU version: v1.6

**********************************************************
**    AutoDock-GPU AUTODOCKTOOLS-COMPATIBLE DLG FILE    **
**********************************************************


    DOCKING PARAMETERS
    ________________________


Ligand file:                               ligands/ligand_5.pdbqt
Grid fld file:                             protein.maps.fld

Random seed:                               1770973683, 32673
Number of runs:                            20
Number of energy evaluations:              10503056
Number of generations:                     42000
Size of population:                        150
Rate of crossover:                         80.000000%
Tournament selection probability limit:    60.000000%
Rate of mutation:                          2.000000%
Maximal allowed delta movement:            +/- 6.000000A
Maximal allowed delta angle:               +/- 90.000000

Rate of local search:                      100.000000%
Maximal number of local search iterations: 300
Rho lower bound:                           0.010000
Spread of local search delta movement:     2.000000A
Spread of local search delta angle:        74.999999
Limit of consecutive successes/failures:   4

Handle symmetry during clustering:         YES
RMSD tolerance:                            2.000000A

Program call in command line was:          ./autodock-gpu --ffile protein.maps.fld --lfile ligands/ligand_5.pdbqt --nrun 20 


    GRID PARAMETERS
    ________________________


Receptor name:                             #MACROMOLECULE
Number of grid points (x, y, z):           61, 61, 61
Grid center (x, y, z):                     10.261000, -3.492000, -0.127000A
Grid size (x, y, z):                       22.500000, 22.500000, 22.500000A
Grid spacing:                              0.375000A


    LIGAND PARAMETERS
    ________________________


Ligand name:                               ligands/ligand_5
Number of atoms:                           59
Number of rotatable bonds:                 23
Number of atom types:                      6


    DUMMY DATA (only for ADT-compatibility)
    ________________________


DPF> outlev 1
DPF> ga_run 20
DPF> fld protein.maps.fld
DPF> move ligands/ligand_5.pdbqt


    COUNTER STATES
    ________________________


Number of energy evaluations performed:    7454389
Number of generations used:                310


    INPUT LIGAND PDBQT FILE:
    ________________________


INPUT-LIGAND-PDBQT: REMARK  Name = ligands/ligand_5.pdb
INPUT-LIGAND-PDBQT: REMARK  32 active torsions:
INPUT-LIGAND-PDBQT: REMARK  status: ('A' for Active; 'I' for Inactive)
INPUT-LIGAND-PDBQT: REMARK    1  A    between atoms: C1_1  and  S1_2
INPUT-LIGAND-PDBQT: REMARK    2  A    between atoms: S1_2  and  C2_3
INPUT-LIGAND-PDBQT: REMARK    3  A    between atoms: C2_3  and  C3_4
INPUT-LIGAND-PDBQT: REMARK    4  A    between atoms: C3_4  and  C4_5
INPUT-LIGAND-PDBQT: REMARK    5  A    between atoms: C4_5  and  N1_6
INPUT-LIGAND-PDBQT: REMARK    6  A    between atoms: C4_5  and  C15_21
INPUT-LIGAND-PDBQT: REMARK    7  A    between atoms: C5_7  and  C6_9
INPUT-LIGAND-PDBQT: REMARK    8  A    between atoms: C6_9  and  N2_10
INPUT-LIGAND-PDBQT: REMARK    9  A    between atoms: C6_9  and  C12_18
INPUT-LIGAND-PDBQT: REMARK   10  A    between atoms: C7_11  and  O3_13
INPUT-LIGAND-PDBQT: REMARK   11  A    between atoms: O3_13  and  C8_14
INPUT-LIGAND-PDBQT: REMARK   12  A    between atoms: C8_14  and  C9_15
INPUT-LIGAND-PDBQT: REMARK   13  A    between atoms: C8_14  and  C10_16
INPUT-LIGAND-PDBQT: REMARK   14  A    between atoms: C8_14  and  C11_17
INPUT-LIGAND-PDBQT: REMARK   15  A    between atoms: C12_18  and  C13_19
INPUT-LIGAND-PDBQT: REMARK   16  A    between atoms: C12_18  and  C14_20
INPUT-LIGAND-PDBQT: REMARK   17  A    between atoms: N3_23  and  C16_24
INPUT-LIGAND-PDBQT: REMARK   18  A    between atoms: C16_24  and  C17_25
INPUT-LIGAND-PDBQT: REMARK   19  A    between atoms: C16_24  and  C24_32
INPUT-LIGAND-PDBQT: REMARK   20  A    between atoms: C17_25  and  C18_26
INPUT-LIGAND-PDBQT: REMARK   21  A    between atoms: C24_32  and  O5_33
INPUT-LIGAND-PDBQT: REMARK   22  A    between atoms: C24_32  and  C25_34
INPUT-LIGAND-PDBQT: REMARK   23  A    between atoms: C25_34  and  C26_35
INPUT-LIGAND-PDBQT: REMARK   24  A    between atoms: C26_35  and  C27_36
INPUT-LIGAND-PDBQT: REMARK   25  A    between atoms: C26_35  and  C28_37
INPUT-LIGAND-PDBQT: REMARK   26  A    between atoms: N4_39  and  C29_40
INPUT-LIGAND-PDBQT: REMARK   27  A    between atoms: C29_40  and  C30_41
INPUT-LIGAND-PDBQT: REMARK   28  A    between atoms: C29_40  and  C38_51
INPUT-LIGAND-PDBQT: REMARK   29  A    between atoms: N5_43  and  C31_44
INPUT-LIGAND-PDBQT: REMARK   30  A    between atoms: C31_44  and  C32_45
INPUT-LIGAND-PDBQT: REMARK   31  A    between atoms: C38_51  and  C39_52
INPUT-LIGAND-PDBQT: REMARK   32  A    between atoms: C38_51  and  C40_53
INPUT-LIGAND-PDBQT: REMARK                            x       y       z     vdW  Elec       q    Type
INPUT-LIGAND-PDBQT: REMARK                         _______ _______ _______ _____ _____    ______ ____
INPUT-LIGAND-PDBQT: ROOT
INPUT-LIGAND-PDBQT: ATOM      1  C16 UNL     1       0.974  -2.410  -1.232  0.00  0.00    +0.106 C 
INPUT-LIGAND-PDBQT: ENDROOT
INPUT-LIGAND-PDBQT: BRANCH   1   4
INPUT-LIGAND-PDBQT: ATOM      2  C15 UNL     1       0.589  -0.401   0.197  0.00  0.00    +0.234 C 
INPUT-LIGAND-PDBQT: ATOM      3  O4  UNL     1      -0.616  -0.342  -0.052  0.00  0.00    -0.274 OA
INPUT-LIGAND-PDBQT: ATOM      4  N3  UNL     1       1.397  -1.440  -0.210  0.00  0.00    -0.308 N 
INPUT-LIGAND-PDBQT: ATOM      5  H28 UNL     1       2.404  -1.297  -0.191  0.00  0.00    +0.149 HD
INPUT-LIGAND-PDBQT: BRANCH   2   6
INPUT-LIGAND-PDBQT: ATOM      6  C4  UNL     1       1.329   0.685   1.010  0.00  0.00    +0.160 C 
INPUT-LIGAND-PDBQT: BRANCH   6   7
INPUT-LIGAND-PDBQT: ATOM      7  N1  UNL     1       0.774   1.973   0.593  0.00  0.00    -0.302 N 
INPUT-LIGAND-PDBQT: ATOM      8  C5  UNL     1       1.149   2.506  -0.628  0.00  0.00    +0.234 C 
INPUT-LIGAND-PDBQT: ATOM      9  O1  UNL     1       2.061   2.024  -1.300  0.00  0.00    -0.274 OA
INPUT-LIGAND-PDBQT: ATOM     10  H9  UNL     1      -0.162   2.176   0.922  0.00  0.00    +0.150 HD
INPUT-LIGAND-PDBQT: BRANCH   8  11
INPUT-LIGAND-PDBQT: ATOM     11  C6  UNL     1       0.311   3.726  -1.093  0.00  0.00    +0.165 C 
INPUT-LIGAND-PDBQT: BRANCH  11  12
INPUT-LIGAND-PDBQT: ATOM     12  N2  UNL     1       0.983   4.327  -2.237  0.00  0.00    -0.270 N 
INPUT-LIGAND-PDBQT: ATOM     13  C7  UNL     1       1.970   5.248  -2.050  0.00  0.00    +0.401 C 
INPUT-LIGAND-PDBQT: ATOM     14  O2  UNL     1       2.167   5.865  -1.016  0.00  0.00    -0.226 OA
INPUT-LIGAND-PDBQT: ATOM     15  H11 UNL     1       1.175   3.728  -3.031  0.00  0.00    +0.153 HD
INPUT-LIGAND-PDBQT: BRANCH  13  16
INPUT-LIGAND-PDBQT: ATOM     16  O3  UNL     1       2.693   5.336  -3.188  0.00  0.00    -0.445 OA
INPUT-LIGAND-PDBQT: BRANCH  16  17
INPUT-LIGAND-PDBQT: ATOM     17  C8  UNL     1       3.870   6.183  -3.253  0.00  0.00    +0.107 C 
INPUT-LIGAND-PDBQT: ATOM     18  C9  UNL     1       4.396   6.004  -4.686  0.00  0.00    +0.055 C 
INPUT-LIGAND-PDBQT: ATOM     19  C10 UNL     1       3.517   7.657  -3.034  0.00  0.00    +0.055 C 
INPUT-LIGAND-PDBQT: ATOM     20  C11 UNL     1       4.949   5.706  -2.275  0.00  0.00    +0.055 C 
INPUT-LIGAND-PDBQT: ENDBRANCH  16  17
INPUT-LIGAND-PDBQT: ENDBRANCH  13  16
INPUT-LIGAND-PDBQT: ENDBRANCH  11  12
INPUT-LIGAND-PDBQT: BRANCH  11  21
INPUT-LIGAND-PDBQT: ATOM     21  C12 UNL     1      -1.148   3.329  -1.414  0.00  0.00    +0.012 C 
INPUT-LIGAND-PDBQT: ATOM     22  C13 UNL     1      -1.263   2.339  -2.578  0.00  0.00    +0.009 C 
INPUT-LIGAND-PDBQT: ATOM     23  C14 UNL     1      -2.005   4.568  -1.695  0.00  0.00    +0.009 C 
INPUT-LIGAND-PDBQT: ENDBRANCH  11  21
INPUT-LIGAND-PDBQT: ENDBRANCH   8  11
INPUT-LIGAND-PDBQT: ENDBRANCH   6   7
INPUT-LIGAND-PDBQT: BRANCH   6  24
INPUT-LIGAND-PDBQT: ATOM     24  C3  UNL     1       1.143   0.483   2.515  0.00  0.00    +0.042 C 
INPUT-LIGAND-PDBQT: BRANCH  24  25
INPUT-LIGAND-PDBQT: ATOM     25  C2  UNL     1       1.757  -0.822   3.014  0.00  0.00    +0.071 C 
INPUT-LIGAND-PDBQT: BRANCH  25  27
INPUT-LIGAND-PDBQT: ATOM     26  C1  UNL     1       1.955  -2.662   5.053  0.00  0.00    +0.084 C 
INPUT-LIGAND-PDBQT: ATOM     27  S1  UNL     1       1.663  -0.893   4.832  0.00  0.00    -0.164 S 
INPUT-LIGAND-PDBQT: ENDBRANCH  25  27
INPUT-LIGAND-PDBQT: ENDBRANCH  24  25
INPUT-LIGAND-PDBQT: ENDBRANCH   6  24
INPUT-LIGAND-PDBQT: ENDBRANCH   2   6
INPUT-LIGAND-PDBQT: ENDBRANCH   1   4
INPUT-LIGAND-PDBQT: BRANCH   1  28
INPUT-LIGAND-PDBQT: ATOM     28  C17 UNL     1       1.092  -1.749  -2.630  0.00  0.00    +0.060 C 
INPUT-LIGAND-PDBQT: BRANCH  28  29
INPUT-LIGAND-PDBQT: ATOM     29  C18 UNL     1       0.727  -2.640  -3.797  0.00  0.00    -0.046 A 
INPUT-LIGAND-PDBQT: ATOM     30  C19 UNL     1      -0.507  -3.304  -3.848  0.00  0.00    +0.004 A 
INPUT-LIGAND-PDBQT: ATOM     31  C20 UNL     1      -0.821  -4.127  -4.932  0.00  0.00    +0.000 A 
INPUT-LIGAND-PDBQT: ATOM     32  C21 UNL     1       0.084  -4.280  -5.980  0.00  0.00    +0.000 A 
INPUT-LIGAND-PDBQT: ATOM     33  C22 UNL     1       1.303  -3.610  -5.948  0.00  0.00    +0.000 A 
INPUT-LIGAND-PDBQT: ATOM     34  C23 UNL     1       1.624  -2.793  -4.863  0.00  0.00    +0.004 A 
INPUT-LIGAND-PDBQT: ENDBRANCH  28  29
INPUT-LIGAND-PDBQT: ENDBRANCH   1  28
INPUT-LIGAND-PDBQT: BRANCH   1  35
INPUT-LIGAND-PDBQT: ATOM     35  C24 UNL     1       1.856  -3.684  -1.107  0.00  0.00    +0.136 C 
INPUT-LIGAND-PDBQT: BRANCH  35  36
INPUT-LIGAND-PDBQT: ATOM     36  O5  UNL     1       3.234  -3.259  -1.144  0.00  0.00    -0.390 OA
INPUT-LIGAND-PDBQT: ATOM     37  H38 UNL     1       3.765  -4.045  -1.364  0.00  0.00    +0.210 HD
INPUT-LIGAND-PDBQT: ENDBRANCH  35  36
INPUT-LIGAND-PDBQT: BRANCH  35  38
INPUT-LIGAND-PDBQT: ATOM     38  C25 UNL     1       1.660  -4.474   0.205  0.00  0.00    +0.045 C 
INPUT-LIGAND-PDBQT: BRANCH  38  39
INPUT-LIGAND-PDBQT: ATOM     39  C26 UNL     1       0.514  -5.500   0.166  0.00  0.00    +0.074 C 
INPUT-LIGAND-PDBQT: ATOM     40  C27 UNL     1       0.535  -6.388   1.412  0.00  0.00    +0.017 C 
INPUT-LIGAND-PDBQT: BRANCH  39  41
INPUT-LIGAND-PDBQT: ATOM     41  C28 UNL     1      -0.853  -4.855   0.000  0.00  0.00    +0.217 C 
INPUT-LIGAND-PDBQT: ATOM     42  O6  UNL     1      -1.511  -5.004  -1.027  0.00  0.00    -0.276 OA
INPUT-LIGAND-PDBQT: ATOM     43  N4  UNL     1      -1.270  -4.070   1.039  0.00  0.00    -0.304 N 
INPUT-LIGAND-PDBQT: ATOM     44  H45 UNL     1      -0.673  -3.897   1.842  0.00  0.00    +0.149 HD
INPUT-LIGAND-PDBQT: BRANCH  43  45
INPUT-LIGAND-PDBQT: ATOM     45  C29 UNL     1      -2.503  -3.280   0.989  0.00  0.00    +0.161 C 
INPUT-LIGAND-PDBQT: BRANCH  45  46
INPUT-LIGAND-PDBQT: ATOM     46  C30 UNL     1      -2.325  -2.121   1.995  0.00  0.00    +0.234 C 
INPUT-LIGAND-PDBQT: ATOM     47  O7  UNL     1      -1.484  -2.173   2.896  0.00  0.00    -0.274 OA
INPUT-LIGAND-PDBQT: ATOM     48  N5  UNL     1      -3.178  -1.060   1.818  0.00  0.00    -0.310 N 
INPUT-LIGAND-PDBQT: ATOM     49  H47 UNL     1      -3.785  -1.043   1.008  0.00  0.00    +0.149 HD
INPUT-LIGAND-PDBQT: BRANCH  48  50
INPUT-LIGAND-PDBQT: ATOM     50  C31 UNL     1      -3.201   0.076   2.706  0.00  0.00    +0.139 C 
INPUT-LIGAND-PDBQT: BRANCH  50  51
INPUT-LIGAND-PDBQT: ATOM     51  C32 UNL     1      -4.274  -0.080   3.749  0.00  0.00    -0.030 A 
INPUT-LIGAND-PDBQT: ATOM     52  C33 UNL     1      -5.582   0.358   3.505  0.00  0.00    +0.005 A 
INPUT-LIGAND-PDBQT: ATOM     53  C34 UNL     1      -6.573   0.201   4.476  0.00  0.00    +0.000 A 
INPUT-LIGAND-PDBQT: ATOM     54  C35 UNL     1      -6.268  -0.404   5.694  0.00  0.00    +0.000 A 
INPUT-LIGAND-PDBQT: ATOM     55  C36 UNL     1      -4.974  -0.862   5.938  0.00  0.00    +0.000 A 
INPUT-LIGAND-PDBQT: ATOM     56  C37 UNL     1      -3.981  -0.702   4.971  0.00  0.00    +0.005 A 
INPUT-LIGAND-PDBQT: ENDBRANCH  50  51
INPUT-LIGAND-PDBQT: ENDBRANCH  48  50
INPUT-LIGAND-PDBQT: ENDBRANCH  45  46
INPUT-LIGAND-PDBQT: BRANCH  45  57
INPUT-LIGAND-PDBQT: ATOM     57  C38 UNL     1      -3.745  -4.164   1.256  0.00  0.00    +0.012 C 
INPUT-LIGAND-PDBQT: ATOM     58  C39 UNL     1      -3.816  -4.677   2.697  0.00  0.00    +0.009 C 
INPUT-LIGAND-PDBQT: ATOM     59  C40 UNL     1      -5.056  -3.472   0.879  0.00  0.00    +0.009 C 
INPUT-LIGAND-PDBQT: ENDBRANCH  45  57
INPUT-LIGAND-PDBQT: ENDBRANCH  43  45
INPUT-LIGAND-PDBQT: ENDBRANCH  39  41
INPUT-LIGAND-PDBQT: ENDBRANCH  38  39
INPUT-LIGAND-PDBQT: ENDBRANCH  35  38
INPUT-LIGAND-PDBQT: ENDBRANCH   1  35
INPUT-LIGAND-PDBQT: TORSDOF 23


    FINAL DOCKED STATE:
    ________________________


Run:   1 / 20
Time taken for this run:   2.402s

DOCKED: MODEL        1
DOCKED: USER    Run = 1
DOCKED: USER
DOCKED: USER    Estimated Free Energy of Binding    =  +6.86 kcal/mol  [=(1)+(2)+(3)-(4)]
DOCKED: USER
DOCKED: USER    (1) Final Intermolecular Energy     =  +0.00 kcal/mol
DOCKED: USER        vdW + Hbond + desolv Energy     =  +0.00 kcal/mol
DOCKED: USER        Electrostatic Energy            =  +0.00 kcal/mol
DOCKED: USER        Moving Ligand-Fixed Receptor    =  +0.00 kcal/mol
DOCKED: USER        Moving Ligand-Moving Receptor   =  +0.00 kcal/mol
DOCKED: USER    (2) Final Total Internal Energy     = -15.94 kcal/mol
DOCKED: USER    (3) Torsional Free Energy           =  +6.86 kcal/mol
DOCKED: USER    (4) Unbound System's Energy         = -15.94 kcal/mol
DOCKED: USER
DOCKED: USER
DOCKED: REMARK  Name = ligands/ligand_5.pdb
DOCKED: REMARK  32 active torsions:
DOCKED: REMARK  status: ('A' for Active; 'I' for Inactive)
DOCKED: REMARK    1  A    between atoms: C1_1  and  S1_2
DOCKED: REMARK    2  A    between atoms: S1_2  and  C2_3
DOCKED: REMARK    3  A    between atoms: C2_3  and  C3_4
DOCKED: REMARK    4  A    between atoms: C3_4  and  C4_5
DOCKED: REMARK    5  A    between atoms: C4_5  and  N1_6
DOCKED: REMARK    6  A    between atoms: C4_5  and  C15_21
DOCKED: REMARK    7  A    between atoms: C5_7  and  C6_9
DOCKED: REMARK    8  A    between atoms: C6_9  and  N2_10
DOCKED: REMARK    9  A    between atoms: C6_9  and  C12_18
DOCKED: REMARK   10  A    between atoms: C7_11  and  O3_13
DOCKED: REMARK   11  A    between atoms: O3_13  and  C8_14
DOCKED: REMARK   12  A    between atoms: C8_14  and  C9_15
DOCKED: REMARK   13  A    between atoms: C8_14  and  C10_16
DOCKED: REMARK   14  A    between atoms: C8_14  and  C11_17
DOCKED: REMARK   15  A    between atoms: C12_18  and  C13_19
DOCKED: REMARK   16  A    between atoms: C12_18  and  C14_20
DOCKED: REMARK   17  A    between atoms: N3_23  and  C16_24
DOCKED: REMARK   18  A    between atoms: C16_24  and  C17_25
DOCKED: REMARK   19  A    between atoms: C16_24  and  C24_32
DOCKED: REMARK   20  A    between atoms: C17_25  and  C18_26
DOCKED: REMARK   21  A    between atoms: C24_32  and  O5_33
DOCKED: REMARK   22  A    between atoms: C24_32  and  C25_34
DOCKED: REMARK   23  A    between atoms: C25_34  and  C26_35
DOCKED: REMARK   24  A    between atoms: C26_35  and  C27_36
DOCKED: REMARK   25  A    between atoms: C26_35  and  C28_37
DOCKED: REMARK   26  A    between atoms: N4_39  and  C29_40
DOCKED: REMARK   27  A    between atoms: C29_40  and  C30_41
DOCKED: REMARK   28  A    between atoms: C29_40  and  C38_51
DOCKED: REMARK   29  A    between atoms: N5_43  and  C31_44
DOCKED: REMARK   30  A    between atoms: C31_44  and  C32_45
DOCKED: REMARK   31  A    between atoms: C38_51  and  C39_52
DOCKED: REMARK   32  A    between atoms: C38_51  and  C40_53
DOCKED: REMARK                            x       y       z     vdW  Elec       q    Type
DOCKED: REMARK                         _______ _______ _______ _____ _____    ______ ____
DOCKED: USER                              x       y       z     vdW  Elec       q    Type
DOCKED: USER                           _______ _______ _______ _____ _____    ______ ____
DOCKED: ROOT
DOCKED: ATOM      1  C16 UNL     1      14.835  -1.537  -3.795 +0.00 +0.00    +0.106 C  
DOCKED: ENDROOT
DOCKED: BRANCH   1   4
DOCKED: ATOM      2  C15 UNL     1      13.294   0.426  -3.766 +0.00 +0.00    +0.234 C  
DOCKED: ATOM      3  O4  UNL     1      12.308  -0.238  -3.441 +0.00 -0.00    -0.274 OA 
DOCKED: ATOM      4  N3  UNL     1      14.570  -0.090  -3.818 +0.00 -0.00    -0.308 N  
DOCKED: ATOM      5  H28 UNL     1      15.276   0.434  -4.330 +0.00 +0.00    +0.149 HD 
DOCKED: BRANCH   2   6
DOCKED: ATOM      6  C4  UNL     1      13.208   1.922  -4.141 +0.00 +0.00    +0.160 C  
DOCKED: BRANCH   6   7
DOCKED: ATOM      7  N1  UNL     1      14.583   2.393  -4.306 +0.00 -0.00    -0.302 N  
DOCKED: ATOM      8  C5  UNL     1      14.948   3.614  -3.766 +0.00 +0.00    +0.234 C  
DOCKED: ATOM      9  O1  UNL     1      14.120   4.398  -3.300 +0.00 -0.00    -0.274 OA 
DOCKED: ATOM     10  H9  UNL     1      15.293   1.672  -4.350 +0.00 +0.00    +0.150 HD 
DOCKED: BRANCH   8  11
DOCKED: ATOM     11  C6  UNL     1      16.474   3.897  -3.762 +0.00 +0.00    +0.165 C  
DOCKED: BRANCH  11  12
DOCKED: ATOM     12  N2  UNL     1      16.951   3.825  -5.136 +0.00 -0.00    -0.270 N  
DOCKED: ATOM     13  C7  UNL     1      16.972   2.633  -5.796 +0.00 +0.00    +0.401 C  
DOCKED: ATOM     14  O2  UNL     1      16.912   1.536  -5.266 +0.00 -0.00    -0.226 OA 
DOCKED: ATOM     15  H11 UNL     1      16.708   4.591  -5.753 +0.00 +0.00    +0.153 HD 
DOCKED: BRANCH  13  16
DOCKED: ATOM     16  O3  UNL     1      17.048   2.881  -7.123 +0.00 -0.00    -0.445 OA 
DOCKED: BRANCH  16  17
DOCKED: ATOM     17  C8  UNL     1      18.335   3.044  -7.773 +0.00 +0.00    +0.107 C  
DOCKED: ATOM     18  C9  UNL     1      18.131   4.217  -8.745 +0.00 +0.00    +0.055 C  
DOCKED: ATOM     19  C10 UNL     1      19.431   3.416  -6.769 +0.00 +0.00    +0.055 C  
DOCKED: ATOM     20  C11 UNL     1      18.706   1.798  -8.584 +0.00 +0.00    +0.055 C  
DOCKED: ENDBRANCH  16  17
DOCKED: ENDBRANCH  13  16
DOCKED: ENDBRANCH  11  12
DOCKED: BRANCH  11  21
DOCKED: ATOM     21  C12 UNL     1      16.803   5.253  -3.098 +0.00 +0.00    +0.012 C  
DOCKED: ATOM     22  C13 UNL     1      18.227   5.738  -3.388 +0.00 +0.00    +0.009 C  
DOCKED: ATOM     23  C14 UNL     1      16.568   5.195  -1.585 +0.00 +0.00    +0.009 C  
DOCKED: ENDBRANCH  11  21
DOCKED: ENDBRANCH   8  11
DOCKED: ENDBRANCH   6   7
DOCKED: BRANCH   6  24
DOCKED: ATOM     24  C3  UNL     1      12.410   2.133  -5.429 +0.00 +0.00    +0.042 C  
DOCKED: BRANCH  24  25
DOCKED: ATOM     25  C2  UNL     1      12.609   3.525  -6.023 +0.00 +0.00    +0.071 C  
DOCKED: BRANCH  25  27
DOCKED: ATOM     26  C1  UNL     1      14.598   5.115  -7.071 +0.00 +0.00    +0.084 C  
DOCKED: ATOM     27  S1  UNL     1      13.895   3.468  -7.311 +0.00 -0.00    -0.164 S  
DOCKED: ENDBRANCH  25  27
DOCKED: ENDBRANCH  24  25
DOCKED: ENDBRANCH   6  24
DOCKED: ENDBRANCH   2   6
DOCKED: ENDBRANCH   1   4
DOCKED: BRANCH   1  28
DOCKED: ATOM     28  C17 UNL     1      14.386  -2.150  -5.147 +0.00 +0.00    +0.060 C  
DOCKED: BRANCH  28  29
DOCKED: ATOM     29  C18 UNL     1      14.569  -1.256  -6.353 +0.00 -0.00    -0.046 A  
DOCKED: ATOM     30  C19 UNL     1      13.468  -0.716  -7.033 +0.00 +0.00    +0.004 A  
DOCKED: ATOM     31  C20 UNL     1      13.659   0.103  -8.148 +0.00 +0.00    +0.000 A  
DOCKED: ATOM     32  C21 UNL     1      14.948   0.403  -8.583 +0.00 +0.00    +0.000 A  
DOCKED: ATOM     33  C22 UNL     1      16.048  -0.112  -7.903 +0.00 +0.00    +0.000 A  
DOCKED: ATOM     34  C23 UNL     1      15.861  -0.937  -6.793 +0.00 +0.00    +0.004 A  
DOCKED: ENDBRANCH  28  29
DOCKED: ENDBRANCH   1  28
DOCKED: BRANCH   1  35
DOCKED: ATOM     35  C24 UNL     1      16.347  -1.764  -3.519 +0.00 +0.00    +0.136 C  
DOCKED: BRANCH  35  36
DOCKED: ATOM     36  O5  UNL     1      17.062  -0.648  -4.090 +0.00 -0.00    -0.390 OA 
DOCKED: ATOM     37  H38 UNL     1      16.620   0.160  -3.774 +0.00 +0.00    +0.210 HD 
DOCKED: ENDBRANCH  35  36
DOCKED: BRANCH  35  38
DOCKED: ATOM     38  C25 UNL     1      16.724  -1.825  -2.023 +0.00 +0.00    +0.045 C  
DOCKED: BRANCH  38  39
DOCKED: ATOM     39  C26 UNL     1      16.203  -0.644  -1.185 +0.00 +0.00    +0.074 C  
DOCKED: ATOM     40  C27 UNL     1      16.484  -0.866   0.303 +0.00 +0.00    +0.017 C  
DOCKED: BRANCH  39  41
DOCKED: ATOM     41  C28 UNL     1      16.765   0.695  -1.635 +0.00 +0.00    +0.217 C  
DOCKED: ATOM     42  O6  UNL     1      16.277   1.309  -2.580 +0.00 -0.00    -0.276 OA 
DOCKED: ATOM     43  N4  UNL     1      17.866   1.136  -0.954 +0.00 -0.00    -0.304 N  
DOCKED: ATOM     44  H45 UNL     1      18.300   0.572  -0.230 +0.00 +0.00    +0.149 HD 
DOCKED: BRANCH  43  45
DOCKED: ATOM     45  C29 UNL     1      18.603   2.343  -1.339 +0.00 +0.00    +0.161 C  
DOCKED: BRANCH  45  46
DOCKED: ATOM     46  C30 UNL     1      19.668   1.900  -2.366 +0.00 +0.00    +0.234 C  
DOCKED: ATOM     47  O7  UNL     1      20.873   2.071  -2.159 +0.00 -0.00    -0.274 OA 
DOCKED: ATOM     48  N5  UNL     1      19.171   1.332  -3.513 +0.00 -0.00    -0.310 N  
DOCKED: ATOM     49  H47 UNL     1      18.179   1.144  -3.581 +0.00 +0.00    +0.149 HD 
DOCKED: BRANCH  48  50
DOCKED: ATOM     50  C31 UNL     1      20.016   0.926  -4.608 +0.00 +0.00    +0.139 C  
DOCKED: BRANCH  50  51
DOCKED: ATOM     51  C32 UNL     1      19.723  -0.493  -5.014 +0.00 -0.00    -0.030 A  
DOCKED: ATOM     52  C33 UNL     1      19.869  -1.546  -4.101 +0.00 +0.00    +0.005 A  
DOCKED: ATOM     53  C34 UNL     1      19.586  -2.858  -4.484 +0.00 +0.00    +0.000 A  
DOCKED: ATOM     54  C35 UNL     1      19.146  -3.129  -5.778 +0.00 +0.00    +0.000 A  
DOCKED: ATOM     55  C36 UNL     1      18.978  -2.085  -6.688 +0.00 +0.00    +0.000 A  
DOCKED: ATOM     56  C37 UNL     1      19.264  -0.774  -6.308 +0.00 +0.00    +0.005 A  
DOCKED: ENDBRANCH  50  51
DOCKED: ENDBRANCH  48  50
DOCKED: ENDBRANCH  45  46
DOCKED: BRANCH  45  57
DOCKED: ATOM     57  C38 UNL     1      19.182   3.064  -0.097 +0.00 +0.00    +0.012 C  
DOCKED: ATOM     58  C39 UNL     1      19.793   4.429  -0.429 +0.00 +0.00    +0.009 C  
DOCKED: ATOM     59  C40 UNL     1      18.162   3.205   1.034 +0.00 +0.00    +0.009 C  
DOCKED: ENDBRANCH  45  57
DOCKED: ENDBRANCH  43  45
DOCKED: ENDBRANCH  39  41
DOCKED: ENDBRANCH  38  39
DOCKED: ENDBRANCH  35  38
DOCKED: ENDBRANCH   1  35
DOCKED: TORSDOF 23
DOCKED: TER
DOCKED: ENDMDL
________________________________________________________________________________


    FINAL DOCKED STATE:
    ________________________


Run:   2 / 20
Time taken for this run:   2.402s

DOCKED: MODEL        2
DOCKED: USER    Run = 2
DOCKED: USER
DOCKED: USER    Estimated Free Energy of Binding    =  +6.86 kcal/mol  [=(1)+(2)+(3)-(4)]
DOCKED: USER
DOCKED: USER    (1) Final Intermolecular Energy     =  +0.00 kcal/mol
DOCKED: USER        vdW + Hbond + desolv Energy     =  +0.00 kcal/mol
DOCKED: USER        Electrostatic Energy            =  +0.00 kcal/mol
DOCKED: USER        Moving Ligand-Fixed Receptor    =  +0.00 kcal/mol
DOCKED: USER        Moving Ligand-Moving Receptor   =  +0.00 kcal/mol
DOCKED: USER    (2) Final Total Internal Energy     = -15.93 kcal/mol
DOCKED: USER    (3) Torsional Free Energy           =  +6.86 kcal/mol
DOCKED: USER    (4) Unbound System's Energy         = -15.93 kcal/mol
DOCKED: USER
DOCKED: USER
DOCKED: REMARK  Name = ligands/ligand_5.pdb
DOCKED: REMARK  32 active torsions:
DOCKED: REMARK  status: ('A' for Active; 'I' for Inactive)
DOCKED: REMARK    1  A    between atoms: C1_1  and  S1_2
DOCKED: REMARK    2  A    between atoms: S1_2  and  C2_3
DOCKED: REMARK    3  A    between atoms: C2_3  and  C3_4
DOCKED: REMARK    4  A    between atoms: C3_4  and  C4_5
DOCKED: REMARK    5  A    between atoms: C4_5  and  N1_6
DOCKED: REMARK    6  A    between atoms: C4_5  and  C15_21
DOCKED: REMARK    7  A    between atoms: C5_7  and  C6_9
DOCKED: REMARK    8  A    between atoms: C6_9  and  N2_10
DOCKED: REMARK    9  A    between atoms: C6_9  and  C12_18
DOCKED: REMARK   10  A    between atoms: C7_11  and  O3_13
DOCKED: REMARK   11  A    between atoms: O3_13  and  C8_14
DOCKED: REMARK   12  A    between atoms: C8_14  and  C9_15
DOCKED: REMARK   13  A    between atoms: C8_14  and  C10_16
DOCKED: REMARK   14  A    between atoms: C8_14  and  C11_17
DOCKED: REMARK   15  A    between atoms: C12_18  and  C13_19
DOCKED: REMARK   16  A    between atoms: C12_18  and  C14_20
DOCKED: REMARK   17  A    between atoms: N3_23  and  C16_24
DOCKED: REMARK   18  A    between atoms: C16_24  and  C17_25
DOCKED: REMARK   19  A    between atoms: C16_24  and  C24_32
DOCKED: REMARK   20  A    between atoms: C17_25  and  C18_26
DOCKED: REMARK   21  A    between atoms: C24_32  and  O5_33
DOCKED: REMARK   22  A    between atoms: C24_32  and  C25_34
DOCKED: REMARK   23  A    between atoms: C25_34  and  C26_35
DOCKED: REMARK   24  A    between atoms: C26_35  and  C27_36
DOCKED: REMARK   25  A    between atoms: C26_35  and  C28_37
DOCKED: REMARK   26  A    between atoms: N4_39  and  C29_40
DOCKED: REMARK   27  A    between atoms: C29_40  and  C30_41
DOCKED: REMARK   28  A    between atoms: C29_40  and  C38_51
DOCKED: REMARK   29  A    between atoms: N5_43  and  C31_44
DOCKED: REMARK   30  A    between atoms: C31_44  and  C32_45
DOCKED: REMARK   31  A    between atoms: C38_51  and  C39_52
DOCKED: REMARK   32  A    between atoms: C38_51  and  C40_53
DOCKED: REMARK                            x       y       z     vdW  Elec       q    Type
DOCKED: REMARK                         _______ _______ _______ _____ _____    ______ ____
DOCKED: USER                              x       y       z     vdW  Elec       q    Type
DOCKED: USER                           _______ _______ _______ _____ _____    ______ ____
DOCKED: ROOT
DOCKED: ATOM      1  C16 UNL     1      15.393  -5.437  -1.575 +0.00 +0.00    +0.106 C  
DOCKED: ENDROOT
DOCKED: BRANCH   1   4
DOCKED: ATOM      2  C15 UNL     1      13.043  -6.013  -0.965 +0.00 +0.00    +0.234 C  
DOCKED: ATOM      3  O4  UNL     1      12.545  -5.211  -1.756 +0.00 -0.00    -0.274 OA 
DOCKED: ATOM      4  N3  UNL     1      14.392  -6.289  -0.915 +0.00 -0.00    -0.308 N  
DOCKED: ATOM      5  H28 UNL     1      14.753  -6.756  -0.086 +0.00 +0.00    +0.149 HD 
DOCKED: BRANCH   2   6
DOCKED: ATOM      6  C4  UNL     1      12.203  -6.814   0.055 +0.00 +0.00    +0.160 C  
DOCKED: BRANCH   6   7
DOCKED: ATOM      7  N1  UNL     1      13.110  -7.772   0.687 +0.00 -0.00    -0.302 N  
DOCKED: ATOM      8  C5  UNL     1      12.694  -9.080   0.865 +0.00 +0.00    +0.234 C  
DOCKED: ATOM      9  O1  UNL     1      11.530  -9.428   0.670 +0.00 -0.00    -0.274 OA 
DOCKED: ATOM     10  H9  UNL     1      14.098  -7.615   0.525 +0.00 +0.00    +0.150 HD 
DOCKED: BRANCH   8  11
DOCKED: ATOM     11  C6  UNL     1      13.811 -10.068   1.292 +0.00 +0.00    +0.165 C  
DOCKED: BRANCH  11  12
DOCKED: ATOM     12  N2  UNL     1      14.400  -9.577   2.531 +0.00 -0.00    -0.270 N  
DOCKED: ATOM     13  C7  UNL     1      15.139  -8.433   2.536 +0.00 +0.00    +0.401 C  
DOCKED: ATOM     14  O2  UNL     1      15.626  -7.908   1.548 +0.00 -0.00    -0.226 OA 
DOCKED: ATOM     15  H11 UNL     1      13.851  -9.672   3.377 +0.00 +0.00    +0.153 HD 
DOCKED: BRANCH  13  16
DOCKED: ATOM     16  O3  UNL     1      15.215  -7.979   3.806 +0.00 -0.00    -0.445 OA 
DOCKED: BRANCH  16  17
DOCKED: ATOM     17  C8  UNL     1      16.271  -8.433   4.693 +0.00 +0.00    +0.107 C  
DOCKED: ATOM     18  C9  UNL     1      15.575  -8.642   6.047 +0.00 +0.00    +0.055 C  
DOCKED: ATOM     19  C10 UNL     1      16.863  -9.767   4.228 +0.00 +0.00    +0.055 C  
DOCKED: ATOM     20  C11 UNL     1      17.352  -7.360   4.860 +0.00 +0.00    +0.055 C  
DOCKED: ENDBRANCH  16  17
DOCKED: ENDBRANCH  13  16
DOCKED: ENDBRANCH  11  12
DOCKED: BRANCH  11  21
DOCKED: ATOM     21  C12 UNL     1      13.276 -11.511   1.431 +0.00 +0.00    +0.012 C  
DOCKED: ATOM     22  C13 UNL     1      14.236 -12.443   2.178 +0.00 +0.00    +0.009 C  
DOCKED: ATOM     23  C14 UNL     1      12.935 -12.104   0.059 +0.00 +0.00    +0.009 C  
DOCKED: ENDBRANCH  11  21
DOCKED: ENDBRANCH   8  11
DOCKED: ENDBRANCH   6   7
DOCKED: BRANCH   6  24
DOCKED: ATOM     24  C3  UNL     1      11.573  -5.897   1.105 +0.00 +0.00    +0.042 C  
DOCKED: BRANCH  24  25
DOCKED: ATOM     25  C2  UNL     1      11.055  -6.663   2.319 +0.00 +0.00    +0.071 C  
DOCKED: BRANCH  25  27
DOCKED: ATOM     26  C1  UNL     1      11.961  -8.282   4.354 +0.00 +0.00    +0.084 C  
DOCKED: ATOM     27  S1  UNL     1      12.316  -6.664   3.634 +0.00 -0.00    -0.164 S  
DOCKED: ENDBRANCH  25  27
DOCKED: ENDBRANCH  24  25
DOCKED: ENDBRANCH   6  24
DOCKED: ENDBRANCH   2   6
DOCKED: ENDBRANCH   1   4
DOCKED: BRANCH   1  28
DOCKED: ATOM     28  C17 UNL     1      15.508  -4.101  -0.795 +0.00 +0.00    +0.060 C  
DOCKED: BRANCH  28  29
DOCKED: ATOM     29  C18 UNL     1      15.305  -4.209   0.700 +0.00 -0.00    -0.046 A  
DOCKED: ATOM     30  C19 UNL     1      14.177  -3.656   1.324 +0.00 +0.00    +0.004 A  
DOCKED: ATOM     31  C20 UNL     1      14.013  -3.761   2.707 +0.00 +0.00    +0.000 A  
DOCKED: ATOM     32  C21 UNL     1      14.962  -4.432   3.475 +0.00 +0.00    +0.000 A  
DOCKED: ATOM     33  C22 UNL     1      16.074  -5.001   2.863 +0.00 +0.00    +0.000 A  
DOCKED: ATOM     34  C23 UNL     1      16.246  -4.892   1.483 +0.00 +0.00    +0.004 A  
DOCKED: ENDBRANCH  28  29
DOCKED: ENDBRANCH   1  28
DOCKED: BRANCH   1  35
DOCKED: ATOM     35  C24 UNL     1      16.744  -6.204  -1.630 +0.00 +0.00    +0.136 C  
DOCKED: BRANCH  35  36
DOCKED: ATOM     36  O5  UNL     1      16.799  -7.062  -0.472 +0.00 -0.00    -0.390 OA 
DOCKED: ATOM     37  H38 UNL     1      15.955  -7.547  -0.441 +0.00 +0.00    +0.210 HD 
DOCKED: ENDBRANCH  35  36
DOCKED: BRANCH  35  38
DOCKED: ATOM     38  C25 UNL     1      16.921  -7.105  -2.871 +0.00 +0.00    +0.045 C  
DOCKED: BRANCH  38  39
DOCKED: ATOM     39  C26 UNL     1      15.753  -8.074  -3.127 +0.00 +0.00    +0.074 C  
DOCKED: ATOM     40  C27 UNL     1      15.940  -8.815  -4.452 +0.00 +0.00    +0.017 C  
DOCKED: BRANCH  39  41
DOCKED: ATOM     41  C28 UNL     1      15.546  -9.065  -1.992 +0.00 +0.00    +0.217 C  
DOCKED: ATOM     42  O6  UNL     1      14.912  -8.762  -0.984 +0.00 -0.00    -0.276 OA 
DOCKED: ATOM     43  N4  UNL     1      16.149 -10.282  -2.149 +0.00 -0.00    -0.304 N  
DOCKED: ATOM     44  H45 UNL     1      16.735 -10.481  -2.954 +0.00 +0.00    +0.149 HD 
DOCKED: BRANCH  43  45
DOCKED: ATOM     45  C29 UNL     1      16.153 -11.305  -1.100 +0.00 +0.00    +0.161 C  
DOCKED: BRANCH  45  46
DOCKED: ATOM     46  C30 UNL     1      17.394 -11.032  -0.223 +0.00 +0.00    +0.234 C  
DOCKED: ATOM     47  O7  UNL     1      18.287 -11.873  -0.089 +0.00 -0.00    -0.274 OA 
DOCKED: ATOM     48  N5  UNL     1      17.410  -9.808   0.399 +0.00 -0.00    -0.310 N  
DOCKED: ATOM     49  H47 UNL     1      16.690  -9.132   0.179 +0.00 +0.00    +0.149 HD 
DOCKED: BRANCH  48  50
DOCKED: ATOM     50  C31 UNL     1      18.455  -9.412   1.311 +0.00 +0.00    +0.139 C  
DOCKED: BRANCH  50  51
DOCKED: ATOM     51  C32 UNL     1      19.034  -8.080   0.917 +0.00 -0.00    -0.030 A  
DOCKED: ATOM     52  C33 UNL     1      19.625  -7.897  -0.340 +0.00 +0.00    +0.005 A  
DOCKED: ATOM     53  C34 UNL     1      20.152  -6.655  -0.699 +0.00 +0.00    +0.000 A  
DOCKED: ATOM     54  C35 UNL     1      20.083  -5.583   0.189 +0.00 +0.00    +0.000 A  
DOCKED: ATOM     55  C36 UNL     1      19.478  -5.750   1.434 +0.00 +0.00    +0.000 A  
DOCKED: ATOM     56  C37 UNL     1      18.955  -6.992   1.797 +0.00 +0.00    +0.005 A  
DOCKED: ENDBRANCH  50  51
DOCKED: ENDBRANCH  48  50
DOCKED: ENDBRANCH  45  46
DOCKED: BRANCH  45  57
DOCKED: ATOM     57  C38 UNL     1      16.107 -12.728  -1.706 +0.00 +0.00    +0.012 C  
DOCKED: ATOM     58  C39 UNL     1      15.898 -13.821  -0.654 +0.00 +0.00    +0.009 C  
DOCKED: ATOM     59  C40 UNL     1      15.067 -12.865  -2.819 +0.00 +0.00    +0.009 C  
DOCKED: ENDBRANCH  45  57
DOCKED: ENDBRANCH  43  45
DOCKED: ENDBRANCH  39  41
DOCKED: ENDBRANCH  38  39
DOCKED: ENDBRANCH  35  38
DOCKED: ENDBRANCH   1  35
DOCKED: TORSDOF 23
DOCKED: TER
DOCKED: ENDMDL
________________________________________________________________________________


    FINAL DOCKED STATE:
    ________________________


Run:   3 / 20
Time taken for this run:   2.402s

DOCKED: MODEL        3
DOCKED: USER    Run = 3
DOCKED: USER
DOCKED: USER    Estimated Free Energy of Binding    =  +6.86 kcal/mol  [=(1)+(2)+(3)-(4)]
DOCKED: USER
DOCKED: USER    (1) Final Intermolecular Energy     =  +0.00 kcal/mol
DOCKED: USER        vdW + Hbond + desolv Energy     =  +0.00 kcal/mol
DOCKED: USER        Electrostatic Energy            =  +0.00 kcal/mol
DOCKED: USER        Moving Ligand-Fixed Receptor    =  +0.00 kcal/mol
DOCKED: USER        Moving Ligand-Moving Receptor   =  +0.00 kcal/mol
DOCKED: USER    (2) Final Total Internal Energy     = -15.95 kcal/mol
DOCKED: USER    (3) Torsional Free Energy           =  +6.86 kcal/mol
DOCKED: USER    (4) Unbound System's Energy         = -15.95 kcal/mol
DOCKED: USER
DOCKED: USER
DOCKED: REMARK  Name = ligands/ligand_5.pdb
DOCKED: REMARK  32 active torsions:
DOCKED: REMARK  status: ('A' for Active; 'I' for Inactive)
DOCKED: REMARK    1  A    between atoms: C1_1  and  S1_2
DOCKED: REMARK    2  A    between atoms: S1_2  and  C2_3
DOCKED: REMARK    3  A    between atoms: C2_3  and  C3_4
DOCKED: REMARK    4  A    between atoms: C3_4  and  C4_5
DOCKED: REMARK    5  A    between atoms: C4_5  and  N1_6
DOCKED: REMARK    6  A    between atoms: C4_5  and  C15_21
DOCKED: REMARK    7  A    between atoms: C5_7  and  C6_9
DOCKED: REMARK    8  A    between atoms: C6_9  and  N2_10
DOCKED: REMARK    9  A    between atoms: C6_9  and  C12_18
DOCKED: REMARK   10  A    between atoms: C7_11  and  O3_13
DOCKED: REMARK   11  A    between atoms: O3_13  and  C8_14
DOCKED: REMARK   12  A    between atoms: C8_14  and  C9_15
DOCKED: REMARK   13  A    between atoms: C8_14  and  C10_16
DOCKED: REMARK   14  A    between atoms: C8_14  and  C11_17
DOCKED: REMARK   15  A    between atoms: C12_18  and  C13_19
DOCKED: REMARK   16  A    between atoms: C12_18  and  C14_20
DOCKED: REMARK   17  A    between atoms: N3_23  and  C16_24
DOCKED: REMARK   18  A    between atoms: C16_24  and  C17_25
DOCKED: REMARK   19  A    between atoms: C16_24  and  C24_32
DOCKED: REMARK   20  A    between atoms: C17_25  and  C18_26
DOCKED: REMARK   21  A    between atoms: C24_32  and  O5_33
DOCKED: REMARK   22  A    between atoms: C24_32  and  C25_34
DOCKED: REMARK   23  A    between atoms: C25_34  and  C26_35
DOCKED: REMARK   24  A    between atoms: C26_35  and  C27_36
DOCKED: REMARK   25  A    between atoms: C26_35  and  C28_37
DOCKED: REMARK   26  A    between atoms: N4_39  and  C29_40
DOCKED: REMARK   27  A    between atoms: C29_40  and  C30_41
DOCKED: REMARK   28  A    between atoms: C29_40  and  C38_51
DOCKED: REMARK   29  A    between atoms: N5_43  and  C31_44
DOCKED: REMARK   30  A    between atoms: C31_44  and  C32_45
DOCKED: REMARK   31  A    between atoms: C38_51  and  C39_52
DOCKED: REMARK   32  A    between atoms: C38_51  and  C40_53
DOCKED: REMARK                            x       y       z     vdW  Elec       q    Type
DOCKED: REMARK                         _______ _______ _______ _____ _____    ______ ____
DOCKED: USER                              x       y       z     vdW  Elec       q    Type
DOCKED: USER                           _______ _______ _______ _____ _____    ______ ____
DOCKED: ROOT
DOCKED: ATOM      1  C16 UNL     1       5.090  -5.238   1.050 +0.00 +0.00    +0.106 C  
DOCKED: ENDROOT
DOCKED: BRANCH   1   4
DOCKED: ATOM      2  C15 UNL     1       5.596  -3.117   2.262 +0.00 +0.00    +0.234 C  
DOCKED: ATOM      3  O4  UNL     1       4.415  -2.777   2.347 +0.00 -0.00    -0.274 OA 
DOCKED: ATOM      4  N3  UNL     1       5.999  -4.345   1.785 +0.00 -0.00    -0.308 N  
DOCKED: ATOM      5  H28 UNL     1       6.972  -4.454   1.509 +0.00 +0.00    +0.149 HD 
DOCKED: BRANCH   2   6
DOCKED: ATOM      6  C4  UNL     1       6.763  -2.202   2.697 +0.00 +0.00    +0.160 C  
DOCKED: BRANCH   6   7
DOCKED: ATOM      7  N1  UNL     1       7.983  -3.003   2.601 +0.00 -0.00    -0.302 N  
DOCKED: ATOM      8  C5  UNL     1       8.908  -2.950   3.629 +0.00 +0.00    +0.234 C  
DOCKED: ATOM      9  O1  UNL     1       8.827  -2.127   4.541 +0.00 -0.00    -0.274 OA 
DOCKED: ATOM     10  H9  UNL     1       7.897  -3.877   2.096 +0.00 +0.00    +0.150 HD 
DOCKED: BRANCH   8  11
DOCKED: ATOM     11  C6  UNL     1      10.024  -4.026   3.560 +0.00 +0.00    +0.165 C  
DOCKED: BRANCH  11  12
DOCKED: ATOM     12  N2  UNL     1      10.712  -3.883   2.284 +0.00 -0.00    -0.270 N  
DOCKED: ATOM     13  C7  UNL     1      10.075  -4.190   1.120 +0.00 +0.00    +0.401 C  
DOCKED: ATOM     14  O2  UNL     1       9.064  -4.868   1.031 +0.00 -0.00    -0.226 OA 
DOCKED: ATOM     15  H11 UNL     1      11.328  -3.086   2.175 +0.00 +0.00    +0.153 HD 
DOCKED: BRANCH  13  16
DOCKED: ATOM     16  O3  UNL     1      10.739  -3.600   0.101 +0.00 -0.00    -0.445 OA 
DOCKED: BRANCH  16  17
DOCKED: ATOM     17  C8  UNL     1      11.837  -4.282  -0.559 +0.00 +0.00    +0.107 C  
DOCKED: ATOM     18  C9  UNL     1      12.882  -3.182  -0.805 +0.00 +0.00    +0.055 C  
DOCKED: ATOM     19  C10 UNL     1      12.453  -5.359   0.338 +0.00 +0.00    +0.055 C  
DOCKED: ATOM     20  C11 UNL     1      11.401  -4.851  -1.913 +0.00 +0.00    +0.055 C  
DOCKED: ENDBRANCH  16  17
DOCKED: ENDBRANCH  13  16
DOCKED: ENDBRANCH  11  12
DOCKED: BRANCH  11  21
DOCKED: ATOM     21  C12 UNL     1      10.992  -3.925   4.761 +0.00 +0.00    +0.012 C  
DOCKED: ATOM     22  C13 UNL     1      12.286  -4.722   4.564 +0.00 +0.00    +0.009 C  
DOCKED: ATOM     23  C14 UNL     1      10.303  -4.360   6.059 +0.00 +0.00    +0.009 C  
DOCKED: ENDBRANCH  11  21
DOCKED: ENDBRANCH   8  11
DOCKED: ENDBRANCH   6   7
DOCKED: BRANCH   6  24
DOCKED: ATOM     24  C3  UNL     1       6.864  -0.962   1.807 +0.00 +0.00    +0.042 C  
DOCKED: BRANCH  24  25
DOCKED: ATOM     25  C2  UNL     1       8.196  -0.233   1.962 +0.00 +0.00    +0.071 C  
DOCKED: BRANCH  25  27
DOCKED: ATOM     26  C1  UNL     1      10.893  -0.651   1.596 +0.00 +0.00    +0.084 C  
DOCKED: ATOM     27  S1  UNL     1       9.352  -0.777   0.663 +0.00 -0.00    -0.164 S  
DOCKED: ENDBRANCH  25  27
DOCKED: ENDBRANCH  24  25
DOCKED: ENDBRANCH   6  24
DOCKED: ENDBRANCH   2   6
DOCKED: ENDBRANCH   1   4
DOCKED: BRANCH   1  28
DOCKED: ATOM     28  C17 UNL     1       4.822  -4.636  -0.354 +0.00 +0.00    +0.060 C  
DOCKED: BRANCH  28  29
DOCKED: ATOM     29  C18 UNL     1       5.983  -3.881  -0.964 +0.00 -0.00    -0.046 A  
DOCKED: ATOM     30  C19 UNL     1       5.942  -2.488  -1.124 +0.00 +0.00    +0.004 A  
DOCKED: ATOM     31  C20 UNL     1       7.022  -1.812  -1.695 +0.00 +0.00    +0.000 A  
DOCKED: ATOM     32  C21 UNL     1       8.157  -2.515  -2.094 +0.00 +0.00    +0.000 A  
DOCKED: ATOM     33  C22 UNL     1       8.215  -3.895  -1.921 +0.00 +0.00    +0.000 A  
DOCKED: ATOM     34  C23 UNL     1       7.134  -4.575  -1.358 +0.00 +0.00    +0.004 A  
DOCKED: ENDBRANCH  28  29
DOCKED: ENDBRANCH   1  28
DOCKED: BRANCH   1  35
DOCKED: ATOM     35  C24 UNL     1       5.734  -6.651   0.970 +0.00 +0.00    +0.136 C  
DOCKED: BRANCH  35  36
DOCKED: ATOM     36  O5  UNL     1       7.165  -6.471   0.949 +0.00 -0.00    -0.390 OA 
DOCKED: ATOM     37  H38 UNL     1       7.384  -5.865   1.679 +0.00 +0.00    +0.210 HD 
DOCKED: ENDBRANCH  35  36
DOCKED: BRANCH  35  38
DOCKED: ATOM     38  C25 UNL     1       5.411  -7.572   2.167 +0.00 +0.00    +0.045 C  
DOCKED: BRANCH  38  39
DOCKED: ATOM     39  C26 UNL     1       5.684  -6.945   3.545 +0.00 +0.00    +0.074 C  
DOCKED: ATOM     40  C27 UNL     1       5.200  -7.865   4.668 +0.00 +0.00    +0.017 C  
DOCKED: BRANCH  39  41
DOCKED: ATOM     41  C28 UNL     1       7.147  -6.584   3.752 +0.00 +0.00    +0.217 C  
DOCKED: ATOM     42  O6  UNL     1       7.615  -5.533   3.320 +0.00 -0.00    -0.276 OA 
DOCKED: ATOM     43  N4  UNL     1       7.904  -7.519   4.402 +0.00 -0.00    -0.304 N  
DOCKED: ATOM     44  H45 UNL     1       7.513  -8.415   4.678 +0.00 +0.00    +0.149 HD 
DOCKED: BRANCH  43  45
DOCKED: ATOM     45  C29 UNL     1       9.353  -7.384   4.574 +0.00 +0.00    +0.161 C  
DOCKED: BRANCH  45  46
DOCKED: ATOM     46  C30 UNL     1      10.006  -8.017   3.325 +0.00 +0.00    +0.234 C  
DOCKED: ATOM     47  O7  UNL     1      10.772  -8.980   3.416 +0.00 -0.00    -0.274 OA 
DOCKED: ATOM     48  N5  UNL     1       9.685  -7.417   2.133 +0.00 -0.00    -0.310 N  
DOCKED: ATOM     49  H47 UNL     1       8.984  -6.687   2.119 +0.00 +0.00    +0.149 HD 
DOCKED: BRANCH  48  50
DOCKED: ATOM     50  C31 UNL     1      10.258  -7.830   0.875 +0.00 +0.00    +0.139 C  
DOCKED: BRANCH  50  51
DOCKED: ATOM     51  C32 UNL     1       9.181  -8.123  -0.134 +0.00 -0.00    -0.030 A  
DOCKED: ATOM     52  C33 UNL     1       8.214  -9.105   0.112 +0.00 +0.00    +0.005 A  
DOCKED: ATOM     53  C34 UNL     1       7.213  -9.364  -0.827 +0.00 +0.00    +0.000 A  
DOCKED: ATOM     54  C35 UNL     1       7.165  -8.636  -2.014 +0.00 +0.00    +0.000 A  
DOCKED: ATOM     55  C36 UNL     1       8.111  -7.641  -2.259 +0.00 +0.00    +0.000 A  
DOCKED: ATOM     56  C37 UNL     1       9.115  -7.385  -1.324 +0.00 +0.00    +0.005 A  
DOCKED: ENDBRANCH  50  51
DOCKED: ENDBRANCH  48  50
DOCKED: ENDBRANCH  45  46
DOCKED: BRANCH  45  57
DOCKED: ATOM     57  C38 UNL     1       9.817  -8.005   5.914 +0.00 +0.00    +0.012 C  
DOCKED: ATOM     58  C39 UNL     1      11.287  -7.716   6.230 +0.00 +0.00    +0.009 C  
DOCKED: ATOM     59  C40 UNL     1       8.935  -7.593   7.094 +0.00 +0.00    +0.009 C  
DOCKED: ENDBRANCH  45  57
DOCKED: ENDBRANCH  43  45
DOCKED: ENDBRANCH  39  41
DOCKED: ENDBRANCH  38  39
DOCKED: ENDBRANCH  35  38
DOCKED: ENDBRANCH   1  35
DOCKED: TORSDOF 23
DOCKED: TER
DOCKED: ENDMDL
________________________________________________________________________________


    FINAL DOCKED STATE:
    ________________________


Run:   4 / 20
Time taken for this run:   2.402s

DOCKED: MODEL        4
DOCKED: USER    Run = 4
DOCKED: USER
DOCKED: USER    Estimated Free Energy of Binding    =  +6.86 kcal/mol  [=(1)+(2)+(3)-(4)]
DOCKED: USER
DOCKED: USER    (1) Final Intermolecular Energy     =  +0.00 kcal/mol
DOCKED: USER        vdW + Hbond + desolv Energy     =  +0.00 kcal/mol
DOCKED: USER        Electrostatic Energy            =  +0.00 kcal/mol
DOCKED: USER        Moving Ligand-Fixed Receptor    =  +0.00 kcal/mol
DOCKED: USER        Moving Ligand-Moving Receptor   =  +0.00 kcal/mol
DOCKED: USER    (2) Final Total Internal Energy     = -15.94 kcal/mol
DOCKED: USER    (3) Torsional Free Energy           =  +6.86 kcal/mol
DOCKED: USER    (4) Unbound System's Energy         = -15.94 kcal/mol
DOCKED: USER
DOCKED: USER
DOCKED: REMARK  Name = ligands/ligand_5.pdb
DOCKED: REMARK  32 active torsions:
DOCKED: REMARK  status: ('A' for Active; 'I' for Inactive)
DOCKED: REMARK    1  A    between atoms: C1_1  and  S1_2
DOCKED: REMARK    2  A    between atoms: S1_2  and  C2_3
DOCKED: REMARK    3  A    between atoms: C2_3  and  C3_4
DOCKED: REMARK    4  A    between atoms: C3_4  and  C4_5
DOCKED: REMARK    5  A    between atoms: C4_5  and  N1_6
DOCKED: REMARK    6  A    between atoms: C4_5  and  C15_21
DOCKED: REMARK    7  A    between atoms: C5_7  and  C6_9
DOCKED: REMARK    8  A    between atoms: C6_9  and  N2_10
DOCKED: REMARK    9  A    between atoms: C6_9  and  C12_18
DOCKED: REMARK   10  A    between atoms: C7_11  and  O3_13
DOCKED: REMARK   11  A    between atoms: O3_13  and  C8_14
DOCKED: REMARK   12  A    between atoms: C8_14  and  C9_15
DOCKED: REMARK   13  A    between atoms: C8_14  and  C10_16
DOCKED: REMARK   14  A    between atoms: C8_14  and  C11_17
DOCKED: REMARK   15  A    between atoms: C12_18  and  C13_19
DOCKED: REMARK   16  A    between atoms: C12_18  and  C14_20
DOCKED: REMARK   17  A    between atoms: N3_23  and  C16_24
DOCKED: REMARK   18  A    between atoms: C16_24  and  C17_25
DOCKED: REMARK   19  A    between atoms: C16_24  and  C24_32
DOCKED: REMARK   20  A    between atoms: C17_25  and  C18_26
DOCKED: REMARK   21  A    between atoms: C24_32  and  O5_33
DOCKED: REMARK   22  A    between atoms: C24_32  and  C25_34
DOCKED: REMARK   23  A    between atoms: C25_34  and  C26_35
DOCKED: REMARK   24  A    between atoms: C26_35  and  C27_36
DOCKED: REMARK   25  A    between atoms: C26_35  and  C28_37
DOCKED: REMARK   26  A    between atoms: N4_39  and  C29_40
DOCKED: REMARK   27  A    between atoms: C29_40  and  C30_41
DOCKED: REMARK   28  A    between atoms: C29_40  and  C38_51
DOCKED: REMARK   29  A    between atoms: N5_43  and  C31_44
DOCKED: REMARK   30  A    between atoms: C31_44  and  C32_45
DOCKED: REMARK   31  A    between atoms: C38_51  and  C39_52
DOCKED: REMARK   32  A    between atoms: C38_51  and  C40_53
DOCKED: REMARK                            x       y       z     vdW  Elec       q    Type
DOCKED: REMARK                         _______ _______ _______ _____ _____    ______ ____
DOCKED: USER                              x       y       z     vdW  Elec       q    Type
DOCKED: USER                           _______ _______ _______ _____ _____    ______ ____
DOCKED: ROOT
DOCKED: ATOM      1  C16 UNL     1       8.806  -1.705  -0.001 +0.00 +0.00    +0.106 C  
DOCKED: ENDROOT
DOCKED: BRANCH   1   4
DOCKED: ATOM      2  C15 UNL     1      11.164  -1.874  -0.799 +0.00 +0.00    +0.234 C  
DOCKED: ATOM      3  O4  UNL     1      11.548  -2.506   0.186 +0.00 -0.00    -0.274 OA 
DOCKED: ATOM      4  N3  UNL     1       9.841  -1.574  -1.039 +0.00 -0.00    -0.308 N  
DOCKED: ATOM      5  H28 UNL     1       9.632  -0.847  -1.719 +0.00 +0.00    +0.149 HD 
DOCKED: BRANCH   2   6
DOCKED: ATOM      6  C4  UNL     1      12.130  -1.356  -1.888 +0.00 +0.00    +0.160 C  
DOCKED: BRANCH   6   7
DOCKED: ATOM      7  N1  UNL     1      11.299  -0.804  -2.959 +0.00 -0.00    -0.302 N  
DOCKED: ATOM      8  C5  UNL     1      11.609  -1.099  -4.275 +0.00 +0.00    +0.234 C  
DOCKED: ATOM      9  O1  UNL     1      12.656  -1.666  -4.589 +0.00 -0.00    -0.274 OA 
DOCKED: ATOM     10  H9  UNL     1      10.321  -0.667  -2.730 +0.00 +0.00    +0.150 HD 
DOCKED: BRANCH   8  11
DOCKED: ATOM     11  C6  UNL     1      10.525  -0.695  -5.308 +0.00 +0.00    +0.165 C  
DOCKED: BRANCH  11  12
DOCKED: ATOM     12  N2  UNL     1      10.290   0.737  -5.181 +0.00 -0.00    -0.270 N  
DOCKED: ATOM     13  C7  UNL     1       9.693   1.240  -4.064 +0.00 +0.00    +0.401 C  
DOCKED: ATOM     14  O2  UNL     1       9.048   0.588  -3.259 +0.00 -0.00    -0.226 OA 
DOCKED: ATOM     15  H11 UNL     1      11.007   1.359  -5.535 +0.00 +0.00    +0.153 HD 
DOCKED: BRANCH  13  16
DOCKED: ATOM     16  O3  UNL     1       9.958   2.563  -3.997 +0.00 -0.00    -0.445 OA 
DOCKED: BRANCH  16  17
DOCKED: ATOM     17  C8  UNL     1       9.088   3.526  -4.646 +0.00 +0.00    +0.107 C  
DOCKED: ATOM     18  C9  UNL     1      10.045   4.566  -5.249 +0.00 +0.00    +0.055 C  
DOCKED: ATOM     19  C10 UNL     1       8.278   2.882  -5.776 +0.00 +0.00    +0.055 C  
DOCKED: ATOM     20  C11 UNL     1       8.183   4.228  -3.628 +0.00 +0.00    +0.055 C  
DOCKED: ENDBRANCH  16  17
DOCKED: ENDBRANCH  13  16
DOCKED: ENDBRANCH  11  12
DOCKED: BRANCH  11  21
DOCKED: ATOM     21  C12 UNL     1      10.927  -1.096  -6.746 +0.00 +0.00    +0.012 C  
DOCKED: ATOM     22  C13 UNL     1      10.079  -0.413  -7.824 +0.00 +0.00    +0.009 C  
DOCKED: ATOM     23  C14 UNL     1      10.876  -2.617  -6.926 +0.00 +0.00    +0.009 C  
DOCKED: ENDBRANCH  11  21
DOCKED: ENDBRANCH   8  11
DOCKED: ENDBRANCH   6   7
DOCKED: BRANCH   6  24
DOCKED: ATOM     24  C3  UNL     1      13.074  -0.286  -1.338 +0.00 +0.00    +0.042 C  
DOCKED: BRANCH  24  25
DOCKED: ATOM     25  C2  UNL     1      13.782   0.498  -2.439 +0.00 +0.00    +0.071 C  
DOCKED: BRANCH  25  27
DOCKED: ATOM     26  C1  UNL     1      13.212   2.170  -4.551 +0.00 +0.00    +0.084 C  
DOCKED: ATOM     27  S1  UNL     1      12.872   2.039  -2.782 +0.00 -0.00    -0.164 S  
DOCKED: ENDBRANCH  25  27
DOCKED: ENDBRANCH  24  25
DOCKED: ENDBRANCH   6  24
DOCKED: ENDBRANCH   2   6
DOCKED: ENDBRANCH   1   4
DOCKED: BRANCH   1  28
DOCKED: ATOM     28  C17 UNL     1       9.009  -0.586   1.054 +0.00 +0.00    +0.060 C  
DOCKED: BRANCH  28  29
DOCKED: ATOM     29  C18 UNL     1       9.536   0.724   0.511 +0.00 -0.00    -0.046 A  
DOCKED: ATOM     30  C19 UNL     1      10.831   1.168   0.813 +0.00 +0.00    +0.004 A  
DOCKED: ATOM     31  C20 UNL     1      11.296   2.384   0.306 +0.00 +0.00    +0.000 A  
DOCKED: ATOM     32  C21 UNL     1      10.481   3.156  -0.519 +0.00 +0.00    +0.000 A  
DOCKED: ATOM     33  C22 UNL     1       9.201   2.714  -0.841 +0.00 +0.00    +0.000 A  
DOCKED: ATOM     34  C23 UNL     1       8.730   1.504  -0.330 +0.00 +0.00    +0.004 A  
DOCKED: ENDBRANCH  28  29
DOCKED: ENDBRANCH   1  28
DOCKED: BRANCH   1  35
DOCKED: ATOM     35  C24 UNL     1       7.408  -1.629  -0.678 +0.00 +0.00    +0.136 C  
DOCKED: BRANCH  35  36
DOCKED: ATOM     36  O5  UNL     1       7.536  -0.775  -1.834 +0.00 -0.00    -0.390 OA 
DOCKED: ATOM     37  H38 UNL     1       8.308  -1.094  -2.335 +0.00 +0.00    +0.210 HD 
DOCKED: ENDBRANCH  35  36
DOCKED: BRANCH  35  38
DOCKED: ATOM     38  C25 UNL     1       6.860  -2.985  -1.173 +0.00 +0.00    +0.045 C  
DOCKED: BRANCH  38  39
DOCKED: ATOM     39  C26 UNL     1       7.832  -3.778  -2.064 +0.00 +0.00    +0.074 C  
DOCKED: ATOM     40  C27 UNL     1       7.271  -5.165  -2.382 +0.00 +0.00    +0.017 C  
DOCKED: BRANCH  39  41
DOCKED: ATOM     41  C28 UNL     1       8.191  -3.046  -3.348 +0.00 +0.00    +0.217 C  
DOCKED: ATOM     42  O6  UNL     1       9.071  -2.189  -3.372 +0.00 -0.00    -0.276 OA 
DOCKED: ATOM     43  N4  UNL     1       7.442  -3.370  -4.445 +0.00 -0.00    -0.304 N  
DOCKED: ATOM     44  H45 UNL     1       6.667  -4.022  -4.381 +0.00 +0.00    +0.149 HD 
DOCKED: BRANCH  43  45
DOCKED: ATOM     45  C29 UNL     1       7.575  -2.672  -5.727 +0.00 +0.00    +0.161 C  
DOCKED: BRANCH  45  46
DOCKED: ATOM     46  C30 UNL     1       6.608  -1.468  -5.675 +0.00 +0.00    +0.234 C  
DOCKED: ATOM     47  O7  UNL     1       5.685  -1.347  -6.484 +0.00 -0.00    -0.274 OA 
DOCKED: ATOM     48  N5  UNL     1       6.872  -0.552  -4.687 +0.00 -0.00    -0.310 N  
DOCKED: ATOM     49  H47 UNL     1       7.591  -0.754  -4.004 +0.00 +0.00    +0.149 HD 
DOCKED: BRANCH  48  50
DOCKED: ATOM     50  C31 UNL     1       6.117   0.668  -4.536 +0.00 +0.00    +0.139 C  
DOCKED: BRANCH  50  51
DOCKED: ATOM     51  C32 UNL     1       5.592   0.803  -3.132 +0.00 -0.00    -0.030 A  
DOCKED: ATOM     52  C33 UNL     1       4.744  -0.169  -2.586 +0.00 +0.00    +0.005 A  
DOCKED: ATOM     53  C34 UNL     1       4.269  -0.040  -1.279 +0.00 +0.00    +0.000 A  
DOCKED: ATOM     54  C35 UNL     1       4.645   1.056  -0.505 +0.00 +0.00    +0.000 A  
DOCKED: ATOM     55  C36 UNL     1       5.506   2.018  -1.033 +0.00 +0.00    +0.000 A  
DOCKED: ATOM     56  C37 UNL     1       5.978   1.893  -2.339 +0.00 +0.00    +0.005 A  
DOCKED: ENDBRANCH  50  51
DOCKED: ENDBRANCH  48  50
DOCKED: ENDBRANCH  45  46
DOCKED: BRANCH  45  57
DOCKED: ATOM     57  C38 UNL     1       7.325  -3.633  -6.915 +0.00 +0.00    +0.012 C  
DOCKED: ATOM     58  C39 UNL     1       7.665  -3.008  -8.271 +0.00 +0.00    +0.009 C  
DOCKED: ATOM     59  C40 UNL     1       8.048  -4.971  -6.756 +0.00 +0.00    +0.009 C  
DOCKED: ENDBRANCH  45  57
DOCKED: ENDBRANCH  43  45
DOCKED: ENDBRANCH  39  41
DOCKED: ENDBRANCH  38  39
DOCKED: ENDBRANCH  35  38
DOCKED: ENDBRANCH   1  35
DOCKED: TORSDOF 23
DOCKED: TER
DOCKED: ENDMDL
________________________________________________________________________________


    FINAL DOCKED STATE:
    ________________________


Run:   5 / 20
Time taken for this run:   2.402s

DOCKED: MODEL        5
DOCKED: USER    Run = 5
DOCKED: USER
DOCKED: USER    Estimated Free Energy of Binding    =  +6.86 kcal/mol  [=(1)+(2)+(3)-(4)]
DOCKED: USER
DOCKED: USER    (1) Final Intermolecular Energy     =  +0.00 kcal/mol
DOCKED: USER        vdW + Hbond + desolv Energy     =  +0.00 kcal/mol
DOCKED: USER        Electrostatic Energy            =  +0.00 kcal/mol
DOCKED: USER        Moving Ligand-Fixed Receptor    =  +0.00 kcal/mol
DOCKED: USER        Moving Ligand-Moving Receptor   =  +0.00 kcal/mol
DOCKED: USER    (2) Final Total Internal Energy     = -15.99 kcal/mol
DOCKED: USER    (3) Torsional Free Energy           =  +6.86 kcal/mol
DOCKED: USER    (4) Unbound System's Energy         = -15.99 kcal/mol
DOCKED: USER
DOCKED: USER
DOCKED: REMARK  Name = ligands/ligand_5.pdb
DOCKED: REMARK  32 active torsions:
DOCKED: REMARK  status: ('A' for Active; 'I' for Inactive)
DOCKED: REMARK    1  A    between atoms: C1_1  and  S1_2
DOCKED: REMARK    2  A    between atoms: S1_2  and  C2_3
DOCKED: REMARK    3  A    between atoms: C2_3  and  C3_4
DOCKED: REMARK    4  A    between atoms: C3_4  and  C4_5
DOCKED: REMARK    5  A    between atoms: C4_5  and  N1_6
DOCKED: REMARK    6  A    between atoms: C4_5  and  C15_21
DOCKED: REMARK    7  A    between atoms: C5_7  and  C6_9
DOCKED: REMARK    8  A    between atoms: C6_9  and  N2_10
DOCKED: REMARK    9  A    between atoms: C6_9  and  C12_18
DOCKED: REMARK   10  A    between atoms: C7_11  and  O3_13
DOCKED: REMARK   11  A    between atoms: O3_13  and  C8_14
DOCKED: REMARK   12  A    between atoms: C8_14  and  C9_15
DOCKED: REMARK   13  A    between atoms: C8_14  and  C10_16
DOCKED: REMARK   14  A    between atoms: C8_14  and  C11_17
DOCKED: REMARK   15  A    between atoms: C12_18  and  C13_19
DOCKED: REMARK   16  A    between atoms: C12_18  and  C14_20
DOCKED: REMARK   17  A    between atoms: N3_23  and  C16_24
DOCKED: REMARK   18  A    between atoms: C16_24  and  C17_25
DOCKED: REMARK   19  A    between atoms: C16_24  and  C24_32
DOCKED: REMARK   20  A    between atoms: C17_25  and  C18_26
DOCKED: REMARK   21  A    between atoms: C24_32  and  O5_33
DOCKED: REMARK   22  A    between atoms: C24_32  and  C25_34
DOCKED: REMARK   23  A    between atoms: C25_34  and  C26_35
DOCKED: REMARK   24  A    between atoms: C26_35  and  C27_36
DOCKED: REMARK   25  A    between atoms: C26_35  and  C28_37
DOCKED: REMARK   26  A    between atoms: N4_39  and  C29_40
DOCKED: REMARK   27  A    between atoms: C29_40  and  C30_41
DOCKED: REMARK   28  A    between atoms: C29_40  and  C38_51
DOCKED: REMARK   29  A    between atoms: N5_43  and  C31_44
DOCKED: REMARK   30  A    between atoms: C31_44  and  C32_45
DOCKED: REMARK   31  A    between atoms: C38_51  and  C39_52
DOCKED: REMARK   32  A    between atoms: C38_51  and  C40_53
DOCKED: REMARK                            x       y       z     vdW  Elec       q    Type
DOCKED: REMARK                         _______ _______ _______ _____ _____    ______ ____
DOCKED: USER                              x       y       z     vdW  Elec       q    Type
DOCKED: USER                           _______ _______ _______ _____ _____    ______ ____
DOCKED: ROOT
DOCKED: ATOM      1  C16 UNL     1       9.589  -3.661  -4.340 +0.00 +0.00    +0.106 C  
DOCKED: ENDROOT
DOCKED: BRANCH   1   4
DOCKED: ATOM      2  C15 UNL     1      11.189  -5.352  -5.238 +0.00 +0.00    +0.234 C  
DOCKED: ATOM      3  O4  UNL     1      11.511  -4.666  -6.208 +0.00 -0.00    -0.274 OA 
DOCKED: ATOM      4  N3  UNL     1      10.384  -4.893  -4.218 +0.00 -0.00    -0.308 N  
DOCKED: ATOM      5  H28 UNL     1       9.961  -5.579  -3.598 +0.00 +0.00    +0.149 HD 
DOCKED: BRANCH   2   6
DOCKED: ATOM      6  C4  UNL     1      11.665  -6.810  -5.049 +0.00 +0.00    +0.160 C  
DOCKED: BRANCH   6   7
DOCKED: ATOM      7  N1  UNL     1      10.541  -7.548  -4.471 +0.00 -0.00    -0.302 N  
DOCKED: ATOM      8  C5  UNL     1      10.792  -8.694  -3.737 +0.00 +0.00    +0.234 C  
DOCKED: ATOM      9  O1  UNL     1      11.908  -9.212  -3.694 +0.00 -0.00    -0.274 OA 
DOCKED: ATOM     10  H9  UNL     1       9.739  -6.990  -4.205 +0.00 +0.00    +0.150 HD 
DOCKED: BRANCH   8  11
DOCKED: ATOM     11  C6  UNL     1       9.574  -9.245  -2.951 +0.00 +0.00    +0.165 C  
DOCKED: BRANCH  11  12
DOCKED: ATOM     12  N2  UNL     1       9.245  -8.293  -1.899 +0.00 -0.00    -0.270 N  
DOCKED: ATOM     13  C7  UNL     1       8.446  -7.221  -2.166 +0.00 +0.00    +0.401 C  
DOCKED: ATOM     14  O2  UNL     1       8.202  -6.789  -3.281 +0.00 -0.00    -0.226 OA 
DOCKED: ATOM     15  H11 UNL     1       9.076  -8.664  -0.972 +0.00 +0.00    +0.153 HD 
DOCKED: BRANCH  13  16
DOCKED: ATOM     16  O3  UNL     1       7.964  -6.746  -0.997 +0.00 -0.00    -0.445 OA 
DOCKED: BRANCH  16  17
DOCKED: ATOM     17  C8  UNL     1       6.569  -6.936  -0.641 +0.00 +0.00    +0.107 C  
DOCKED: ATOM     18  C9  UNL     1       6.555  -8.226   0.194 +0.00 +0.00    +0.055 C  
DOCKED: ATOM     19  C10 UNL     1       6.045  -5.782   0.219 +0.00 +0.00    +0.055 C  
DOCKED: ATOM     20  C11 UNL     1       5.705  -7.152  -1.888 +0.00 +0.00    +0.055 C  
DOCKED: ENDBRANCH  16  17
DOCKED: ENDBRANCH  13  16
DOCKED: ENDBRANCH  11  12
DOCKED: BRANCH  11  21
DOCKED: ATOM     21  C12 UNL     1       8.372  -9.527  -3.881 +0.00 +0.00    +0.012 C  
DOCKED: ATOM     22  C13 UNL     1       7.168 -10.129  -3.149 +0.00 +0.00    +0.009 C  
DOCKED: ATOM     23  C14 UNL     1       8.782 -10.434  -5.047 +0.00 +0.00    +0.009 C  
DOCKED: ENDBRANCH  11  21
DOCKED: ENDBRANCH   8  11
DOCKED: ENDBRANCH   6   7
DOCKED: BRANCH   6  24
DOCKED: ATOM     24  C3  UNL     1      12.091  -7.437  -6.378 +0.00 +0.00    +0.042 C  
DOCKED: BRANCH  24  25
DOCKED: ATOM     25  C2  UNL     1      11.022  -7.310  -7.459 +0.00 +0.00    +0.071 C  
DOCKED: BRANCH  25  27
DOCKED: ATOM     26  C1  UNL     1      11.516  -9.994  -7.098 +0.00 +0.00    +0.084 C  
DOCKED: ATOM     27  S1  UNL     1      10.200  -8.917  -7.707 +0.00 -0.00    -0.164 S  
DOCKED: ENDBRANCH  25  27
DOCKED: ENDBRANCH  24  25
DOCKED: ENDBRANCH   6  24
DOCKED: ENDBRANCH   2   6
DOCKED: ENDBRANCH   1   4
DOCKED: BRANCH   1  28
DOCKED: ATOM     28  C17 UNL     1       8.689  -3.768  -5.599 +0.00 +0.00    +0.060 C  
DOCKED: BRANCH  28  29
DOCKED: ATOM     29  C18 UNL     1       7.769  -4.968  -5.634 +0.00 -0.00    -0.046 A  
DOCKED: ATOM     30  C19 UNL     1       8.144  -6.154  -6.282 +0.00 +0.00    +0.004 A  
DOCKED: ATOM     31  C20 UNL     1       7.276  -7.248  -6.308 +0.00 +0.00    +0.000 A  
DOCKED: ATOM     32  C21 UNL     1       6.038  -7.175  -5.674 +0.00 +0.00    +0.000 A  
DOCKED: ATOM     33  C22 UNL     1       5.665  -6.009  -5.011 +0.00 +0.00    +0.000 A  
DOCKED: ATOM     34  C23 UNL     1       6.526  -4.911  -4.990 +0.00 +0.00    +0.004 A  
DOCKED: ENDBRANCH  28  29
DOCKED: ENDBRANCH   1  28
DOCKED: BRANCH   1  35
DOCKED: ATOM     35  C24 UNL     1       8.759  -3.471  -3.038 +0.00 +0.00    +0.136 C  
DOCKED: BRANCH  35  36
DOCKED: ATOM     36  O5  UNL     1       8.964  -4.644  -2.223 +0.00 -0.00    -0.390 OA 
DOCKED: ATOM     37  H38 UNL     1       8.084  -5.025  -2.053 +0.00 +0.00    +0.210 HD 
DOCKED: ENDBRANCH  35  36
DOCKED: BRANCH  35  38
DOCKED: ATOM     38  C25 UNL     1       9.170  -2.250  -2.188 +0.00 +0.00    +0.045 C  
DOCKED: BRANCH  38  39
DOCKED: ATOM     39  C26 UNL     1       8.502  -2.183  -0.804 +0.00 +0.00    +0.074 C  
DOCKED: ATOM     40  C27 UNL     1       7.073  -2.727  -0.862 +0.00 +0.00    +0.017 C  
DOCKED: BRANCH  39  41
DOCKED: ATOM     41  C28 UNL     1       9.298  -2.903   0.273 +0.00 +0.00    +0.217 C  
DOCKED: ATOM     42  O6  UNL     1      10.116  -2.308   0.971 +0.00 -0.00    -0.276 OA 
DOCKED: ATOM     43  N4  UNL     1       9.077  -4.249   0.376 +0.00 -0.00    -0.304 N  
DOCKED: ATOM     44  H45 UNL     1       8.456  -4.732  -0.266 +0.00 +0.00    +0.149 HD 
DOCKED: BRANCH  43  45
DOCKED: ATOM     45  C29 UNL     1       9.849  -5.111   1.275 +0.00 +0.00    +0.161 C  
DOCKED: BRANCH  45  46
DOCKED: ATOM     46  C30 UNL     1      11.133  -5.507   0.513 +0.00 +0.00    +0.234 C  
DOCKED: ATOM     47  O7  UNL     1      12.245  -5.429   1.041 +0.00 -0.00    -0.274 OA 
DOCKED: ATOM     48  N5  UNL     1      10.938  -5.923  -0.781 +0.00 -0.00    -0.310 N  
DOCKED: ATOM     49  H47 UNL     1       9.993  -6.045  -1.124 +0.00 +0.00    +0.149 HD 
DOCKED: BRANCH  48  50
DOCKED: ATOM     50  C31 UNL     1      12.028  -6.262  -1.661 +0.00 +0.00    +0.139 C  
DOCKED: BRANCH  50  51
DOCKED: ATOM     51  C32 UNL     1      12.682  -5.023  -2.207 +0.00 -0.00    -0.030 A  
DOCKED: ATOM     52  C33 UNL     1      13.810  -5.110  -3.034 +0.00 +0.00    +0.005 A  
DOCKED: ATOM     53  C34 UNL     1      14.405  -3.954  -3.543 +0.00 +0.00    +0.000 A  
DOCKED: ATOM     54  C35 UNL     1      13.873  -2.703  -3.239 +0.00 +0.00    +0.000 A  
DOCKED: ATOM     55  C36 UNL     1      12.739  -2.606  -2.434 +0.00 +0.00    +0.000 A  
DOCKED: ATOM     56  C37 UNL     1      12.145  -3.760  -1.920 +0.00 +0.00    +0.005 A  
DOCKED: ENDBRANCH  50  51
DOCKED: ENDBRANCH  48  50
DOCKED: ENDBRANCH  45  46
DOCKED: BRANCH  45  57
DOCKED: ATOM     57  C38 UNL     1       9.003  -6.315   1.757 +0.00 +0.00    +0.012 C  
DOCKED: ATOM     58  C39 UNL     1       9.788  -7.629   1.773 +0.00 +0.00    +0.009 C  
DOCKED: ATOM     59  C40 UNL     1       8.354  -6.074   3.121 +0.00 +0.00    +0.009 C  
DOCKED: ENDBRANCH  45  57
DOCKED: ENDBRANCH  43  45
DOCKED: ENDBRANCH  39  41
DOCKED: ENDBRANCH  38  39
DOCKED: ENDBRANCH  35  38
DOCKED: ENDBRANCH   1  35
DOCKED: TORSDOF 23
DOCKED: TER
DOCKED: ENDMDL
________________________________________________________________________________


    FINAL DOCKED STATE:
    ________________________


Run:   6 / 20
Time taken for this run:   2.402s

DOCKED: MODEL        6
DOCKED: USER    Run = 6
DOCKED: USER
DOCKED: USER    Estimated Free Energy of Binding    =  +6.86 kcal/mol  [=(1)+(2)+(3)-(4)]
DOCKED: USER
DOCKED: USER    (1) Final Intermolecular Energy     =  +0.00 kcal/mol
DOCKED: USER        vdW + Hbond + desolv Energy     =  +0.00 kcal/mol
DOCKED: USER        Electrostatic Energy            =  +0.00 kcal/mol
DOCKED: USER        Moving Ligand-Fixed Receptor    =  +0.00 kcal/mol
DOCKED: USER        Moving Ligand-Moving Receptor   =  +0.00 kcal/mol
DOCKED: USER    (2) Final Total Internal Energy     = -15.94 kcal/mol
DOCKED: USER    (3) Torsional Free Energy           =  +6.86 kcal/mol
DOCKED: USER    (4) Unbound System's Energy         = -15.94 kcal/mol
DOCKED: USER
DOCKED: USER
DOCKED: REMARK  Name = ligands/ligand_5.pdb
DOCKED: REMARK  32 active torsions:
DOCKED: REMARK  status: ('A' for Active; 'I' for Inactive)
DOCKED: REMARK    1  A    between atoms: C1_1  and  S1_2
DOCKED: REMARK    2  A    between atoms: S1_2  and  C2_3
DOCKED: REMARK    3  A    between atoms: C2_3  and  C3_4
DOCKED: REMARK    4  A    between atoms: C3_4  and  C4_5
DOCKED: REMARK    5  A    between atoms: C4_5  and  N1_6
DOCKED: REMARK    6  A    between atoms: C4_5  and  C15_21
DOCKED: REMARK    7  A    between atoms: C5_7  and  C6_9
DOCKED: REMARK    8  A    between atoms: C6_9  and  N2_10
DOCKED: REMARK    9  A    between atoms: C6_9  and  C12_18
DOCKED: REMARK   10  A    between atoms: C7_11  and  O3_13
DOCKED: REMARK   11  A    between atoms: O3_13  and  C8_14
DOCKED: REMARK   12  A    between atoms: C8_14  and  C9_15
DOCKED: REMARK   13  A    between atoms: C8_14  and  C10_16
DOCKED: REMARK   14  A    between atoms: C8_14  and  C11_17
DOCKED: REMARK   15  A    between atoms: C12_18  and  C13_19
DOCKED: REMARK   16  A    between atoms: C12_18  and  C14_20
DOCKED: REMARK   17  A    between atoms: N3_23  and  C16_24
DOCKED: REMARK   18  A    between atoms: C16_24  and  C17_25
DOCKED: REMARK   19  A    between atoms: C16_24  and  C24_32
DOCKED: REMARK   20  A    between atoms: C17_25  and  C18_26
DOCKED: REMARK   21  A    between atoms: C24_32  and  O5_33
DOCKED: REMARK   22  A    between atoms: C24_32  and  C25_34
DOCKED: REMARK   23  A    between atoms: C25_34  and  C26_35
DOCKED: REMARK   24  A    between atoms: C26_35  and  C27_36
DOCKED: REMARK   25  A    between atoms: C26_35  and  C28_37
DOCKED: REMARK   26  A    between atoms: N4_39  and  C29_40
DOCKED: REMARK   27  A    between atoms: C29_40  and  C30_41
DOCKED: REMARK   28  A    between atoms: C29_40  and  C38_51
DOCKED: REMARK   29  A    between atoms: N5_43  and  C31_44
DOCKED: REMARK   30  A    between atoms: C31_44  and  C32_45
DOCKED: REMARK   31  A    between atoms: C38_51  and  C39_52
DOCKED: REMARK   32  A    between atoms: C38_51  and  C40_53
DOCKED: REMARK                            x       y       z     vdW  Elec       q    Type
DOCKED: REMARK                         _______ _______ _______ _____ _____    ______ ____
DOCKED: USER                              x       y       z     vdW  Elec       q    Type
DOCKED: USER                           _______ _______ _______ _____ _____    ______ ____
DOCKED: ROOT
DOCKED: ATOM      1  C16 UNL     1      10.365  -0.251   0.707 +0.00 +0.00    +0.106 C  
DOCKED: ENDROOT
DOCKED: BRANCH   1   4
DOCKED: ATOM      2  C15 UNL     1      12.319  -1.093   2.010 +0.00 +0.00    +0.234 C  
DOCKED: ATOM      3  O4  UNL     1      11.751  -0.995   3.099 +0.00 -0.00    -0.274 OA 
DOCKED: ATOM      4  N3  UNL     1      11.684  -0.895   0.804 +0.00 -0.00    -0.308 N  
DOCKED: ATOM      5  H28 UNL     1      12.262  -0.743  -0.020 +0.00 +0.00    +0.149 HD 
DOCKED: BRANCH   2   6
DOCKED: ATOM      6  C4  UNL     1      13.813  -1.465   1.877 +0.00 +0.00    +0.160 C  
DOCKED: BRANCH   6   7
DOCKED: ATOM      7  N1  UNL     1      14.078  -1.635   0.448 +0.00 -0.00    -0.302 N  
DOCKED: ATOM      8  C5  UNL     1      14.828  -2.719   0.025 +0.00 +0.00    +0.234 C  
DOCKED: ATOM      9  O1  UNL     1      15.426  -3.449   0.815 +0.00 -0.00    -0.274 OA 
DOCKED: ATOM     10  H9  UNL     1      13.356  -1.296  -0.177 +0.00 +0.00    +0.150 HD 
DOCKED: BRANCH   8  11
DOCKED: ATOM     11  C6  UNL     1      14.824  -2.957  -1.508 +0.00 +0.00    +0.165 C  
DOCKED: BRANCH  11  12
DOCKED: ATOM     12  N2  UNL     1      15.319  -1.749  -2.155 +0.00 -0.00    -0.270 N  
DOCKED: ATOM     13  C7  UNL     1      14.578  -0.605  -2.135 +0.00 +0.00    +0.401 C  
DOCKED: ATOM     14  O2  UNL     1      13.386  -0.546  -1.885 +0.00 -0.00    -0.226 OA 
DOCKED: ATOM     15  H11 UNL     1      16.310  -1.555  -2.082 +0.00 +0.00    +0.153 HD 
DOCKED: BRANCH  13  16
DOCKED: ATOM     16  O3  UNL     1      15.393   0.436  -2.414 +0.00 -0.00    -0.445 OA 
DOCKED: BRANCH  16  17
DOCKED: ATOM     17  C8  UNL     1      15.624   0.848  -3.787 +0.00 +0.00    +0.107 C  
DOCKED: ATOM     18  C9  UNL     1      17.124   1.177  -3.845 +0.00 +0.00    +0.055 C  
DOCKED: ATOM     19  C10 UNL     1      15.325  -0.285  -4.773 +0.00 +0.00    +0.055 C  
DOCKED: ATOM     20  C11 UNL     1      14.833   2.117  -4.123 +0.00 +0.00    +0.055 C  
DOCKED: ENDBRANCH  16  17
DOCKED: ENDBRANCH  13  16
DOCKED: ENDBRANCH  11  12
DOCKED: BRANCH  11  21
DOCKED: ATOM     21  C12 UNL     1      15.648  -4.206  -1.895 +0.00 +0.00    +0.012 C  
DOCKED: ATOM     22  C13 UNL     1      15.960  -4.285  -3.393 +0.00 +0.00    +0.009 C  
DOCKED: ATOM     23  C14 UNL     1      14.945  -5.490  -1.440 +0.00 +0.00    +0.009 C  
DOCKED: ENDBRANCH  11  21
DOCKED: ENDBRANCH   8  11
DOCKED: ENDBRANCH   6   7
DOCKED: BRANCH   6  24
DOCKED: ATOM     24  C3  UNL     1      14.716  -0.377   2.463 +0.00 +0.00    +0.042 C  
DOCKED: BRANCH  24  25
DOCKED: ATOM     25  C2  UNL     1      16.171  -0.523   2.027 +0.00 +0.00    +0.071 C  
DOCKED: BRANCH  25  27
DOCKED: ATOM     26  C1  UNL     1      17.714  -0.492  -0.254 +0.00 +0.00    +0.084 C  
DOCKED: ATOM     27  S1  UNL     1      16.494   0.543   0.585 +0.00 -0.00    -0.164 S  
DOCKED: ENDBRANCH  25  27
DOCKED: ENDBRANCH  24  25
DOCKED: ENDBRANCH   6  24
DOCKED: ENDBRANCH   2   6
DOCKED: ENDBRANCH   1   4
DOCKED: BRANCH   1  28
DOCKED: ATOM     28  C17 UNL     1      10.519   1.258   1.030 +0.00 +0.00    +0.060 C  
DOCKED: BRANCH  28  29
DOCKED: ATOM     29  C18 UNL     1      11.824   1.882   0.589 +0.00 -0.00    -0.046 A  
DOCKED: ATOM     30  C19 UNL     1      12.785   2.296   1.523 +0.00 +0.00    +0.004 A  
DOCKED: ATOM     31  C20 UNL     1      13.982   2.875   1.094 +0.00 +0.00    +0.000 A  
DOCKED: ATOM     32  C21 UNL     1      14.236   3.030  -0.267 +0.00 +0.00    +0.000 A  
DOCKED: ATOM     33  C22 UNL     1      13.298   2.605  -1.201 +0.00 +0.00    +0.000 A  
DOCKED: ATOM     34  C23 UNL     1      12.097   2.033  -0.777 +0.00 +0.00    +0.004 A  
DOCKED: ENDBRANCH  28  29
DOCKED: ENDBRANCH   1  28
DOCKED: BRANCH   1  35
DOCKED: ATOM     35  C24 UNL     1       9.795  -0.492  -0.719 +0.00 +0.00    +0.136 C  
DOCKED: BRANCH  35  36
DOCKED: ATOM     36  O5  UNL     1      10.915  -0.569  -1.624 +0.00 -0.00    -0.390 OA 
DOCKED: ATOM     37  H38 UNL     1      11.547  -1.201  -1.237 +0.00 +0.00    +0.210 HD 
DOCKED: ENDBRANCH  35  36
DOCKED: BRANCH  35  38
DOCKED: ATOM     38  C25 UNL     1       8.994  -1.803  -0.876 +0.00 +0.00    +0.045 C  
DOCKED: BRANCH  38  39
DOCKED: ATOM     39  C26 UNL     1       9.727  -3.061  -0.379 +0.00 +0.00    +0.074 C  
DOCKED: ATOM     40  C27 UNL     1       8.806  -4.283  -0.426 +0.00 +0.00    +0.017 C  
DOCKED: BRANCH  39  41
DOCKED: ATOM     41  C28 UNL     1      11.012  -3.339  -1.144 +0.00 +0.00    +0.217 C  
DOCKED: ATOM     42  O6  UNL     1      12.062  -2.767  -0.859 +0.00 -0.00    -0.276 OA 
DOCKED: ATOM     43  N4  UNL     1      10.906  -4.219  -2.184 +0.00 -0.00    -0.304 N  
DOCKED: ATOM     44  H45 UNL     1      10.010  -4.616  -2.451 +0.00 +0.00    +0.149 HD 
DOCKED: BRANCH  43  45
DOCKED: ATOM     45  C29 UNL     1      12.017  -4.503  -3.097 +0.00 +0.00    +0.161 C  
DOCKED: BRANCH  45  46
DOCKED: ATOM     46  C30 UNL     1      11.929  -3.462  -4.235 +0.00 +0.00    +0.234 C  
DOCKED: ATOM     47  O7  UNL     1      11.783  -3.804  -5.412 +0.00 -0.00    -0.274 OA 
DOCKED: ATOM     48  N5  UNL     1      12.046  -2.153  -3.838 +0.00 -0.00    -0.310 N  
DOCKED: ATOM     49  H47 UNL     1      12.078  -1.937  -2.849 +0.00 +0.00    +0.149 HD 
DOCKED: BRANCH  48  50
DOCKED: ATOM     50  C31 UNL     1      12.058  -1.054  -4.772 +0.00 +0.00    +0.139 C  
DOCKED: BRANCH  50  51
DOCKED: ATOM     51  C32 UNL     1      11.042  -0.013  -4.389 +0.00 -0.00    -0.030 A  
DOCKED: ATOM     52  C33 UNL     1       9.682  -0.335  -4.302 +0.00 +0.00    +0.005 A  
DOCKED: ATOM     53  C34 UNL     1       8.748   0.637  -3.937 +0.00 +0.00    +0.000 A  
DOCKED: ATOM     54  C35 UNL     1       9.166   1.934  -3.646 +0.00 +0.00    +0.000 A  
DOCKED: ATOM     55  C36 UNL     1      10.520   2.258  -3.709 +0.00 +0.00    +0.000 A  
DOCKED: ATOM     56  C37 UNL     1      11.455   1.291  -4.078 +0.00 +0.00    +0.005 A  
DOCKED: ENDBRANCH  50  51
DOCKED: ENDBRANCH  48  50
DOCKED: ENDBRANCH  45  46
DOCKED: BRANCH  45  57
DOCKED: ATOM     57  C38 UNL     1      11.982  -5.973  -3.580 +0.00 +0.00    +0.012 C  
DOCKED: ATOM     58  C39 UNL     1      13.242  -6.380  -4.350 +0.00 +0.00    +0.009 C  
DOCKED: ATOM     59  C40 UNL     1      11.717  -6.963  -2.445 +0.00 +0.00    +0.009 C  
DOCKED: ENDBRANCH  45  57
DOCKED: ENDBRANCH  43  45
DOCKED: ENDBRANCH  39  41
DOCKED: ENDBRANCH  38  39
DOCKED: ENDBRANCH  35  38
DOCKED: ENDBRANCH   1  35
DOCKED: TORSDOF 23
DOCKED: TER
DOCKED: ENDMDL
________________________________________________________________________________


    FINAL DOCKED STATE:
    ________________________


Run:   7 / 20
Time taken for this run:   2.402s

DOCKED: MODEL        7
DOCKED: USER    Run = 7
DOCKED: USER
DOCKED: USER    Estimated Free Energy of Binding    =  +6.86 kcal/mol  [=(1)+(2)+(3)-(4)]
DOCKED: USER
DOCKED: USER    (1) Final Intermolecular Energy     =  +0.00 kcal/mol
DOCKED: USER        vdW + Hbond + desolv Energy     =  +0.00 kcal/mol
DOCKED: USER        Electrostatic Energy            =  +0.00 kcal/mol
DOCKED: USER        Moving Ligand-Fixed Receptor    =  +0.00 kcal/mol
DOCKED: USER        Moving Ligand-Moving Receptor   =  +0.00 kcal/mol
DOCKED: USER    (2) Final Total Internal Energy     = -15.93 kcal/mol
DOCKED: USER    (3) Torsional Free Energy           =  +6.86 kcal/mol
DOCKED: USER    (4) Unbound System's Energy         = -15.93 kcal/mol
DOCKED: USER
DOCKED: USER
DOCKED: REMARK  Name = ligands/ligand_5.pdb
DOCKED: REMARK  32 active torsions:
DOCKED: REMARK  status: ('A' for Active; 'I' for Inactive)
DOCKED: REMARK    1  A    between atoms: C1_1  and  S1_2
DOCKED: REMARK    2  A    between atoms: S1_2  and  C2_3
DOCKED: REMARK    3  A    between atoms: C2_3  and  C3_4
DOCKED: REMARK    4  A    between atoms: C3_4  and  C4_5
DOCKED: REMARK    5  A    between atoms: C4_5  and  N1_6
DOCKED: REMARK    6  A    between atoms: C4_5  and  C15_21
DOCKED: REMARK    7  A    between atoms: C5_7  and  C6_9
DOCKED: REMARK    8  A    between atoms: C6_9  and  N2_10
DOCKED: REMARK    9  A    between atoms: C6_9  and  C12_18
DOCKED: REMARK   10  A    between atoms: C7_11  and  O3_13
DOCKED: REMARK   11  A    between atoms: O3_13  and  C8_14
DOCKED: REMARK   12  A    between atoms: C8_14  and  C9_15
DOCKED: REMARK   13  A    between atoms: C8_14  and  C10_16
DOCKED: REMARK   14  A    between atoms: C8_14  and  C11_17
DOCKED: REMARK   15  A    between atoms: C12_18  and  C13_19
DOCKED: REMARK   16  A    between atoms: C12_18  and  C14_20
DOCKED: REMARK   17  A    between atoms: N3_23  and  C16_24
DOCKED: REMARK   18  A    between atoms: C16_24  and  C17_25
DOCKED: REMARK   19  A    between atoms: C16_24  and  C24_32
DOCKED: REMARK   20  A    between atoms: C17_25  and  C18_26
DOCKED: REMARK   21  A    between atoms: C24_32  and  O5_33
DOCKED: REMARK   22  A    between atoms: C24_32  and  C25_34
DOCKED: REMARK   23  A    between atoms: C25_34  and  C26_35
DOCKED: REMARK   24  A    between atoms: C26_35  and  C27_36
DOCKED: REMARK   25  A    between atoms: C26_35  and  C28_37
DOCKED: REMARK   26  A    between atoms: N4_39  and  C29_40
DOCKED: REMARK   27  A    between atoms: C29_40  and  C30_41
DOCKED: REMARK   28  A    between atoms: C29_40  and  C38_51
DOCKED: REMARK   29  A    between atoms: N5_43  and  C31_44
DOCKED: REMARK   30  A    between atoms: C31_44  and  C32_45
DOCKED: REMARK   31  A    between atoms: C38_51  and  C39_52
DOCKED: REMARK   32  A    between atoms: C38_51  and  C40_53
DOCKED: REMARK                            x       y       z     vdW  Elec       q    Type
DOCKED: REMARK                         _______ _______ _______ _____ _____    ______ ____
DOCKED: USER                              x       y       z     vdW  Elec       q    Type
DOCKED: USER                           _______ _______ _______ _____ _____    ______ ____
DOCKED: ROOT
DOCKED: ATOM      1  C16 UNL     1       9.107  -3.416  -9.030 +0.00 +0.00    +0.106 C  
DOCKED: ENDROOT
DOCKED: BRANCH   1   4
DOCKED: ATOM      2  C15 UNL     1      11.103  -2.760  -7.684 +0.00 +0.00    +0.234 C  
DOCKED: ATOM      3  O4  UNL     1      11.061  -1.578  -8.029 +0.00 -0.00    -0.274 OA 
DOCKED: ATOM      4  N3  UNL     1      10.126  -3.677  -8.001 +0.00 -0.00    -0.308 N  
DOCKED: ATOM      5  H28 UNL     1      10.350  -4.665  -7.905 +0.00 +0.00    +0.149 HD 
DOCKED: BRANCH   2   6
DOCKED: ATOM      6  C4  UNL     1      12.259  -3.343  -6.841 +0.00 +0.00    +0.160 C  
DOCKED: BRANCH   6   7
DOCKED: ATOM      7  N1  UNL     1      11.885  -4.719  -6.510 +0.00 -0.00    -0.302 N  
DOCKED: ATOM      8  C5  UNL     1      12.094  -5.184  -5.224 +0.00 +0.00    +0.234 C  
DOCKED: ATOM      9  O1  UNL     1      12.739  -4.544  -4.393 +0.00 -0.00    -0.274 OA 
DOCKED: ATOM     10  H9  UNL     1      11.093  -5.094  -7.018 +0.00 +0.00    +0.150 HD 
DOCKED: BRANCH   8  11
DOCKED: ATOM     11  C6  UNL     1      11.425  -6.547  -4.906 +0.00 +0.00    +0.165 C  
DOCKED: BRANCH  11  12
DOCKED: ATOM     12  N2  UNL     1      11.932  -7.532  -5.852 +0.00 -0.00    -0.270 N  
DOCKED: ATOM     13  C7  UNL     1      11.601  -7.452  -7.171 +0.00 +0.00    +0.401 C  
DOCKED: ATOM     14  O2  UNL     1      10.669  -6.807  -7.623 +0.00 -0.00    -0.226 OA 
DOCKED: ATOM     15  H11 UNL     1      12.884  -7.853  -5.723 +0.00 +0.00    +0.153 HD 
DOCKED: BRANCH  13  16
DOCKED: ATOM     16  O3  UNL     1      12.489  -8.184  -7.879 +0.00 -0.00    -0.445 OA 
DOCKED: BRANCH  16  17
DOCKED: ATOM     17  C8  UNL     1      12.262  -9.599  -8.113 +0.00 +0.00    +0.107 C  
DOCKED: ATOM     18  C9  UNL     1      13.648 -10.244  -7.953 +0.00 +0.00    +0.055 C  
DOCKED: ATOM     19  C10 UNL     1      11.312 -10.197  -7.072 +0.00 +0.00    +0.055 C  
DOCKED: ATOM     20  C11 UNL     1      11.769  -9.851  -9.542 +0.00 +0.00    +0.055 C  
DOCKED: ENDBRANCH  16  17
DOCKED: ENDBRANCH  13  16
DOCKED: ENDBRANCH  11  12
DOCKED: BRANCH  11  21
DOCKED: ATOM     21  C12 UNL     1      11.661  -6.971  -3.438 +0.00 +0.00    +0.012 C  
DOCKED: ATOM     22  C13 UNL     1      11.341  -8.447  -3.177 +0.00 +0.00    +0.009 C  
DOCKED: ATOM     23  C14 UNL     1      10.862  -6.086  -2.475 +0.00 +0.00    +0.009 C  
DOCKED: ENDBRANCH  11  21
DOCKED: ENDBRANCH   8  11
DOCKED: ENDBRANCH   6   7
DOCKED: BRANCH   6  24
DOCKED: ATOM     24  C3  UNL     1      13.582  -3.318  -7.610 +0.00 +0.00    +0.042 C  
DOCKED: BRANCH  24  25
DOCKED: ATOM     25  C2  UNL     1      14.648  -4.207  -6.976 +0.00 +0.00    +0.071 C  
DOCKED: BRANCH  25  27
DOCKED: ATOM     26  C1  UNL     1      15.122  -6.854  -6.384 +0.00 +0.00    +0.084 C  
DOCKED: ATOM     27  S1  UNL     1      14.669  -5.831  -7.802 +0.00 -0.00    -0.164 S  
DOCKED: ENDBRANCH  25  27
DOCKED: ENDBRANCH  24  25
DOCKED: ENDBRANCH   6  24
DOCKED: ENDBRANCH   2   6
DOCKED: ENDBRANCH   1   4
DOCKED: BRANCH   1  28
DOCKED: ATOM     28  C17 UNL     1       9.785  -3.442 -10.424 +0.00 +0.00    +0.060 C  
DOCKED: BRANCH  28  29
DOCKED: ATOM     29  C18 UNL     1      10.925  -4.426 -10.569 +0.00 -0.00    -0.046 A  
DOCKED: ATOM     30  C19 UNL     1      12.251  -3.990 -10.698 +0.00 +0.00    +0.004 A  
DOCKED: ATOM     31  C20 UNL     1      13.288  -4.915 -10.836 +0.00 +0.00    +0.000 A  
DOCKED: ATOM     32  C21 UNL     1      13.014  -6.281 -10.829 +0.00 +0.00    +0.000 A  
DOCKED: ATOM     33  C22 UNL     1      11.703  -6.724 -10.682 +0.00 +0.00    +0.000 A  
DOCKED: ATOM     34  C23 UNL     1      10.663  -5.803 -10.551 +0.00 +0.00    +0.004 A  
DOCKED: ENDBRANCH  28  29
DOCKED: ENDBRANCH   1  28
DOCKED: BRANCH   1  35
DOCKED: ATOM     35  C24 UNL     1       7.983  -4.483  -8.902 +0.00 +0.00    +0.136 C  
DOCKED: BRANCH  35  36
DOCKED: ATOM     36  O5  UNL     1       8.594  -5.696  -8.415 +0.00 -0.00    -0.390 OA 
DOCKED: ATOM     37  H38 UNL     1       9.123  -5.451  -7.635 +0.00 +0.00    +0.210 HD 
DOCKED: ENDBRANCH  35  36
DOCKED: BRANCH  35  38
DOCKED: ATOM     38  C25 UNL     1       6.857  -4.113  -7.912 +0.00 +0.00    +0.045 C  
DOCKED: BRANCH  38  39
DOCKED: ATOM     39  C26 UNL     1       7.349  -3.691  -6.516 +0.00 +0.00    +0.074 C  
DOCKED: ATOM     40  C27 UNL     1       6.185  -3.194  -5.656 +0.00 +0.00    +0.017 C  
DOCKED: BRANCH  39  41
DOCKED: ATOM     41  C28 UNL     1       8.104  -4.797  -5.795 +0.00 +0.00    +0.217 C  
DOCKED: ATOM     42  O6  UNL     1       9.296  -5.004  -6.011 +0.00 -0.00    -0.276 OA 
DOCKED: ATOM     43  N4  UNL     1       7.363  -5.562  -4.939 +0.00 -0.00    -0.304 N  
DOCKED: ATOM     44  H45 UNL     1       6.362  -5.423  -4.838 +0.00 +0.00    +0.149 HD 
DOCKED: BRANCH  43  45
DOCKED: ATOM     45  C29 UNL     1       7.906  -6.742  -4.260 +0.00 +0.00    +0.161 C  
DOCKED: BRANCH  45  46
DOCKED: ATOM     46  C30 UNL     1       7.676  -7.940  -5.207 +0.00 +0.00    +0.234 C  
DOCKED: ATOM     47  O7  UNL     1       6.996  -8.911  -4.866 +0.00 -0.00    -0.274 OA 
DOCKED: ATOM     48  N5  UNL     1       8.297  -7.845  -6.428 +0.00 -0.00    -0.310 N  
DOCKED: ATOM     49  H47 UNL     1       8.769  -6.984  -6.677 +0.00 +0.00    +0.149 HD 
DOCKED: BRANCH  48  50
DOCKED: ATOM     50  C31 UNL     1       8.251  -8.901  -7.409 +0.00 +0.00    +0.139 C  
DOCKED: BRANCH  50  51
DOCKED: ATOM     51  C32 UNL     1       7.781  -8.377  -8.739 +0.00 -0.00    -0.030 A  
DOCKED: ATOM     52  C33 UNL     1       6.533  -7.754  -8.865 +0.00 +0.00    +0.005 A  
DOCKED: ATOM     53  C34 UNL     1       6.109  -7.264 -10.102 +0.00 +0.00    +0.000 A  
DOCKED: ATOM     54  C35 UNL     1       6.933  -7.382 -11.220 +0.00 +0.00    +0.000 A  
DOCKED: ATOM     55  C36 UNL     1       8.186  -7.982 -11.100 +0.00 +0.00    +0.000 A  
DOCKED: ATOM     56  C37 UNL     1       8.609  -8.477  -9.866 +0.00 +0.00    +0.005 A  
DOCKED: ENDBRANCH  50  51
DOCKED: ENDBRANCH  48  50
DOCKED: ENDBRANCH  45  46
DOCKED: BRANCH  45  57
DOCKED: ATOM     57  C38 UNL     1       7.279  -6.917  -2.856 +0.00 +0.00    +0.012 C  
DOCKED: ATOM     58  C39 UNL     1       7.967  -8.002  -2.024 +0.00 +0.00    +0.009 C  
DOCKED: ATOM     59  C40 UNL     1       7.219  -5.608  -2.067 +0.00 +0.00    +0.009 C  
DOCKED: ENDBRANCH  45  57
DOCKED: ENDBRANCH  43  45
DOCKED: ENDBRANCH  39  41
DOCKED: ENDBRANCH  38  39
DOCKED: ENDBRANCH  35  38
DOCKED: ENDBRANCH   1  35
DOCKED: TORSDOF 23
DOCKED: TER
DOCKED: ENDMDL
________________________________________________________________________________


    FINAL DOCKED STATE:
    ________________________


Run:   8 / 20
Time taken for this run:   2.402s

DOCKED: MODEL        8
DOCKED: USER    Run = 8
DOCKED: USER
DOCKED: USER    Estimated Free Energy of Binding    =  +6.86 kcal/mol  [=(1)+(2)+(3)-(4)]
DOCKED: USER
DOCKED: USER    (1) Final Intermolecular Energy     =  +0.00 kcal/mol
DOCKED: USER        vdW + Hbond + desolv Energy     =  +0.00 kcal/mol
DOCKED: USER        Electrostatic Energy            =  +0.00 kcal/mol
DOCKED: USER        Moving Ligand-Fixed Receptor    =  +0.00 kcal/mol
DOCKED: USER        Moving Ligand-Moving Receptor   =  +0.00 kcal/mol
DOCKED: USER    (2) Final Total Internal Energy     = -15.50 kcal/mol
DOCKED: USER    (3) Torsional Free Energy           =  +6.86 kcal/mol
DOCKED: USER    (4) Unbound System's Energy         = -15.50 kcal/mol
DOCKED: USER
DOCKED: USER
DOCKED: REMARK  Name = ligands/ligand_5.pdb
DOCKED: REMARK  32 active torsions:
DOCKED: REMARK  status: ('A' for Active; 'I' for Inactive)
DOCKED: REMARK    1  A    between atoms: C1_1  and  S1_2
DOCKED: REMARK    2  A    between atoms: S1_2  and  C2_3
DOCKED: REMARK    3  A    between atoms: C2_3  and  C3_4
DOCKED: REMARK    4  A    between atoms: C3_4  and  C4_5
DOCKED: REMARK    5  A    between atoms: C4_5  and  N1_6
DOCKED: REMARK    6  A    between atoms: C4_5  and  C15_21
DOCKED: REMARK    7  A    between atoms: C5_7  and  C6_9
DOCKED: REMARK    8  A    between atoms: C6_9  and  N2_10
DOCKED: REMARK    9  A    between atoms: C6_9  and  C12_18
DOCKED: REMARK   10  A    between atoms: C7_11  and  O3_13
DOCKED: REMARK   11  A    between atoms: O3_13  and  C8_14
DOCKED: REMARK   12  A    between atoms: C8_14  and  C9_15
DOCKED: REMARK   13  A    between atoms: C8_14  and  C10_16
DOCKED: REMARK   14  A    between atoms: C8_14  and  C11_17
DOCKED: REMARK   15  A    between atoms: C12_18  and  C13_19
DOCKED: REMARK   16  A    between atoms: C12_18  and  C14_20
DOCKED: REMARK   17  A    between atoms: N3_23  and  C16_24
DOCKED: REMARK   18  A    between atoms: C16_24  and  C17_25
DOCKED: REMARK   19  A    between atoms: C16_24  and  C24_32
DOCKED: REMARK   20  A    between atoms: C17_25  and  C18_26
DOCKED: REMARK   21  A    between atoms: C24_32  and  O5_33
DOCKED: REMARK   22  A    between atoms: C24_32  and  C25_34
DOCKED: REMARK   23  A    between atoms: C25_34  and  C26_35
DOCKED: REMARK   24  A    between atoms: C26_35  and  C27_36
DOCKED: REMARK   25  A    between atoms: C26_35  and  C28_37
DOCKED: REMARK   26  A    between atoms: N4_39  and  C29_40
DOCKED: REMARK   27  A    between atoms: C29_40  and  C30_41
DOCKED: REMARK   28  A    between atoms: C29_40  and  C38_51
DOCKED: REMARK   29  A    between atoms: N5_43  and  C31_44
DOCKED: REMARK   30  A    between atoms: C31_44  and  C32_45
DOCKED: REMARK   31  A    between atoms: C38_51  and  C39_52
DOCKED: REMARK   32  A    between atoms: C38_51  and  C40_53
DOCKED: REMARK                            x       y       z     vdW  Elec       q    Type
DOCKED: REMARK                         _______ _______ _______ _____ _____    ______ ____
DOCKED: USER                              x       y       z     vdW  Elec       q    Type
DOCKED: USER                           _______ _______ _______ _____ _____    ______ ____
DOCKED: ROOT
DOCKED: ATOM      1  C16 UNL     1       8.127  -4.466  -2.400 +0.00 +0.00    +0.106 C  
DOCKED: ENDROOT
DOCKED: BRANCH   1   4
DOCKED: ATOM      2  C15 UNL     1       6.188  -6.033  -2.302 +0.00 +0.00    +0.234 C  
DOCKED: ATOM      3  O4  UNL     1       5.776  -5.738  -3.425 +0.00 -0.00    -0.274 OA 
DOCKED: ATOM      4  N3  UNL     1       7.384  -5.579  -1.790 +0.00 -0.00    -0.308 N  
DOCKED: ATOM      5  H28 UNL     1       7.531  -5.652  -0.786 +0.00 +0.00    +0.149 HD 
DOCKED: BRANCH   2   6
DOCKED: ATOM      6  C4  UNL     1       5.409  -6.960  -1.343 +0.00 +0.00    +0.160 C  
DOCKED: BRANCH   6   7
DOCKED: ATOM      7  N1  UNL     1       5.585  -6.415   0.004 +0.00 -0.00    -0.302 N  
DOCKED: ATOM      8  C5  UNL     1       5.427  -7.251   1.096 +0.00 +0.00    +0.234 C  
DOCKED: ATOM      9  O1  UNL     1       4.977  -8.392   0.987 +0.00 -0.00    -0.274 OA 
DOCKED: ATOM     10  H9  UNL     1       6.253  -5.659   0.088 +0.00 +0.00    +0.150 HD 
DOCKED: BRANCH   8  11
DOCKED: ATOM     11  C6  UNL     1       5.893  -6.652   2.449 +0.00 +0.00    +0.165 C  
DOCKED: BRANCH  11  12
DOCKED: ATOM     12  N2  UNL     1       7.347  -6.566   2.429 +0.00 -0.00    -0.270 N  
DOCKED: ATOM     13  C7  UNL     1       7.967  -5.528   1.799 +0.00 +0.00    +0.401 C  
DOCKED: ATOM     14  O2  UNL     1       7.445  -4.795   0.975 +0.00 -0.00    -0.226 OA 
DOCKED: ATOM     15  H11 UNL     1       7.841  -6.843   3.269 +0.00 +0.00    +0.153 HD 
DOCKED: BRANCH  13  16
DOCKED: ATOM     16  O3  UNL     1       9.234  -5.445   2.260 +0.00 -0.00    -0.445 OA 
DOCKED: BRANCH  16  17
DOCKED: ATOM     17  C8  UNL     1       9.734  -4.207   2.829 +0.00 +0.00    +0.107 C  
DOCKED: ATOM     18  C9  UNL     1      10.805  -4.651   3.838 +0.00 +0.00    +0.055 C  
DOCKED: ATOM     19  C10 UNL     1      10.390  -3.321   1.766 +0.00 +0.00    +0.055 C  
DOCKED: ATOM     20  C11 UNL     1       8.630  -3.462   3.587 +0.00 +0.00    +0.055 C  
DOCKED: ENDBRANCH  16  17
DOCKED: ENDBRANCH  13  16
DOCKED: ENDBRANCH  11  12
DOCKED: BRANCH  11  21
DOCKED: ATOM     21  C12 UNL     1       5.230  -5.284   2.727 +0.00 +0.00    +0.012 C  
DOCKED: ATOM     22  C13 UNL     1       5.557  -4.725   4.117 +0.00 +0.00    +0.009 C  
DOCKED: ATOM     23  C14 UNL     1       3.711  -5.361   2.539 +0.00 +0.00    +0.009 C  
DOCKED: ENDBRANCH  11  21
DOCKED: ENDBRANCH   8  11
DOCKED: ENDBRANCH   6   7
DOCKED: BRANCH   6  24
DOCKED: ATOM     24  C3  UNL     1       3.924  -7.023  -1.706 +0.00 +0.00    +0.042 C  
DOCKED: BRANCH  24  25
DOCKED: ATOM     25  C2  UNL     1       3.266  -5.646  -1.735 +0.00 +0.00    +0.071 C  
DOCKED: BRANCH  25  27
DOCKED: ATOM     26  C1  UNL     1       1.995  -7.257   0.100 +0.00 +0.00    +0.084 C  
DOCKED: ATOM     27  S1  UNL     1       2.036  -5.521  -0.397 +0.00 -0.00    -0.164 S  
DOCKED: ENDBRANCH  25  27
DOCKED: ENDBRANCH  24  25
DOCKED: ENDBRANCH   6  24
DOCKED: ENDBRANCH   2   6
DOCKED: ENDBRANCH   1   4
DOCKED: BRANCH   1  28
DOCKED: ATOM     28  C17 UNL     1       7.227  -3.203  -2.404 +0.00 +0.00    +0.060 C  
DOCKED: BRANCH  28  29
DOCKED: ATOM     29  C18 UNL     1       6.694  -2.788  -1.050 +0.00 -0.00    -0.046 A  
DOCKED: ATOM     30  C19 UNL     1       7.477  -2.043  -0.157 +0.00 +0.00    +0.004 A  
DOCKED: ATOM     31  C20 UNL     1       6.967  -1.675   1.091 +0.00 +0.00    +0.000 A  
DOCKED: ATOM     32  C21 UNL     1       5.669  -2.032   1.449 +0.00 +0.00    +0.000 A  
DOCKED: ATOM     33  C22 UNL     1       4.877  -2.754   0.562 +0.00 +0.00    +0.000 A  
DOCKED: ATOM     34  C23 UNL     1       5.385  -3.130  -0.682 +0.00 +0.00    +0.004 A  
DOCKED: ENDBRANCH  28  29
DOCKED: ENDBRANCH   1  28
DOCKED: BRANCH   1  35
DOCKED: ATOM     35  C24 UNL     1       9.443  -4.247  -1.602 +0.00 +0.00    +0.136 C  
DOCKED: BRANCH  35  36
DOCKED: ATOM     36  O5  UNL     1       9.523  -5.291  -0.609 +0.00 -0.00    -0.390 OA 
DOCKED: ATOM     37  H38 UNL     1       9.452  -4.859   0.260 +0.00 +0.00    +0.210 HD 
DOCKED: ENDBRANCH  35  36
DOCKED: BRANCH  35  38
DOCKED: ATOM     38  C25 UNL     1      10.730  -4.329  -2.451 +0.00 +0.00    +0.045 C  
DOCKED: BRANCH  38  39
DOCKED: ATOM     39  C26 UNL     1      11.103  -5.751  -2.908 +0.00 +0.00    +0.074 C  
DOCKED: ATOM     40  C27 UNL     1      11.789  -5.721  -4.275 +0.00 +0.00    +0.017 C  
DOCKED: BRANCH  39  41
DOCKED: ATOM     41  C28 UNL     1      11.969  -6.489  -1.899 +0.00 +0.00    +0.217 C  
DOCKED: ATOM     42  O6  UNL     1      12.450  -7.591  -2.153 +0.00 -0.00    -0.276 OA 
DOCKED: ATOM     43  N4  UNL     1      12.130  -5.871  -0.690 +0.00 -0.00    -0.304 N  
DOCKED: ATOM     44  H45 UNL     1      11.656  -5.000  -0.475 +0.00 +0.00    +0.149 HD 
DOCKED: BRANCH  43  45
DOCKED: ATOM     45  C29 UNL     1      12.830  -6.501   0.434 +0.00 +0.00    +0.161 C  
DOCKED: BRANCH  45  46
DOCKED: ATOM     46  C30 UNL     1      11.958  -7.694   0.883 +0.00 +0.00    +0.234 C  
DOCKED: ATOM     47  O7  UNL     1      12.453  -8.797   1.132 +0.00 -0.00    -0.274 OA 
DOCKED: ATOM     48  N5  UNL     1      10.612  -7.436   0.959 +0.00 -0.00    -0.310 N  
DOCKED: ATOM     49  H47 UNL     1      10.281  -6.489   0.825 +0.00 +0.00    +0.149 HD 
DOCKED: BRANCH  48  50
DOCKED: ATOM     50  C31 UNL     1       9.643  -8.451   1.292 +0.00 +0.00    +0.139 C  
DOCKED: BRANCH  50  51
DOCKED: ATOM     51  C32 UNL     1       8.835  -8.839   0.084 +0.00 -0.00    -0.030 A  
DOCKED: ATOM     52  C33 UNL     1       7.734  -9.697   0.201 +0.00 +0.00    +0.005 A  
DOCKED: ATOM     53  C34 UNL     1       6.985 -10.044  -0.925 +0.00 +0.00    +0.000 A  
DOCKED: ATOM     54  C35 UNL     1       7.322  -9.529  -2.175 +0.00 +0.00    +0.000 A  
DOCKED: ATOM     55  C36 UNL     1       8.403  -8.657  -2.298 +0.00 +0.00    +0.000 A  
DOCKED: ATOM     56  C37 UNL     1       9.156  -8.312  -1.175 +0.00 +0.00    +0.005 A  
DOCKED: ENDBRANCH  50  51
DOCKED: ENDBRANCH  48  50
DOCKED: ENDBRANCH  45  46
DOCKED: BRANCH  45  57
DOCKED: ATOM     57  C38 UNL     1      13.124  -5.475   1.555 +0.00 +0.00    +0.012 C  
DOCKED: ATOM     58  C39 UNL     1      14.005  -6.045   2.671 +0.00 +0.00    +0.009 C  
DOCKED: ATOM     59  C40 UNL     1      13.725  -4.173   1.023 +0.00 +0.00    +0.009 C  
DOCKED: ENDBRANCH  45  57
DOCKED: ENDBRANCH  43  45
DOCKED: ENDBRANCH  39  41
DOCKED: ENDBRANCH  38  39
DOCKED: ENDBRANCH  35  38
DOCKED: ENDBRANCH   1  35
DOCKED: TORSDOF 23
DOCKED: TER
DOCKED: ENDMDL
________________________________________________________________________________


    FINAL DOCKED STATE:
    ________________________


Run:   9 / 20
Time taken for this run:   2.402s

DOCKED: MODEL        9
DOCKED: USER    Run = 9
DOCKED: USER
DOCKED: USER    Estimated Free Energy of Binding    =  +6.86 kcal/mol  [=(1)+(2)+(3)-(4)]
DOCKED: USER
DOCKED: USER    (1) Final Intermolecular Energy     =  +0.00 kcal/mol
DOCKED: USER        vdW + Hbond + desolv Energy     =  +0.00 kcal/mol
DOCKED: USER        Electrostatic Energy            =  +0.00 kcal/mol
DOCKED: USER        Moving Ligand-Fixed Receptor    =  +0.00 kcal/mol
DOCKED: USER        Moving Ligand-Moving Receptor   =  +0.00 kcal/mol
DOCKED: USER    (2) Final Total Internal Energy     = -15.94 kcal/mol
DOCKED: USER    (3) Torsional Free Energy           =  +6.86 kcal/mol
DOCKED: USER    (4) Unbound System's Energy         = -15.94 kcal/mol
DOCKED: USER
DOCKED: USER
DOCKED: REMARK  Name = ligands/ligand_5.pdb
DOCKED: REMARK  32 active torsions:
DOCKED: REMARK  status: ('A' for Active; 'I' for Inactive)
DOCKED: REMARK    1  A    between atoms: C1_1  and  S1_2
DOCKED: REMARK    2  A    between atoms: S1_2  and  C2_3
DOCKED: REMARK    3  A    between atoms: C2_3  and  C3_4
DOCKED: REMARK    4  A    between atoms: C3_4  and  C4_5
DOCKED: REMARK    5  A    between atoms: C4_5  and  N1_6
DOCKED: REMARK    6  A    between atoms: C4_5  and  C15_21
DOCKED: REMARK    7  A    between atoms: C5_7  and  C6_9
DOCKED: REMARK    8  A    between atoms: C6_9  and  N2_10
DOCKED: REMARK    9  A    between atoms: C6_9  and  C12_18
DOCKED: REMARK   10  A    between atoms: C7_11  and  O3_13
DOCKED: REMARK   11  A    between atoms: O3_13  and  C8_14
DOCKED: REMARK   12  A    between atoms: C8_14  and  C9_15
DOCKED: REMARK   13  A    between atoms: C8_14  and  C10_16
DOCKED: REMARK   14  A    between atoms: C8_14  and  C11_17
DOCKED: REMARK   15  A    between atoms: C12_18  and  C13_19
DOCKED: REMARK   16  A    between atoms: C12_18  and  C14_20
DOCKED: REMARK   17  A    between atoms: N3_23  and  C16_24
DOCKED: REMARK   18  A    between atoms: C16_24  and  C17_25
DOCKED: REMARK   19  A    between atoms: C16_24  and  C24_32
DOCKED: REMARK   20  A    between atoms: C17_25  and  C18_26
DOCKED: REMARK   21  A    between atoms: C24_32  and  O5_33
DOCKED: REMARK   22  A    between atoms: C24_32  and  C25_34
DOCKED: REMARK   23  A    between atoms: C25_34  and  C26_35
DOCKED: REMARK   24  A    between atoms: C26_35  and  C27_36
DOCKED: REMARK   25  A    between atoms: C26_35  and  C28_37
DOCKED: REMARK   26  A    between atoms: N4_39  and  C29_40
DOCKED: REMARK   27  A    between atoms: C29_40  and  C30_41
DOCKED: REMARK   28  A    between atoms: C29_40  and  C38_51
DOCKED: REMARK   29  A    between atoms: N5_43  and  C31_44
DOCKED: REMARK   30  A    between atoms: C31_44  and  C32_45
DOCKED: REMARK   31  A    between atoms: C38_51  and  C39_52
DOCKED: REMARK   32  A    between atoms: C38_51  and  C40_53
DOCKED: REMARK                            x       y       z     vdW  Elec       q    Type
DOCKED: REMARK                         _______ _______ _______ _____ _____    ______ ____
DOCKED: USER                              x       y       z     vdW  Elec       q    Type
DOCKED: USER                           _______ _______ _______ _____ _____    ______ ____
DOCKED: ROOT
DOCKED: ATOM      1  C16 UNL     1      12.449   1.218  -2.390 +0.00 +0.00    +0.106 C  
DOCKED: ENDROOT
DOCKED: BRANCH   1   4
DOCKED: ATOM      2  C15 UNL     1      11.904  -1.215  -2.308 +0.00 +0.00    +0.234 C  
DOCKED: ATOM      3  O4  UNL     1      11.552  -1.190  -1.128 +0.00 -0.00    -0.274 OA 
DOCKED: ATOM      4  N3  UNL     1      12.211  -0.084  -3.032 +0.00 -0.00    -0.308 N  
DOCKED: ATOM      5  H28 UNL     1      12.729  -0.199  -3.900 +0.00 +0.00    +0.149 HD 
DOCKED: BRANCH   2   6
DOCKED: ATOM      6  C4  UNL     1      12.027  -2.527  -3.116 +0.00 +0.00    +0.160 C  
DOCKED: BRANCH   6   7
DOCKED: ATOM      7  N1  UNL     1      12.302  -2.143  -4.501 +0.00 -0.00    -0.302 N  
DOCKED: ATOM      8  C5  UNL     1      11.626  -2.783  -5.525 +0.00 +0.00    +0.234 C  
DOCKED: ATOM      9  O1  UNL     1      10.930  -3.779  -5.328 +0.00 -0.00    -0.274 OA 
DOCKED: ATOM     10  H9  UNL     1      12.558  -1.175  -4.646 +0.00 +0.00    +0.150 HD 
DOCKED: BRANCH   8  11
DOCKED: ATOM     11  C6  UNL     1      11.786  -2.128  -6.922 +0.00 +0.00    +0.165 C  
DOCKED: BRANCH  11  12
DOCKED: ATOM     12  N2  UNL     1      13.207  -2.080  -7.239 +0.00 -0.00    -0.270 N  
DOCKED: ATOM     13  C7  UNL     1      14.040  -1.256  -6.544 +0.00 +0.00    +0.401 C  
DOCKED: ATOM     14  O2  UNL     1      13.683  -0.310  -5.862 +0.00 -0.00    -0.226 OA 
DOCKED: ATOM     15  H11 UNL     1      13.659  -2.954  -7.480 +0.00 +0.00    +0.153 HD 
DOCKED: BRANCH  13  16
DOCKED: ATOM     16  O3  UNL     1      15.310  -1.682  -6.724 +0.00 -0.00    -0.445 OA 
DOCKED: BRANCH  16  17
DOCKED: ATOM     17  C8  UNL     1      16.097  -1.208  -7.848 +0.00 +0.00    +0.107 C  
DOCKED: ATOM     18  C9  UNL     1      16.841  -2.454  -8.353 +0.00 +0.00    +0.055 C  
DOCKED: ATOM     19  C10 UNL     1      15.207  -0.671  -8.973 +0.00 +0.00    +0.055 C  
DOCKED: ATOM     20  C11 UNL     1      17.132  -0.171  -7.399 +0.00 +0.00    +0.055 C  
DOCKED: ENDBRANCH  16  17
DOCKED: ENDBRANCH  13  16
DOCKED: ENDBRANCH  11  12
DOCKED: BRANCH  11  21
DOCKED: ATOM     21  C12 UNL     1      10.970  -2.876  -8.002 +0.00 +0.00    +0.012 C  
DOCKED: ATOM     22  C13 UNL     1      11.355  -2.481  -9.431 +0.00 +0.00    +0.009 C  
DOCKED: ATOM     23  C14 UNL     1       9.466  -2.674  -7.791 +0.00 +0.00    +0.009 C  
DOCKED: ENDBRANCH  11  21
DOCKED: ENDBRANCH   8  11
DOCKED: ENDBRANCH   6   7
DOCKED: BRANCH   6  24
DOCKED: ATOM     24  C3  UNL     1      13.147  -3.417  -2.573 +0.00 +0.00    +0.042 C  
DOCKED: BRANCH  24  25
DOCKED: ATOM     25  C2  UNL     1      13.538  -4.528  -3.544 +0.00 +0.00    +0.071 C  
DOCKED: BRANCH  25  27
DOCKED: ATOM     26  C1  UNL     1      14.571  -4.864  -6.074 +0.00 +0.00    +0.084 C  
DOCKED: ATOM     27  S1  UNL     1      14.972  -4.003  -4.537 +0.00 -0.00    -0.164 S  
DOCKED: ENDBRANCH  25  27
DOCKED: ENDBRANCH  24  25
DOCKED: ENDBRANCH   6  24
DOCKED: ENDBRANCH   2   6
DOCKED: ENDBRANCH   1   4
DOCKED: BRANCH   1  28
DOCKED: ATOM     28  C17 UNL     1      13.812   1.172  -1.651 +0.00 +0.00    +0.060 C  
DOCKED: BRANCH  28  29
DOCKED: ATOM     29  C18 UNL     1      14.877   0.328  -2.316 +0.00 -0.00    -0.046 A  
DOCKED: ATOM     30  C19 UNL     1      15.304  -0.883  -1.752 +0.00 +0.00    +0.004 A  
DOCKED: ATOM     31  C20 UNL     1      16.293  -1.643  -2.379 +0.00 +0.00    +0.000 A  
DOCKED: ATOM     32  C21 UNL     1      16.851  -1.212  -3.581 +0.00 +0.00    +0.000 A  
DOCKED: ATOM     33  C22 UNL     1      16.421  -0.021  -4.158 +0.00 +0.00    +0.000 A  
DOCKED: ATOM     34  C23 UNL     1      15.438   0.745  -3.531 +0.00 +0.00    +0.004 A  
DOCKED: ENDBRANCH  28  29
DOCKED: ENDBRANCH   1  28
DOCKED: BRANCH   1  35
DOCKED: ATOM     35  C24 UNL     1      12.407   2.327  -3.480 +0.00 +0.00    +0.136 C  
DOCKED: BRANCH  35  36
DOCKED: ATOM     36  O5  UNL     1      12.884   1.741  -4.709 +0.00 -0.00    -0.390 OA 
DOCKED: ATOM     37  H38 UNL     1      12.390   0.911  -4.834 +0.00 +0.00    +0.210 HD 
DOCKED: ENDBRANCH  35  36
DOCKED: BRANCH  35  38
DOCKED: ATOM     38  C25 UNL     1      11.000   2.895  -3.764 +0.00 +0.00    +0.045 C  
DOCKED: BRANCH  38  39
DOCKED: ATOM     39  C26 UNL     1       9.929   1.829  -4.054 +0.00 +0.00    +0.074 C  
DOCKED: ATOM     40  C27 UNL     1       8.543   2.467  -4.173 +0.00 +0.00    +0.017 C  
DOCKED: BRANCH  39  41
DOCKED: ATOM     41  C28 UNL     1      10.238   1.002  -5.292 +0.00 +0.00    +0.217 C  
DOCKED: ATOM     42  O6  UNL     1      11.007   0.045  -5.247 +0.00 -0.00    -0.276 OA 
DOCKED: ATOM     43  N4  UNL     1       9.644   1.421  -6.450 +0.00 -0.00    -0.304 N  
DOCKED: ATOM     44  H45 UNL     1       9.077   2.263  -6.478 +0.00 +0.00    +0.149 HD 
DOCKED: BRANCH  43  45
DOCKED: ATOM     45  C29 UNL     1       9.931   0.812  -7.752 +0.00 +0.00    +0.161 C  
DOCKED: BRANCH  45  46
DOCKED: ATOM     46  C30 UNL     1      11.144   1.571  -8.335 +0.00 +0.00    +0.234 C  
DOCKED: ATOM     47  O7  UNL     1      11.071   2.177  -9.407 +0.00 -0.00    -0.274 OA 
DOCKED: ATOM     48  N5  UNL     1      12.292   1.497  -7.587 +0.00 -0.00    -0.310 N  
DOCKED: ATOM     49  H47 UNL     1      12.261   1.056  -6.676 +0.00 +0.00    +0.149 HD 
DOCKED: BRANCH  48  50
DOCKED: ATOM     50  C31 UNL     1      13.538   2.085  -8.013 +0.00 +0.00    +0.139 C  
DOCKED: BRANCH  50  51
DOCKED: ATOM     51  C32 UNL     1      14.114   2.963  -6.935 +0.00 -0.00    -0.030 A  
DOCKED: ATOM     52  C33 UNL     1      13.398   4.064  -6.447 +0.00 +0.00    +0.005 A  
DOCKED: ATOM     53  C34 UNL     1      13.937   4.868  -5.441 +0.00 +0.00    +0.000 A  
DOCKED: ATOM     54  C35 UNL     1      15.190   4.572  -4.907 +0.00 +0.00    +0.000 A  
DOCKED: ATOM     55  C36 UNL     1      15.901   3.467  -5.372 +0.00 +0.00    +0.000 A  
DOCKED: ATOM     56  C37 UNL     1      15.367   2.665  -6.381 +0.00 +0.00    +0.005 A  
DOCKED: ENDBRANCH  50  51
DOCKED: ENDBRANCH  48  50
DOCKED: ENDBRANCH  45  46
DOCKED: BRANCH  45  57
DOCKED: ATOM     57  C38 UNL     1       8.680   0.824  -8.663 +0.00 +0.00    +0.012 C  
DOCKED: ATOM     58  C39 UNL     1       8.867   0.011  -9.947 +0.00 +0.00    +0.009 C  
DOCKED: ATOM     59  C40 UNL     1       7.413   0.373  -7.934 +0.00 +0.00    +0.009 C  
DOCKED: ENDBRANCH  45  57
DOCKED: ENDBRANCH  43  45
DOCKED: ENDBRANCH  39  41
DOCKED: ENDBRANCH  38  39
DOCKED: ENDBRANCH  35  38
DOCKED: ENDBRANCH   1  35
DOCKED: TORSDOF 23
DOCKED: TER
DOCKED: ENDMDL
________________________________________________________________________________


    FINAL DOCKED STATE:
    ________________________


Run:   10 / 20
Time taken for this run:   2.402s

DOCKED: MODEL        10
DOCKED: USER    Run = 10
DOCKED: USER
DOCKED: USER    Estimated Free Energy of Binding    =  +6.86 kcal/mol  [=(1)+(2)+(3)-(4)]
DOCKED: USER
DOCKED: USER    (1) Final Intermolecular Energy     =  +0.00 kcal/mol
DOCKED: USER        vdW + Hbond + desolv Energy     =  +0.00 kcal/mol
DOCKED: USER        Electrostatic Energy            =  +0.00 kcal/mol
DOCKED: USER        Moving Ligand-Fixed Receptor    =  +0.00 kcal/mol
DOCKED: USER        Moving Ligand-Moving Receptor   =  +0.00 kcal/mol
DOCKED: USER    (2) Final Total Internal Energy     = -15.44 kcal/mol
DOCKED: USER    (3) Torsional Free Energy           =  +6.86 kcal/mol
DOCKED: USER    (4) Unbound System's Energy         = -15.44 kcal/mol
DOCKED: USER
DOCKED: USER
DOCKED: REMARK  Name = ligands/ligand_5.pdb
DOCKED: REMARK  32 active torsions:
DOCKED: REMARK  status: ('A' for Active; 'I' for Inactive)
DOCKED: REMARK    1  A    between atoms: C1_1  and  S1_2
DOCKED: REMARK    2  A    between atoms: S1_2  and  C2_3
DOCKED: REMARK    3  A    between atoms: C2_3  and  C3_4
DOCKED: REMARK    4  A    between atoms: C3_4  and  C4_5
DOCKED: REMARK    5  A    between atoms: C4_5  and  N1_6
DOCKED: REMARK    6  A    between atoms: C4_5  and  C15_21
DOCKED: REMARK    7  A    between atoms: C5_7  and  C6_9
DOCKED: REMARK    8  A    between atoms: C6_9  and  N2_10
DOCKED: REMARK    9  A    between atoms: C6_9  and  C12_18
DOCKED: REMARK   10  A    between atoms: C7_11  and  O3_13
DOCKED: REMARK   11  A    between atoms: O3_13  and  C8_14
DOCKED: REMARK   12  A    between atoms: C8_14  and  C9_15
DOCKED: REMARK   13  A    between atoms: C8_14  and  C10_16
DOCKED: REMARK   14  A    between atoms: C8_14  and  C11_17
DOCKED: REMARK   15  A    between atoms: C12_18  and  C13_19
DOCKED: REMARK   16  A    between atoms: C12_18  and  C14_20
DOCKED: REMARK   17  A    between atoms: N3_23  and  C16_24
DOCKED: REMARK   18  A    between atoms: C16_24  and  C17_25
DOCKED: REMARK   19  A    between atoms: C16_24  and  C24_32
DOCKED: REMARK   20  A    between atoms: C17_25  and  C18_26
DOCKED: REMARK   21  A    between atoms: C24_32  and  O5_33
DOCKED: REMARK   22  A    between atoms: C24_32  and  C25_34
DOCKED: REMARK   23  A    between atoms: C25_34  and  C26_35
DOCKED: REMARK   24  A    between atoms: C26_35  and  C27_36
DOCKED: REMARK   25  A    between atoms: C26_35  and  C28_37
DOCKED: REMARK   26  A    between atoms: N4_39  and  C29_40
DOCKED: REMARK   27  A    between atoms: C29_40  and  C30_41
DOCKED: REMARK   28  A    between atoms: C29_40  and  C38_51
DOCKED: REMARK   29  A    between atoms: N5_43  and  C31_44
DOCKED: REMARK   30  A    between atoms: C31_44  and  C32_45
DOCKED: REMARK   31  A    between atoms: C38_51  and  C39_52
DOCKED: REMARK   32  A    between atoms: C38_51  and  C40_53
DOCKED: REMARK                            x       y       z     vdW  Elec       q    Type
DOCKED: REMARK                         _______ _______ _______ _____ _____    ______ ____
DOCKED: USER                              x       y       z     vdW  Elec       q    Type
DOCKED: USER                           _______ _______ _______ _____ _____    ______ ____
DOCKED: ROOT
DOCKED: ATOM      1  C16 UNL     1      12.371  -7.394  -5.406 +0.00 +0.00    +0.106 C  
DOCKED: ENDROOT
DOCKED: BRANCH   1   4
DOCKED: ATOM      2  C15 UNL     1      11.132  -5.615  -4.171 +0.00 +0.00    +0.234 C  
DOCKED: ATOM      3  O4  UNL     1      10.030  -6.141  -4.337 +0.00 -0.00    -0.274 OA 
DOCKED: ATOM      4  N3  UNL     1      12.319  -6.217  -4.525 +0.00 -0.00    -0.308 N  
DOCKED: ATOM      5  H28 UNL     1      13.149  -5.632  -4.594 +0.00 +0.00    +0.149 HD 
DOCKED: BRANCH   2   6
DOCKED: ATOM      6  C4  UNL     1      11.304  -4.219  -3.532 +0.00 +0.00    +0.160 C  
DOCKED: BRANCH   6   7
DOCKED: ATOM      7  N1  UNL     1      12.488  -3.618  -4.149 +0.00 -0.00    -0.302 N  
DOCKED: ATOM      8  C5  UNL     1      12.951  -2.403  -3.677 +0.00 +0.00    +0.234 C  
DOCKED: ATOM      9  O1  UNL     1      12.309  -1.724  -2.876 +0.00 -0.00    -0.274 OA 
DOCKED: ATOM     10  H9  UNL     1      13.174  -4.270  -4.510 +0.00 +0.00    +0.150 HD 
DOCKED: BRANCH   8  11
DOCKED: ATOM     11  C6  UNL     1      14.348  -1.986  -4.207 +0.00 +0.00    +0.165 C  
DOCKED: BRANCH  11  12
DOCKED: ATOM     12  N2  UNL     1      15.258  -3.108  -4.015 +0.00 -0.00    -0.270 N  
DOCKED: ATOM     13  C7  UNL     1      15.305  -4.120  -4.926 +0.00 +0.00    +0.401 C  
DOCKED: ATOM     14  O2  UNL     1      14.445  -4.354  -5.759 +0.00 -0.00    -0.226 OA 
DOCKED: ATOM     15  H11 UNL     1      16.174  -2.903  -3.635 +0.00 +0.00    +0.153 HD 
DOCKED: BRANCH  13  16
DOCKED: ATOM     16  O3  UNL     1      16.465  -4.792  -4.759 +0.00 -0.00    -0.445 OA 
DOCKED: BRANCH  16  17
DOCKED: ATOM     17  C8  UNL     1      17.380  -4.976  -5.870 +0.00 +0.00    +0.107 C  
DOCKED: ATOM     18  C9  UNL     1      18.774  -4.751  -5.264 +0.00 +0.00    +0.055 C  
DOCKED: ATOM     19  C10 UNL     1      17.306  -6.399  -6.432 +0.00 +0.00    +0.055 C  
DOCKED: ATOM     20  C11 UNL     1      17.146  -3.923  -6.959 +0.00 +0.00    +0.055 C  
DOCKED: ENDBRANCH  16  17
DOCKED: ENDBRANCH  13  16
DOCKED: ENDBRANCH  11  12
DOCKED: BRANCH  11  21
DOCKED: ATOM     21  C12 UNL     1      14.288  -1.529  -5.682 +0.00 +0.00    +0.012 C  
DOCKED: ATOM     22  C13 UNL     1      15.597  -0.905  -6.176 +0.00 +0.00    +0.009 C  
DOCKED: ATOM     23  C14 UNL     1      13.127  -0.554  -5.907 +0.00 +0.00    +0.009 C  
DOCKED: ENDBRANCH  11  21
DOCKED: ENDBRANCH   8  11
DOCKED: ENDBRANCH   6   7
DOCKED: BRANCH   6  24
DOCKED: ATOM     24  C3  UNL     1      10.074  -3.340  -3.765 +0.00 +0.00    +0.042 C  
DOCKED: BRANCH  24  25
DOCKED: ATOM     25  C2  UNL     1       9.598  -3.365  -5.215 +0.00 +0.00    +0.071 C  
DOCKED: BRANCH  25  27
DOCKED: ATOM     26  C1  UNL     1       9.849  -0.707  -4.540 +0.00 +0.00    +0.084 C  
DOCKED: ATOM     27  S1  UNL     1       9.940  -1.760  -6.006 +0.00 -0.00    -0.164 S  
DOCKED: ENDBRANCH  25  27
DOCKED: ENDBRANCH  24  25
DOCKED: ENDBRANCH   6  24
DOCKED: ENDBRANCH   2   6
DOCKED: ENDBRANCH   1   4
DOCKED: BRANCH   1  28
DOCKED: ATOM     28  C17 UNL     1      11.773  -7.014  -6.786 +0.00 +0.00    +0.060 C  
DOCKED: BRANCH  28  29
DOCKED: ATOM     29  C18 UNL     1      12.415  -5.822  -7.460 +0.00 -0.00    -0.046 A  
DOCKED: ATOM     30  C19 UNL     1      13.596  -5.955  -8.205 +0.00 +0.00    +0.004 A  
DOCKED: ATOM     31  C20 UNL     1      14.175  -4.839  -8.815 +0.00 +0.00    +0.000 A  
DOCKED: ATOM     32  C21 UNL     1      13.573  -3.588  -8.700 +0.00 +0.00    +0.000 A  
DOCKED: ATOM     33  C22 UNL     1      12.392  -3.449  -7.979 +0.00 +0.00    +0.000 A  
DOCKED: ATOM     34  C23 UNL     1      11.814  -4.560  -7.362 +0.00 +0.00    +0.004 A  
DOCKED: ENDBRANCH  28  29
DOCKED: ENDBRANCH   1  28
DOCKED: BRANCH   1  35
DOCKED: ATOM     35  C24 UNL     1      13.847  -7.871  -5.515 +0.00 +0.00    +0.136 C  
DOCKED: BRANCH  35  36
DOCKED: ATOM     36  O5  UNL     1      14.657  -6.942  -4.766 +0.00 -0.00    -0.390 OA 
DOCKED: ATOM     37  H38 UNL     1      15.078  -6.350  -5.414 +0.00 +0.00    +0.210 HD 
DOCKED: ENDBRANCH  35  36
DOCKED: BRANCH  35  38
DOCKED: ATOM     38  C25 UNL     1      14.112  -9.277  -4.933 +0.00 +0.00    +0.045 C  
DOCKED: BRANCH  38  39
DOCKED: ATOM     39  C26 UNL     1      13.214  -9.652  -3.741 +0.00 +0.00    +0.074 C  
DOCKED: ATOM     40  C27 UNL     1      13.048 -11.169  -3.640 +0.00 +0.00    +0.017 C  
DOCKED: BRANCH  39  41
DOCKED: ATOM     41  C28 UNL     1      13.715  -9.086  -2.421 +0.00 +0.00    +0.217 C  
DOCKED: ATOM     42  O6  UNL     1      13.748  -9.771  -1.402 +0.00 -0.00    -0.276 OA 
DOCKED: ATOM     43  N4  UNL     1      14.076  -7.767  -2.438 +0.00 -0.00    -0.304 N  
DOCKED: ATOM     44  H45 UNL     1      13.963  -7.200  -3.273 +0.00 +0.00    +0.149 HD 
DOCKED: BRANCH  43  45
DOCKED: ATOM     45  C29 UNL     1      14.463  -7.036  -1.229 +0.00 +0.00    +0.161 C  
DOCKED: BRANCH  45  46
DOCKED: ATOM     46  C30 UNL     1      14.135  -5.549  -1.488 +0.00 +0.00    +0.234 C  
DOCKED: ATOM     47  O7  UNL     1      13.925  -5.125  -2.627 +0.00 -0.00    -0.274 OA 
DOCKED: ATOM     48  N5  UNL     1      14.117  -4.753  -0.370 +0.00 -0.00    -0.310 N  
DOCKED: ATOM     49  H47 UNL     1      14.213  -5.179   0.543 +0.00 +0.00    +0.149 HD 
DOCKED: BRANCH  48  50
DOCKED: ATOM     50  C31 UNL     1      13.899  -3.329  -0.433 +0.00 +0.00    +0.139 C  
DOCKED: BRANCH  50  51
DOCKED: ATOM     51  C32 UNL     1      15.142  -2.615  -0.891 +0.00 -0.00    -0.030 A  
DOCKED: ATOM     52  C33 UNL     1      16.340  -3.314  -1.089 +0.00 +0.00    +0.005 A  
DOCKED: ATOM     53  C34 UNL     1      17.486  -2.645  -1.523 +0.00 +0.00    +0.000 A  
DOCKED: ATOM     54  C35 UNL     1      17.442  -1.274  -1.772 +0.00 +0.00    +0.000 A  
DOCKED: ATOM     55  C36 UNL     1      16.250  -0.574  -1.598 +0.00 +0.00    +0.000 A  
DOCKED: ATOM     56  C37 UNL     1      15.104  -1.240  -1.160 +0.00 +0.00    +0.005 A  
DOCKED: ENDBRANCH  50  51
DOCKED: ENDBRANCH  48  50
DOCKED: ENDBRANCH  45  46
DOCKED: BRANCH  45  57
DOCKED: ATOM     57  C38 UNL     1      15.943  -7.303  -0.863 +0.00 +0.00    +0.012 C  
DOCKED: ATOM     58  C39 UNL     1      16.924  -6.765  -1.909 +0.00 +0.00    +0.009 C  
DOCKED: ATOM     59  C40 UNL     1      16.313  -6.778   0.525 +0.00 +0.00    +0.009 C  
DOCKED: ENDBRANCH  45  57
DOCKED: ENDBRANCH  43  45
DOCKED: ENDBRANCH  39  41
DOCKED: ENDBRANCH  38  39
DOCKED: ENDBRANCH  35  38
DOCKED: ENDBRANCH   1  35
DOCKED: TORSDOF 23
DOCKED: TER
DOCKED: ENDMDL
________________________________________________________________________________


    FINAL DOCKED STATE:
    ________________________


Run:   11 / 20
Time taken for this run:   2.402s

DOCKED: MODEL        11
DOCKED: USER    Run = 11
DOCKED: USER
DOCKED: USER    Estimated Free Energy of Binding    =  +6.86 kcal/mol  [=(1)+(2)+(3)-(4)]
DOCKED: USER
DOCKED: USER    (1) Final Intermolecular Energy     =  +0.00 kcal/mol
DOCKED: USER        vdW + Hbond + desolv Energy     =  +0.00 kcal/mol
DOCKED: USER        Electrostatic Energy            =  +0.00 kcal/mol
DOCKED: USER        Moving Ligand-Fixed Receptor    =  +0.00 kcal/mol
DOCKED: USER        Moving Ligand-Moving Receptor   =  +0.00 kcal/mol
DOCKED: USER    (2) Final Total Internal Energy     = -15.93 kcal/mol
DOCKED: USER    (3) Torsional Free Energy           =  +6.86 kcal/mol
DOCKED: USER    (4) Unbound System's Energy         = -15.93 kcal/mol
DOCKED: USER
DOCKED: USER
DOCKED: REMARK  Name = ligands/ligand_5.pdb
DOCKED: REMARK  32 active torsions:
DOCKED: REMARK  status: ('A' for Active; 'I' for Inactive)
DOCKED: REMARK    1  A    between atoms: C1_1  and  S1_2
DOCKED: REMARK    2  A    between atoms: S1_2  and  C2_3
DOCKED: REMARK    3  A    between atoms: C2_3  and  C3_4
DOCKED: REMARK    4  A    between atoms: C3_4  and  C4_5
DOCKED: REMARK    5  A    between atoms: C4_5  and  N1_6
DOCKED: REMARK    6  A    between atoms: C4_5  and  C15_21
DOCKED: REMARK    7  A    between atoms: C5_7  and  C6_9
DOCKED: REMARK    8  A    between atoms: C6_9  and  N2_10
DOCKED: REMARK    9  A    between atoms: C6_9  and  C12_18
DOCKED: REMARK   10  A    between atoms: C7_11  and  O3_13
DOCKED: REMARK   11  A    between atoms: O3_13  and  C8_14
DOCKED: REMARK   12  A    between atoms: C8_14  and  C9_15
DOCKED: REMARK   13  A    between atoms: C8_14  and  C10_16
DOCKED: REMARK   14  A    between atoms: C8_14  and  C11_17
DOCKED: REMARK   15  A    between atoms: C12_18  and  C13_19
DOCKED: REMARK   16  A    between atoms: C12_18  and  C14_20
DOCKED: REMARK   17  A    between atoms: N3_23  and  C16_24
DOCKED: REMARK   18  A    between atoms: C16_24  and  C17_25
DOCKED: REMARK   19  A    between atoms: C16_24  and  C24_32
DOCKED: REMARK   20  A    between atoms: C17_25  and  C18_26
DOCKED: REMARK   21  A    between atoms: C24_32  and  O5_33
DOCKED: REMARK   22  A    between atoms: C24_32  and  C25_34
DOCKED: REMARK   23  A    between atoms: C25_34  and  C26_35
DOCKED: REMARK   24  A    between atoms: C26_35  and  C27_36
DOCKED: REMARK   25  A    between atoms: C26_35  and  C28_37
DOCKED: REMARK   26  A    between atoms: N4_39  and  C29_40
DOCKED: REMARK   27  A    between atoms: C29_40  and  C30_41
DOCKED: REMARK   28  A    between atoms: C29_40  and  C38_51
DOCKED: REMARK   29  A    between atoms: N5_43  and  C31_44
DOCKED: REMARK   30  A    between atoms: C31_44  and  C32_45
DOCKED: REMARK   31  A    between atoms: C38_51  and  C39_52
DOCKED: REMARK   32  A    between atoms: C38_51  and  C40_53
DOCKED: REMARK                            x       y       z     vdW  Elec       q    Type
DOCKED: REMARK                         _______ _______ _______ _____ _____    ______ ____
DOCKED: USER                              x       y       z     vdW  Elec       q    Type
DOCKED: USER                           _______ _______ _______ _____ _____    ______ ____
DOCKED: ROOT
DOCKED: ATOM      1  C16 UNL     1       7.970  -2.921   5.333 +0.00 +0.00    +0.106 C  
DOCKED: ENDROOT
DOCKED: BRANCH   1   4
DOCKED: ATOM      2  C15 UNL     1       7.795  -0.486   4.816 +0.00 +0.00    +0.234 C  
DOCKED: ATOM      3  O4  UNL     1       8.987  -0.261   5.031 +0.00 -0.00    -0.274 OA 
DOCKED: ATOM      4  N3  UNL     1       7.253  -1.752   4.798 +0.00 -0.00    -0.308 N  
DOCKED: ATOM      5  H28 UNL     1       6.242  -1.840   4.869 +0.00 +0.00    +0.149 HD 
DOCKED: BRANCH   2   6
DOCKED: ATOM      6  C4  UNL     1       6.771   0.636   4.529 +0.00 +0.00    +0.160 C  
DOCKED: BRANCH   6   7
DOCKED: ATOM      7  N1  UNL     1       5.511  -0.023   4.185 +0.00 -0.00    -0.302 N  
DOCKED: ATOM      8  C5  UNL     1       4.774   0.449   3.112 +0.00 +0.00    +0.234 C  
DOCKED: ATOM      9  O1  UNL     1       5.049   1.506   2.544 +0.00 -0.00    -0.274 OA 
DOCKED: ATOM     10  H9  UNL     1       5.466  -1.015   4.380 +0.00 +0.00    +0.150 HD 
DOCKED: BRANCH   8  11
DOCKED: ATOM     11  C6  UNL     1       3.607  -0.471   2.667 +0.00 +0.00    +0.165 C  
DOCKED: BRANCH  11  12
DOCKED: ATOM     12  N2  UNL     1       2.721  -0.662   3.807 +0.00 -0.00    -0.270 N  
DOCKED: ATOM     13  C7  UNL     1       3.135  -1.383   4.887 +0.00 +0.00    +0.401 C  
DOCKED: ATOM     14  O2  UNL     1       4.079  -2.156   4.895 +0.00 -0.00    -0.226 OA 
DOCKED: ATOM     15  H11 UNL     1       2.139   0.120   4.079 +0.00 +0.00    +0.153 HD 
DOCKED: BRANCH  13  16
DOCKED: ATOM     16  O3  UNL     1       2.340  -1.075   5.936 +0.00 -0.00    -0.445 OA 
DOCKED: BRANCH  16  17
DOCKED: ATOM     17  C8  UNL     1       1.108  -1.806   6.170 +0.00 +0.00    +0.107 C  
DOCKED: ATOM     18  C9  UNL     1       0.096  -0.731   6.595 +0.00 +0.00    +0.055 C  
DOCKED: ATOM     19  C10 UNL     1       0.604  -2.485   4.893 +0.00 +0.00    +0.055 C  
DOCKED: ATOM     20  C11 UNL     1       1.268  -2.806   7.320 +0.00 +0.00    +0.055 C  
DOCKED: ENDBRANCH  16  17
DOCKED: ENDBRANCH  13  16
DOCKED: ENDBRANCH  11  12
DOCKED: BRANCH  11  21
DOCKED: ATOM     21  C12 UNL     1       2.864   0.101   1.438 +0.00 +0.00    +0.012 C  
DOCKED: ATOM     22  C13 UNL     1       1.510  -0.569   1.184 +0.00 +0.00    +0.009 C  
DOCKED: ATOM     23  C14 UNL     1       3.735   0.013   0.180 +0.00 +0.00    +0.009 C  
DOCKED: ENDBRANCH  11  21
DOCKED: ENDBRANCH   8  11
DOCKED: ENDBRANCH   6   7
DOCKED: BRANCH   6  24
DOCKED: ATOM     24  C3  UNL     1       6.585   1.549   5.743 +0.00 +0.00    +0.042 C  
DOCKED: BRANCH  24  25
DOCKED: ATOM     25  C2  UNL     1       5.332   2.414   5.641 +0.00 +0.00    +0.071 C  
DOCKED: BRANCH  25  27
DOCKED: ATOM     26  C1  UNL     1       2.592   2.189   5.494 +0.00 +0.00    +0.084 C  
DOCKED: ATOM     27  S1  UNL     1       3.956   1.616   6.530 +0.00 -0.00    -0.164 S  
DOCKED: ENDBRANCH  25  27
DOCKED: ENDBRANCH  24  25
DOCKED: ENDBRANCH   6  24
DOCKED: ENDBRANCH   2   6
DOCKED: ENDBRANCH   1   4
DOCKED: BRANCH   1  28
DOCKED: ATOM     28  C17 UNL     1       8.024  -2.811   6.879 +0.00 +0.00    +0.060 C  
DOCKED: BRANCH  28  29
DOCKED: ATOM     29  C18 UNL     1       6.810  -2.179   7.523 +0.00 -0.00    -0.046 A  
DOCKED: ATOM     30  C19 UNL     1       5.568  -2.829   7.532 +0.00 +0.00    +0.004 A  
DOCKED: ATOM     31  C20 UNL     1       4.459  -2.224   8.127 +0.00 +0.00    +0.000 A  
DOCKED: ATOM     32  C21 UNL     1       4.583  -0.976   8.732 +0.00 +0.00    +0.000 A  
DOCKED: ATOM     33  C22 UNL     1       5.816  -0.331   8.746 +0.00 +0.00    +0.000 A  
DOCKED: ATOM     34  C23 UNL     1       6.925  -0.928   8.146 +0.00 +0.00    +0.004 A  
DOCKED: ENDBRANCH  28  29
DOCKED: ENDBRANCH   1  28
DOCKED: BRANCH   1  35
DOCKED: ATOM     35  C24 UNL     1       7.244  -4.211   4.859 +0.00 +0.00    +0.136 C  
DOCKED: BRANCH  35  36
DOCKED: ATOM     36  O5  UNL     1       5.841  -3.896   4.737 +0.00 -0.00    -0.390 OA 
DOCKED: ATOM     37  H38 UNL     1       5.781  -3.079   4.211 +0.00 +0.00    +0.210 HD 
DOCKED: ENDBRANCH  35  36
DOCKED: BRANCH  35  38
DOCKED: ATOM     38  C25 UNL     1       7.711  -4.743   3.487 +0.00 +0.00    +0.045 C  
DOCKED: BRANCH  38  39
DOCKED: ATOM     39  C26 UNL     1       7.709  -3.693   2.362 +0.00 +0.00    +0.074 C  
DOCKED: ATOM     40  C27 UNL     1       8.333  -4.261   1.086 +0.00 +0.00    +0.017 C  
DOCKED: BRANCH  39  41
DOCKED: ATOM     41  C28 UNL     1       6.323  -3.139   2.072 +0.00 +0.00    +0.217 C  
DOCKED: ATOM     42  O6  UNL     1       5.843  -2.230   2.744 +0.00 -0.00    -0.276 OA 
DOCKED: ATOM     43  N4  UNL     1       5.640  -3.748   1.055 +0.00 -0.00    -0.304 N  
DOCKED: ATOM     44  H45 UNL     1       6.026  -4.551   0.568 +0.00 +0.00    +0.149 HD 
DOCKED: BRANCH  43  45
DOCKED: ATOM     45  C29 UNL     1       4.251  -3.420   0.727 +0.00 +0.00    +0.161 C  
DOCKED: BRANCH  45  46
DOCKED: ATOM     46  C30 UNL     1       3.363  -4.337   1.598 +0.00 +0.00    +0.234 C  
DOCKED: ATOM     47  O7  UNL     1       2.570  -5.135   1.093 +0.00 -0.00    -0.274 OA 
DOCKED: ATOM     48  N5  UNL     1       3.514  -4.177   2.953 +0.00 -0.00    -0.310 N  
DOCKED: ATOM     49  H47 UNL     1       4.244  -3.568   3.301 +0.00 +0.00    +0.149 HD 
DOCKED: BRANCH  48  50
DOCKED: ATOM     50  C31 UNL     1       2.718  -4.899   3.915 +0.00 +0.00    +0.139 C  
DOCKED: BRANCH  50  51
DOCKED: ATOM     51  C32 UNL     1       3.592  -5.593   4.923 +0.00 -0.00    -0.030 A  
DOCKED: ATOM     52  C33 UNL     1       4.541  -6.541   4.519 +0.00 +0.00    +0.005 A  
DOCKED: ATOM     53  C34 UNL     1       5.354  -7.174   5.462 +0.00 +0.00    +0.000 A  
DOCKED: ATOM     54  C35 UNL     1       5.234  -6.856   6.814 +0.00 +0.00    +0.000 A  
DOCKED: ATOM     55  C36 UNL     1       4.307  -5.899   7.223 +0.00 +0.00    +0.000 A  
DOCKED: ATOM     56  C37 UNL     1       3.490  -5.269   6.284 +0.00 +0.00    +0.005 A  
DOCKED: ENDBRANCH  50  51
DOCKED: ENDBRANCH  48  50
DOCKED: ENDBRANCH  45  46
DOCKED: BRANCH  45  57
DOCKED: ATOM     57  C38 UNL     1       3.990  -3.546  -0.793 +0.00 +0.00    +0.012 C  
DOCKED: ATOM     58  C39 UNL     1       2.626  -2.994  -1.215 +0.00 +0.00    +0.009 C  
DOCKED: ATOM     59  C40 UNL     1       5.097  -2.913  -1.638 +0.00 +0.00    +0.009 C  
DOCKED: ENDBRANCH  45  57
DOCKED: ENDBRANCH  43  45
DOCKED: ENDBRANCH  39  41
DOCKED: ENDBRANCH  38  39
DOCKED: ENDBRANCH  35  38
DOCKED: ENDBRANCH   1  35
DOCKED: TORSDOF 23
DOCKED: TER
DOCKED: ENDMDL
________________________________________________________________________________


    FINAL DOCKED STATE:
    ________________________


Run:   12 / 20
Time taken for this run:   2.402s

DOCKED: MODEL        12
DOCKED: USER    Run = 12
DOCKED: USER
DOCKED: USER    Estimated Free Energy of Binding    =  +6.86 kcal/mol  [=(1)+(2)+(3)-(4)]
DOCKED: USER
DOCKED: USER    (1) Final Intermolecular Energy     =  +0.00 kcal/mol
DOCKED: USER        vdW + Hbond + desolv Energy     =  +0.00 kcal/mol
DOCKED: USER        Electrostatic Energy            =  +0.00 kcal/mol
DOCKED: USER        Moving Ligand-Fixed Receptor    =  +0.00 kcal/mol
DOCKED: USER        Moving Ligand-Moving Receptor   =  +0.00 kcal/mol
DOCKED: USER    (2) Final Total Internal Energy     = -15.51 kcal/mol
DOCKED: USER    (3) Torsional Free Energy           =  +6.86 kcal/mol
DOCKED: USER    (4) Unbound System's Energy         = -15.51 kcal/mol
DOCKED: USER
DOCKED: USER
DOCKED: REMARK  Name = ligands/ligand_5.pdb
DOCKED: REMARK  32 active torsions:
DOCKED: REMARK  status: ('A' for Active; 'I' for Inactive)
DOCKED: REMARK    1  A    between atoms: C1_1  and  S1_2
DOCKED: REMARK    2  A    between atoms: S1_2  and  C2_3
DOCKED: REMARK    3  A    between atoms: C2_3  and  C3_4
DOCKED: REMARK    4  A    between atoms: C3_4  and  C4_5
DOCKED: REMARK    5  A    between atoms: C4_5  and  N1_6
DOCKED: REMARK    6  A    between atoms: C4_5  and  C15_21
DOCKED: REMARK    7  A    between atoms: C5_7  and  C6_9
DOCKED: REMARK    8  A    between atoms: C6_9  and  N2_10
DOCKED: REMARK    9  A    between atoms: C6_9  and  C12_18
DOCKED: REMARK   10  A    between atoms: C7_11  and  O3_13
DOCKED: REMARK   11  A    between atoms: O3_13  and  C8_14
DOCKED: REMARK   12  A    between atoms: C8_14  and  C9_15
DOCKED: REMARK   13  A    between atoms: C8_14  and  C10_16
DOCKED: REMARK   14  A    between atoms: C8_14  and  C11_17
DOCKED: REMARK   15  A    between atoms: C12_18  and  C13_19
DOCKED: REMARK   16  A    between atoms: C12_18  and  C14_20
DOCKED: REMARK   17  A    between atoms: N3_23  and  C16_24
DOCKED: REMARK   18  A    between atoms: C16_24  and  C17_25
DOCKED: REMARK   19  A    between atoms: C16_24  and  C24_32
DOCKED: REMARK   20  A    between atoms: C17_25  and  C18_26
DOCKED: REMARK   21  A    between atoms: C24_32  and  O5_33
DOCKED: REMARK   22  A    between atoms: C24_32  and  C25_34
DOCKED: REMARK   23  A    between atoms: C25_34  and  C26_35
DOCKED: REMARK   24  A    between atoms: C26_35  and  C27_36
DOCKED: REMARK   25  A    between atoms: C26_35  and  C28_37
DOCKED: REMARK   26  A    between atoms: N4_39  and  C29_40
DOCKED: REMARK   27  A    between atoms: C29_40  and  C30_41
DOCKED: REMARK   28  A    between atoms: C29_40  and  C38_51
DOCKED: REMARK   29  A    between atoms: N5_43  and  C31_44
DOCKED: REMARK   30  A    between atoms: C31_44  and  C32_45
DOCKED: REMARK   31  A    between atoms: C38_51  and  C39_52
DOCKED: REMARK   32  A    between atoms: C38_51  and  C40_53
DOCKED: REMARK                            x       y       z     vdW  Elec       q    Type
DOCKED: REMARK                         _______ _______ _______ _____ _____    ______ ____
DOCKED: USER                              x       y       z     vdW  Elec       q    Type
DOCKED: USER                           _______ _______ _______ _____ _____    ______ ____
DOCKED: ROOT
DOCKED: ATOM      1  C16 UNL     1      11.996  -2.729   2.404 +0.00 +0.00    +0.106 C  
DOCKED: ENDROOT
DOCKED: BRANCH   1   4
DOCKED: ATOM      2  C15 UNL     1      11.706  -4.965   3.473 +0.00 +0.00    +0.234 C  
DOCKED: ATOM      3  O4  UNL     1      12.793  -4.931   4.051 +0.00 -0.00    -0.274 OA 
DOCKED: ATOM      4  N3  UNL     1      11.182  -3.896   2.780 +0.00 -0.00    -0.308 N  
DOCKED: ATOM      5  H28 UNL     1      10.421  -4.075   2.129 +0.00 +0.00    +0.149 HD 
DOCKED: BRANCH   2   6
DOCKED: ATOM      6  C4  UNL     1      10.798  -6.216   3.472 +0.00 +0.00    +0.160 C  
DOCKED: BRANCH   6   7
DOCKED: ATOM      7  N1  UNL     1      10.202  -6.301   2.138 +0.00 -0.00    -0.302 N  
DOCKED: ATOM      8  C5  UNL     1       9.001  -6.970   1.977 +0.00 +0.00    +0.234 C  
DOCKED: ATOM      9  O1  UNL     1       8.501  -7.642   2.878 +0.00 -0.00    -0.274 OA 
DOCKED: ATOM     10  H9  UNL     1      10.385  -5.517   1.523 +0.00 +0.00    +0.150 HD 
DOCKED: BRANCH   8  11
DOCKED: ATOM     11  C6  UNL     1       8.326  -6.776   0.593 +0.00 +0.00    +0.165 C  
DOCKED: BRANCH  11  12
DOCKED: ATOM     12  N2  UNL     1       7.812  -5.415   0.528 +0.00 -0.00    -0.270 N  
DOCKED: ATOM     13  C7  UNL     1       8.643  -4.378   0.228 +0.00 +0.00    +0.401 C  
DOCKED: ATOM     14  O2  UNL     1       9.861  -4.413   0.294 +0.00 -0.00    -0.226 OA 
DOCKED: ATOM     15  H11 UNL     1       6.891  -5.285   0.127 +0.00 +0.00    +0.153 HD 
DOCKED: BRANCH  13  16
DOCKED: ATOM     16  O3  UNL     1       7.891  -3.329  -0.172 +0.00 -0.00    -0.445 OA 
DOCKED: BRANCH  16  17
DOCKED: ATOM     17  C8  UNL     1       8.124  -2.699  -1.459 +0.00 +0.00    +0.107 C  
DOCKED: ATOM     18  C9  UNL     1       6.750  -2.151  -1.875 +0.00 +0.00    +0.055 C  
DOCKED: ATOM     19  C10 UNL     1       9.110  -1.533  -1.345 +0.00 +0.00    +0.055 C  
DOCKED: ATOM     20  C11 UNL     1       8.576  -3.725  -2.503 +0.00 +0.00    +0.055 C  
DOCKED: ENDBRANCH  16  17
DOCKED: ENDBRANCH  13  16
DOCKED: ENDBRANCH  11  12
DOCKED: BRANCH  11  21
DOCKED: ATOM     21  C12 UNL     1       9.299  -7.090  -0.567 +0.00 +0.00    +0.012 C  
DOCKED: ATOM     22  C13 UNL     1       8.632  -7.035  -1.946 +0.00 +0.00    +0.009 C  
DOCKED: ATOM     23  C14 UNL     1       9.972  -8.451  -0.365 +0.00 +0.00    +0.009 C  
DOCKED: ENDBRANCH  11  21
DOCKED: ENDBRANCH   8  11
DOCKED: ENDBRANCH   6   7
DOCKED: BRANCH   6  24
DOCKED: ATOM     24  C3  UNL     1      11.591  -7.485   3.787 +0.00 +0.00    +0.042 C  
DOCKED: BRANCH  24  25
DOCKED: ATOM     25  C2  UNL     1      12.748  -7.712   2.817 +0.00 +0.00    +0.071 C  
DOCKED: BRANCH  25  27
DOCKED: ATOM     26  C1  UNL     1      10.993  -9.832   2.715 +0.00 +0.00    +0.084 C  
DOCKED: ATOM     27  S1  UNL     1      12.438  -9.210   1.827 +0.00 -0.00    -0.164 S  
DOCKED: ENDBRANCH  25  27
DOCKED: ENDBRANCH  24  25
DOCKED: ENDBRANCH   6  24
DOCKED: ENDBRANCH   2   6
DOCKED: ENDBRANCH   1   4
DOCKED: BRANCH   1  28
DOCKED: ATOM     28  C17 UNL     1      13.175  -3.205   1.517 +0.00 +0.00    +0.060 C  
DOCKED: BRANCH  28  29
DOCKED: ATOM     29  C18 UNL     1      12.778  -3.977   0.278 +0.00 -0.00    -0.046 A  
DOCKED: ATOM     30  C19 UNL     1      12.361  -3.320  -0.888 +0.00 +0.00    +0.004 A  
DOCKED: ATOM     31  C20 UNL     1      11.993  -4.053  -2.018 +0.00 +0.00    +0.000 A  
DOCKED: ATOM     32  C21 UNL     1      12.055  -5.444  -2.001 +0.00 +0.00    +0.000 A  
DOCKED: ATOM     33  C22 UNL     1      12.487  -6.106  -0.855 +0.00 +0.00    +0.000 A  
DOCKED: ATOM     34  C23 UNL     1      12.848  -5.377   0.279 +0.00 +0.00    +0.004 A  
DOCKED: ENDBRANCH  28  29
DOCKED: ENDBRANCH   1  28
DOCKED: BRANCH   1  35
DOCKED: ATOM     35  C24 UNL     1      11.087  -1.700   1.674 +0.00 +0.00    +0.136 C  
DOCKED: BRANCH  35  36
DOCKED: ATOM     36  O5  UNL     1       9.737  -2.206   1.725 +0.00 -0.00    -0.390 OA 
DOCKED: ATOM     37  H38 UNL     1       9.462  -2.367   0.805 +0.00 +0.00    +0.210 HD 
DOCKED: ENDBRANCH  35  36
DOCKED: BRANCH  35  38
DOCKED: ATOM     38  C25 UNL     1      11.069  -0.294   2.311 +0.00 +0.00    +0.045 C  
DOCKED: BRANCH  38  39
DOCKED: ATOM     39  C26 UNL     1      10.343  -0.218   3.666 +0.00 +0.00    +0.074 C  
DOCKED: ATOM     40  C27 UNL     1      10.971   0.853   4.561 +0.00 +0.00    +0.017 C  
DOCKED: BRANCH  39  41
DOCKED: ATOM     41  C28 UNL     1       8.848   0.022   3.525 +0.00 +0.00    +0.217 C  
DOCKED: ATOM     42  O6  UNL     1       8.129   0.181   4.508 +0.00 -0.00    -0.276 OA 
DOCKED: ATOM     43  N4  UNL     1       8.361   0.001   2.247 +0.00 -0.00    -0.304 N  
DOCKED: ATOM     44  H45 UNL     1       8.962  -0.213   1.457 +0.00 +0.00    +0.149 HD 
DOCKED: BRANCH  43  45
DOCKED: ATOM     45  C29 UNL     1       6.931   0.093   1.944 +0.00 +0.00    +0.161 C  
DOCKED: BRANCH  45  46
DOCKED: ATOM     46  C30 UNL     1       6.277  -1.186   2.514 +0.00 +0.00    +0.234 C  
DOCKED: ATOM     47  O7  UNL     1       5.236  -1.139   3.173 +0.00 -0.00    -0.274 OA 
DOCKED: ATOM     48  N5  UNL     1       6.950  -2.353   2.247 +0.00 -0.00    -0.310 N  
DOCKED: ATOM     49  H47 UNL     1       7.750  -2.332   1.628 +0.00 +0.00    +0.149 HD 
DOCKED: BRANCH  48  50
DOCKED: ATOM     50  C31 UNL     1       6.523  -3.631   2.759 +0.00 +0.00    +0.139 C  
DOCKED: BRANCH  50  51
DOCKED: ATOM     51  C32 UNL     1       7.402  -4.073   3.898 +0.00 -0.00    -0.030 A  
DOCKED: ATOM     52  C33 UNL     1       7.231  -5.331   4.491 +0.00 +0.00    +0.005 A  
DOCKED: ATOM     53  C34 UNL     1       8.058  -5.736   5.541 +0.00 +0.00    +0.000 A  
DOCKED: ATOM     54  C35 UNL     1       9.068  -4.892   6.000 +0.00 +0.00    +0.000 A  
DOCKED: ATOM     55  C36 UNL     1       9.259  -3.647   5.402 +0.00 +0.00    +0.000 A  
DOCKED: ATOM     56  C37 UNL     1       8.431  -3.239   4.356 +0.00 +0.00    +0.005 A  
DOCKED: ENDBRANCH  50  51
DOCKED: ENDBRANCH  48  50
DOCKED: ENDBRANCH  45  46
DOCKED: BRANCH  45  57
DOCKED: ATOM     57  C38 UNL     1       6.692   0.304   0.429 +0.00 +0.00    +0.012 C  
DOCKED: ATOM     58  C39 UNL     1       5.226   0.580   0.087 +0.00 +0.00    +0.009 C  
DOCKED: ATOM     59  C40 UNL     1       7.585   1.395  -0.164 +0.00 +0.00    +0.009 C  
DOCKED: ENDBRANCH  45  57
DOCKED: ENDBRANCH  43  45
DOCKED: ENDBRANCH  39  41
DOCKED: ENDBRANCH  38  39
DOCKED: ENDBRANCH  35  38
DOCKED: ENDBRANCH   1  35
DOCKED: TORSDOF 23
DOCKED: TER
DOCKED: ENDMDL
________________________________________________________________________________


    FINAL DOCKED STATE:
    ________________________


Run:   13 / 20
Time taken for this run:   2.402s

DOCKED: MODEL        13
DOCKED: USER    Run = 13
DOCKED: USER
DOCKED: USER    Estimated Free Energy of Binding    =  +6.86 kcal/mol  [=(1)+(2)+(3)-(4)]
DOCKED: USER
DOCKED: USER    (1) Final Intermolecular Energy     =  +0.00 kcal/mol
DOCKED: USER        vdW + Hbond + desolv Energy     =  +0.00 kcal/mol
DOCKED: USER        Electrostatic Energy            =  +0.00 kcal/mol
DOCKED: USER        Moving Ligand-Fixed Receptor    =  +0.00 kcal/mol
DOCKED: USER        Moving Ligand-Moving Receptor   =  +0.00 kcal/mol
DOCKED: USER    (2) Final Total Internal Energy     = -15.92 kcal/mol
DOCKED: USER    (3) Torsional Free Energy           =  +6.86 kcal/mol
DOCKED: USER    (4) Unbound System's Energy         = -15.92 kcal/mol
DOCKED: USER
DOCKED: USER
DOCKED: REMARK  Name = ligands/ligand_5.pdb
DOCKED: REMARK  32 active torsions:
DOCKED: REMARK  status: ('A' for Active; 'I' for Inactive)
DOCKED: REMARK    1  A    between atoms: C1_1  and  S1_2
DOCKED: REMARK    2  A    between atoms: S1_2  and  C2_3
DOCKED: REMARK    3  A    between atoms: C2_3  and  C3_4
DOCKED: REMARK    4  A    between atoms: C3_4  and  C4_5
DOCKED: REMARK    5  A    between atoms: C4_5  and  N1_6
DOCKED: REMARK    6  A    between atoms: C4_5  and  C15_21
DOCKED: REMARK    7  A    between atoms: C5_7  and  C6_9
DOCKED: REMARK    8  A    between atoms: C6_9  and  N2_10
DOCKED: REMARK    9  A    between atoms: C6_9  and  C12_18
DOCKED: REMARK   10  A    between atoms: C7_11  and  O3_13
DOCKED: REMARK   11  A    between atoms: O3_13  and  C8_14
DOCKED: REMARK   12  A    between atoms: C8_14  and  C9_15
DOCKED: REMARK   13  A    between atoms: C8_14  and  C10_16
DOCKED: REMARK   14  A    between atoms: C8_14  and  C11_17
DOCKED: REMARK   15  A    between atoms: C12_18  and  C13_19
DOCKED: REMARK   16  A    between atoms: C12_18  and  C14_20
DOCKED: REMARK   17  A    between atoms: N3_23  and  C16_24
DOCKED: REMARK   18  A    between atoms: C16_24  and  C17_25
DOCKED: REMARK   19  A    between atoms: C16_24  and  C24_32
DOCKED: REMARK   20  A    between atoms: C17_25  and  C18_26
DOCKED: REMARK   21  A    between atoms: C24_32  and  O5_33
DOCKED: REMARK   22  A    between atoms: C24_32  and  C25_34
DOCKED: REMARK   23  A    between atoms: C25_34  and  C26_35
DOCKED: REMARK   24  A    between atoms: C26_35  and  C27_36
DOCKED: REMARK   25  A    between atoms: C26_35  and  C28_37
DOCKED: REMARK   26  A    between atoms: N4_39  and  C29_40
DOCKED: REMARK   27  A    between atoms: C29_40  and  C30_41
DOCKED: REMARK   28  A    between atoms: C29_40  and  C38_51
DOCKED: REMARK   29  A    between atoms: N5_43  and  C31_44
DOCKED: REMARK   30  A    between atoms: C31_44  and  C32_45
DOCKED: REMARK   31  A    between atoms: C38_51  and  C39_52
DOCKED: REMARK   32  A    between atoms: C38_51  and  C40_53
DOCKED: REMARK                            x       y       z     vdW  Elec       q    Type
DOCKED: REMARK                         _______ _______ _______ _____ _____    ______ ____
DOCKED: USER                              x       y       z     vdW  Elec       q    Type
DOCKED: USER                           _______ _______ _______ _____ _____    ______ ____
DOCKED: ROOT
DOCKED: ATOM      1  C16 UNL     1       9.385  -7.695  -0.030 +0.00 +0.00    +0.106 C  
DOCKED: ENDROOT
DOCKED: BRANCH   1   4
DOCKED: ATOM      2  C15 UNL     1       9.459  -9.887  -1.221 +0.00 +0.00    +0.234 C  
DOCKED: ATOM      3  O4  UNL     1       8.482  -9.638  -1.929 +0.00 -0.00    -0.274 OA 
DOCKED: ATOM      4  N3  UNL     1      10.045  -8.960  -0.386 +0.00 -0.00    -0.308 N  
DOCKED: ATOM      5  H28 UNL     1      10.669  -9.301   0.341 +0.00 +0.00    +0.149 HD 
DOCKED: BRANCH   2   6
DOCKED: ATOM      6  C4  UNL     1      10.145 -11.271  -1.199 +0.00 +0.00    +0.160 C  
DOCKED: BRANCH   6   7
DOCKED: ATOM      7  N1  UNL     1      11.342 -11.133  -0.368 +0.00 -0.00    -0.302 N  
DOCKED: ATOM      8  C5  UNL     1      12.532 -11.691  -0.801 +0.00 +0.00    +0.234 C  
DOCKED: ATOM      9  O1  UNL     1      12.587 -12.444  -1.773 +0.00 -0.00    -0.274 OA 
DOCKED: ATOM     10  H9  UNL     1      11.398 -10.287   0.186 +0.00 +0.00    +0.150 HD 
DOCKED: BRANCH   8  11
DOCKED: ATOM     11  C6  UNL     1      13.785 -11.264   0.009 +0.00 +0.00    +0.165 C  
DOCKED: BRANCH  11  12
DOCKED: ATOM     12  N2  UNL     1      13.567 -11.623   1.403 +0.00 -0.00    -0.270 N  
DOCKED: ATOM     13  C7  UNL     1      12.626 -10.971   2.143 +0.00 +0.00    +0.401 C  
DOCKED: ATOM     14  O2  UNL     1      12.130  -9.894   1.855 +0.00 -0.00    -0.226 OA 
DOCKED: ATOM     15  H11 UNL     1      13.618 -12.606   1.644 +0.00 +0.00    +0.153 HD 
DOCKED: BRANCH  13  16
DOCKED: ATOM     16  O3  UNL     1      12.329 -11.729   3.221 +0.00 -0.00    -0.445 OA 
DOCKED: BRANCH  16  17
DOCKED: ATOM     17  C8  UNL     1      13.084 -11.591   4.453 +0.00 +0.00    +0.107 C  
DOCKED: ATOM     18  C9  UNL     1      13.242 -13.028   4.973 +0.00 +0.00    +0.055 C  
DOCKED: ATOM     19  C10 UNL     1      14.473 -10.998   4.200 +0.00 +0.00    +0.055 C  
DOCKED: ATOM     20  C11 UNL     1      12.302 -10.780   5.492 +0.00 +0.00    +0.055 C  
DOCKED: ENDBRANCH  16  17
DOCKED: ENDBRANCH  13  16
DOCKED: ENDBRANCH  11  12
DOCKED: BRANCH  11  21
DOCKED: ATOM     21  C12 UNL     1      15.076 -11.894  -0.562 +0.00 +0.00    +0.012 C  
DOCKED: ATOM     22  C13 UNL     1      16.269 -11.802   0.396 +0.00 +0.00    +0.009 C  
DOCKED: ATOM     23  C14 UNL     1      15.442 -11.270  -1.913 +0.00 +0.00    +0.009 C  
DOCKED: ENDBRANCH  11  21
DOCKED: ENDBRANCH   8  11
DOCKED: ENDBRANCH   6   7
DOCKED: BRANCH   6  24
DOCKED: ATOM     24  C3  UNL     1       9.219 -12.348  -0.631 +0.00 +0.00    +0.042 C  
DOCKED: BRANCH  24  25
DOCKED: ATOM     25  C2  UNL     1       9.963 -13.626  -0.256 +0.00 +0.00    +0.071 C  
DOCKED: BRANCH  25  27
DOCKED: ATOM     26  C1  UNL     1      11.938 -14.504   1.451 +0.00 +0.00    +0.084 C  
DOCKED: ATOM     27  S1  UNL     1      10.373 -13.604   1.519 +0.00 -0.00    -0.164 S  
DOCKED: ENDBRANCH  25  27
DOCKED: ENDBRANCH  24  25
DOCKED: ENDBRANCH   6  24
DOCKED: ENDBRANCH   2   6
DOCKED: ENDBRANCH   1   4
DOCKED: BRANCH   1  28
DOCKED: ATOM     28  C17 UNL     1       8.192  -8.000   0.914 +0.00 +0.00    +0.060 C  
DOCKED: BRANCH  28  29
DOCKED: ATOM     29  C18 UNL     1       8.401  -9.161   1.861 +0.00 -0.00    -0.046 A  
DOCKED: ATOM     30  C19 UNL     1       7.698 -10.364   1.705 +0.00 +0.00    +0.004 A  
DOCKED: ATOM     31  C20 UNL     1       7.901 -11.421   2.595 +0.00 +0.00    +0.000 A  
DOCKED: ATOM     32  C21 UNL     1       8.819 -11.294   3.635 +0.00 +0.00    +0.000 A  
DOCKED: ATOM     33  C22 UNL     1       9.536 -10.111   3.787 +0.00 +0.00    +0.000 A  
DOCKED: ATOM     34  C23 UNL     1       9.330  -9.050   2.905 +0.00 +0.00    +0.004 A  
DOCKED: ENDBRANCH  28  29
DOCKED: ENDBRANCH   1  28
DOCKED: BRANCH   1  35
DOCKED: ATOM     35  C24 UNL     1      10.431  -6.754   0.629 +0.00 +0.00    +0.136 C  
DOCKED: BRANCH  35  36
DOCKED: ATOM     36  O5  UNL     1      11.388  -7.587   1.315 +0.00 -0.00    -0.390 OA 
DOCKED: ATOM     37  H38 UNL     1      11.669  -8.272   0.683 +0.00 +0.00    +0.210 HD 
DOCKED: ENDBRANCH  35  36
DOCKED: BRANCH  35  38
DOCKED: ATOM     38  C25 UNL     1      11.223  -5.878  -0.366 +0.00 +0.00    +0.045 C  
DOCKED: BRANCH  38  39
DOCKED: ATOM     39  C26 UNL     1      11.873  -6.656  -1.523 +0.00 +0.00    +0.074 C  
DOCKED: ATOM     40  C27 UNL     1      12.503  -5.700  -2.537 +0.00 +0.00    +0.017 C  
DOCKED: BRANCH  39  41
DOCKED: ATOM     41  C28 UNL     1      12.897  -7.675  -1.050 +0.00 +0.00    +0.217 C  
DOCKED: ATOM     42  O6  UNL     1      12.558  -8.790  -0.658 +0.00 -0.00    -0.276 OA 
DOCKED: ATOM     43  N4  UNL     1      14.198  -7.253  -1.046 +0.00 -0.00    -0.304 N  
DOCKED: ATOM     44  H45 UNL     1      14.443  -6.300  -1.297 +0.00 +0.00    +0.149 HD 
DOCKED: BRANCH  43  45
DOCKED: ATOM     45  C29 UNL     1      15.292  -8.064  -0.506 +0.00 +0.00    +0.161 C  
DOCKED: BRANCH  45  46
DOCKED: ATOM     46  C30 UNL     1      15.390  -7.727   0.999 +0.00 +0.00    +0.234 C  
DOCKED: ATOM     47  O7  UNL     1      16.419  -7.253   1.487 +0.00 -0.00    -0.274 OA 
DOCKED: ATOM     48  N5  UNL     1      14.266  -8.012   1.734 +0.00 -0.00    -0.310 N  
DOCKED: ATOM     49  H47 UNL     1      13.428  -8.318   1.257 +0.00 +0.00    +0.149 HD 
DOCKED: BRANCH  48  50
DOCKED: ATOM     50  C31 UNL     1      14.205  -7.827   3.163 +0.00 +0.00    +0.139 C  
DOCKED: BRANCH  50  51
DOCKED: ATOM     51  C32 UNL     1      13.013  -6.993   3.546 +0.00 -0.00    -0.030 A  
DOCKED: ATOM     52  C33 UNL     1      12.852  -5.696   3.039 +0.00 +0.00    +0.005 A  
DOCKED: ATOM     53  C34 UNL     1      11.738  -4.932   3.393 +0.00 +0.00    +0.000 A  
DOCKED: ATOM     54  C35 UNL     1      10.772  -5.461   4.247 +0.00 +0.00    +0.000 A  
DOCKED: ATOM     55  C36 UNL     1      10.913  -6.757   4.740 +0.00 +0.00    +0.000 A  
DOCKED: ATOM     56  C37 UNL     1      12.027  -7.521   4.391 +0.00 +0.00    +0.005 A  
DOCKED: ENDBRANCH  50  51
DOCKED: ENDBRANCH  48  50
DOCKED: ENDBRANCH  45  46
DOCKED: BRANCH  45  57
DOCKED: ATOM     57  C38 UNL     1      16.603  -7.830  -1.294 +0.00 +0.00    +0.012 C  
DOCKED: ATOM     58  C39 UNL     1      17.718  -8.805  -0.904 +0.00 +0.00    +0.009 C  
DOCKED: ATOM     59  C40 UNL     1      16.394  -7.848  -2.809 +0.00 +0.00    +0.009 C  
DOCKED: ENDBRANCH  45  57
DOCKED: ENDBRANCH  43  45
DOCKED: ENDBRANCH  39  41
DOCKED: ENDBRANCH  38  39
DOCKED: ENDBRANCH  35  38
DOCKED: ENDBRANCH   1  35
DOCKED: TORSDOF 23
DOCKED: TER
DOCKED: ENDMDL
________________________________________________________________________________


    FINAL DOCKED STATE:
    ________________________


Run:   14 / 20
Time taken for this run:   2.402s

DOCKED: MODEL        14
DOCKED: USER    Run = 14
DOCKED: USER
DOCKED: USER    Estimated Free Energy of Binding    =  +6.86 kcal/mol  [=(1)+(2)+(3)-(4)]
DOCKED: USER
DOCKED: USER    (1) Final Intermolecular Energy     =  +0.00 kcal/mol
DOCKED: USER        vdW + Hbond + desolv Energy     =  +0.00 kcal/mol
DOCKED: USER        Electrostatic Energy            =  +0.00 kcal/mol
DOCKED: USER        Moving Ligand-Fixed Receptor    =  +0.00 kcal/mol
DOCKED: USER        Moving Ligand-Moving Receptor   =  +0.00 kcal/mol
DOCKED: USER    (2) Final Total Internal Energy     = -15.99 kcal/mol
DOCKED: USER    (3) Torsional Free Energy           =  +6.86 kcal/mol
DOCKED: USER    (4) Unbound System's Energy         = -15.99 kcal/mol
DOCKED: USER
DOCKED: USER
DOCKED: REMARK  Name = ligands/ligand_5.pdb
DOCKED: REMARK  32 active torsions:
DOCKED: REMARK  status: ('A' for Active; 'I' for Inactive)
DOCKED: REMARK    1  A    between atoms: C1_1  and  S1_2
DOCKED: REMARK    2  A    between atoms: S1_2  and  C2_3
DOCKED: REMARK    3  A    between atoms: C2_3  and  C3_4
DOCKED: REMARK    4  A    between atoms: C3_4  and  C4_5
DOCKED: REMARK    5  A    between atoms: C4_5  and  N1_6
DOCKED: REMARK    6  A    between atoms: C4_5  and  C15_21
DOCKED: REMARK    7  A    between atoms: C5_7  and  C6_9
DOCKED: REMARK    8  A    between atoms: C6_9  and  N2_10
DOCKED: REMARK    9  A    between atoms: C6_9  and  C12_18
DOCKED: REMARK   10  A    between atoms: C7_11  and  O3_13
DOCKED: REMARK   11  A    between atoms: O3_13  and  C8_14
DOCKED: REMARK   12  A    between atoms: C8_14  and  C9_15
DOCKED: REMARK   13  A    between atoms: C8_14  and  C10_16
DOCKED: REMARK   14  A    between atoms: C8_14  and  C11_17
DOCKED: REMARK   15  A    between atoms: C12_18  and  C13_19
DOCKED: REMARK   16  A    between atoms: C12_18  and  C14_20
DOCKED: REMARK   17  A    between atoms: N3_23  and  C16_24
DOCKED: REMARK   18  A    between atoms: C16_24  and  C17_25
DOCKED: REMARK   19  A    between atoms: C16_24  and  C24_32
DOCKED: REMARK   20  A    between atoms: C17_25  and  C18_26
DOCKED: REMARK   21  A    between atoms: C24_32  and  O5_33
DOCKED: REMARK   22  A    between atoms: C24_32  and  C25_34
DOCKED: REMARK   23  A    between atoms: C25_34  and  C26_35
DOCKED: REMARK   24  A    between atoms: C26_35  and  C27_36
DOCKED: REMARK   25  A    between atoms: C26_35  and  C28_37
DOCKED: REMARK   26  A    between atoms: N4_39  and  C29_40
DOCKED: REMARK   27  A    between atoms: C29_40  and  C30_41
DOCKED: REMARK   28  A    between atoms: C29_40  and  C38_51
DOCKED: REMARK   29  A    between atoms: N5_43  and  C31_44
DOCKED: REMARK   30  A    between atoms: C31_44  and  C32_45
DOCKED: REMARK   31  A    between atoms: C38_51  and  C39_52
DOCKED: REMARK   32  A    between atoms: C38_51  and  C40_53
DOCKED: REMARK                            x       y       z     vdW  Elec       q    Type
DOCKED: REMARK                         _______ _______ _______ _____ _____    ______ ____
DOCKED: USER                              x       y       z     vdW  Elec       q    Type
DOCKED: USER                           _______ _______ _______ _____ _____    ______ ____
DOCKED: ROOT
DOCKED: ATOM      1  C16 UNL     1      13.965  -1.890  -6.079 +0.00 +0.00    +0.106 C  
DOCKED: ENDROOT
DOCKED: BRANCH   1   4
DOCKED: ATOM      2  C15 UNL     1      12.302  -0.139  -5.451 +0.00 +0.00    +0.234 C  
DOCKED: ATOM      3  O4  UNL     1      11.357  -0.712  -5.994 +0.00 -0.00    -0.274 OA 
DOCKED: ATOM      4  N3  UNL     1      13.554  -0.699  -5.320 +0.00 -0.00    -0.308 N  
DOCKED: ATOM      5  H28 UNL     1      14.332  -0.082  -5.099 +0.00 +0.00    +0.149 HD 
DOCKED: BRANCH   2   6
DOCKED: ATOM      6  C4  UNL     1      12.184   1.277  -4.843 +0.00 +0.00    +0.160 C  
DOCKED: BRANCH   6   7
DOCKED: ATOM      7  N1  UNL     1      13.461   1.947  -5.086 +0.00 -0.00    -0.302 N  
DOCKED: ATOM      8  C5  UNL     1      13.827   3.015  -4.285 +0.00 +0.00    +0.234 C  
DOCKED: ATOM      9  O1  UNL     1      13.044   3.532  -3.487 +0.00 -0.00    -0.274 OA 
DOCKED: ATOM     10  H9  UNL     1      14.204   1.361  -5.448 +0.00 +0.00    +0.150 HD 
DOCKED: BRANCH   8  11
DOCKED: ATOM     11  C6  UNL     1      15.298   3.479  -4.446 +0.00 +0.00    +0.165 C  
DOCKED: BRANCH  11  12
DOCKED: ATOM     12  N2  UNL     1      16.165   2.397  -3.999 +0.00 -0.00    -0.270 N  
DOCKED: ATOM     13  C7  UNL     1      16.507   1.391  -4.853 +0.00 +0.00    +0.401 C  
DOCKED: ATOM     14  O2  UNL     1      15.924   1.123  -5.891 +0.00 -0.00    -0.226 OA 
DOCKED: ATOM     15  H11 UNL     1      16.930   2.639  -3.380 +0.00 +0.00    +0.153 HD 
DOCKED: BRANCH  13  16
DOCKED: ATOM     16  O3  UNL     1      17.602   0.769  -4.364 +0.00 -0.00    -0.445 OA 
DOCKED: BRANCH  16  17
DOCKED: ATOM     17  C8  UNL     1      18.893   0.929  -5.009 +0.00 +0.00    +0.107 C  
DOCKED: ATOM     18  C9  UNL     1      19.575   2.066  -4.232 +0.00 +0.00    +0.055 C  
DOCKED: ATOM     19  C10 UNL     1      19.745  -0.338  -4.885 +0.00 +0.00    +0.055 C  
DOCKED: ATOM     20  C11 UNL     1      18.731   1.364  -6.469 +0.00 +0.00    +0.055 C  
DOCKED: ENDBRANCH  16  17
DOCKED: ENDBRANCH  13  16
DOCKED: ENDBRANCH  11  12
DOCKED: BRANCH  11  21
DOCKED: ATOM     21  C12 UNL     1      15.606   3.913  -5.898 +0.00 +0.00    +0.012 C  
DOCKED: ATOM     22  C13 UNL     1      17.015   4.489  -6.071 +0.00 +0.00    +0.009 C  
DOCKED: ATOM     23  C14 UNL     1      14.565   4.918  -6.402 +0.00 +0.00    +0.009 C  
DOCKED: ENDBRANCH  11  21
DOCKED: ENDBRANCH   8  11
DOCKED: ENDBRANCH   6   7
DOCKED: BRANCH   6  24
DOCKED: ATOM     24  C3  UNL     1      11.035   2.065  -5.476 +0.00 +0.00    +0.042 C  
DOCKED: BRANCH  24  25
DOCKED: ATOM     25  C2  UNL     1      11.103   2.082  -7.000 +0.00 +0.00    +0.071 C  
DOCKED: BRANCH  25  27
DOCKED: ATOM     26  C1  UNL     1      11.142   4.690  -6.118 +0.00 +0.00    +0.084 C  
DOCKED: ATOM     27  S1  UNL     1      11.611   3.734  -7.577 +0.00 -0.00    -0.164 S  
DOCKED: ENDBRANCH  25  27
DOCKED: ENDBRANCH  24  25
DOCKED: ENDBRANCH   6  24
DOCKED: ENDBRANCH   2   6
DOCKED: ENDBRANCH   1   4
DOCKED: BRANCH   1  28
DOCKED: ATOM     28  C17 UNL     1      13.818  -1.596  -7.594 +0.00 +0.00    +0.060 C  
DOCKED: BRANCH  28  29
DOCKED: ATOM     29  C18 UNL     1      14.579  -0.386  -8.092 +0.00 -0.00    -0.046 A  
DOCKED: ATOM     30  C19 UNL     1      15.927  -0.479  -8.468 +0.00 +0.00    +0.004 A  
DOCKED: ATOM     31  C20 UNL     1      16.612   0.652  -8.919 +0.00 +0.00    +0.000 A  
DOCKED: ATOM     32  C21 UNL     1      15.956   1.877  -9.015 +0.00 +0.00    +0.000 A  
DOCKED: ATOM     33  C22 UNL     1      14.613   1.974  -8.663 +0.00 +0.00    +0.000 A  
DOCKED: ATOM     34  C23 UNL     1      13.927   0.849  -8.204 +0.00 +0.00    +0.004 A  
DOCKED: ENDBRANCH  28  29
DOCKED: ENDBRANCH   1  28
DOCKED: BRANCH   1  35
DOCKED: ATOM     35  C24 UNL     1      15.425  -2.252  -5.688 +0.00 +0.00    +0.136 C  
DOCKED: BRANCH  35  36
DOCKED: ATOM     36  O5  UNL     1      15.925  -1.185  -4.857 +0.00 -0.00    -0.390 OA 
DOCKED: ATOM     37  H38 UNL     1      16.689  -0.800  -5.322 +0.00 +0.00    +0.210 HD 
DOCKED: ENDBRANCH  35  36
DOCKED: BRANCH  35  38
DOCKED: ATOM     38  C25 UNL     1      15.568  -3.561  -4.882 +0.00 +0.00    +0.045 C  
DOCKED: BRANCH  38  39
DOCKED: ATOM     39  C26 UNL     1      16.979  -3.814  -4.322 +0.00 +0.00    +0.074 C  
DOCKED: ATOM     40  C27 UNL     1      18.048  -3.279  -5.278 +0.00 +0.00    +0.017 C  
DOCKED: BRANCH  39  41
DOCKED: ATOM     41  C28 UNL     1      17.177  -3.235  -2.930 +0.00 +0.00    +0.217 C  
DOCKED: ATOM     42  O6  UNL     1      17.006  -3.917  -1.923 +0.00 -0.00    -0.276 OA 
DOCKED: ATOM     43  N4  UNL     1      17.506  -1.909  -2.880 +0.00 -0.00    -0.304 N  
DOCKED: ATOM     44  H45 UNL     1      17.562  -1.347  -3.724 +0.00 +0.00    +0.149 HD 
DOCKED: BRANCH  43  45
DOCKED: ATOM     45  C29 UNL     1      17.612  -1.167  -1.621 +0.00 +0.00    +0.161 C  
DOCKED: BRANCH  45  46
DOCKED: ATOM     46  C30 UNL     1      16.190  -0.666  -1.283 +0.00 +0.00    +0.234 C  
DOCKED: ATOM     47  O7  UNL     1      15.729  -0.754  -0.142 +0.00 -0.00    -0.274 OA 
DOCKED: ATOM     48  N5  UNL     1      15.490  -0.143  -2.342 +0.00 -0.00    -0.310 N  
DOCKED: ATOM     49  H47 UNL     1      15.957  -0.021  -3.232 +0.00 +0.00    +0.149 HD 
DOCKED: BRANCH  48  50
DOCKED: ATOM     50  C31 UNL     1      14.125   0.307  -2.226 +0.00 +0.00    +0.139 C  
DOCKED: BRANCH  50  51
DOCKED: ATOM     51  C32 UNL     1      13.170  -0.854  -2.291 +0.00 -0.00    -0.030 A  
DOCKED: ATOM     52  C33 UNL     1      11.791  -0.659  -2.145 +0.00 +0.00    +0.005 A  
DOCKED: ATOM     53  C34 UNL     1      10.912  -1.741  -2.216 +0.00 +0.00    +0.000 A  
DOCKED: ATOM     54  C35 UNL     1      11.402  -3.026  -2.442 +0.00 +0.00    +0.000 A  
DOCKED: ATOM     55  C36 UNL     1      12.772  -3.228  -2.609 +0.00 +0.00    +0.000 A  
DOCKED: ATOM     56  C37 UNL     1      13.652  -2.148  -2.534 +0.00 +0.00    +0.005 A  
DOCKED: ENDBRANCH  50  51
DOCKED: ENDBRANCH  48  50
DOCKED: ENDBRANCH  45  46
DOCKED: BRANCH  45  57
DOCKED: ATOM     57  C38 UNL     1      18.672  -0.043  -1.721 +0.00 +0.00    +0.012 C  
DOCKED: ATOM     58  C39 UNL     1      18.217   1.268  -1.074 +0.00 +0.00    +0.009 C  
DOCKED: ATOM     59  C40 UNL     1      20.032  -0.461  -1.162 +0.00 +0.00    +0.009 C  
DOCKED: ENDBRANCH  45  57
DOCKED: ENDBRANCH  43  45
DOCKED: ENDBRANCH  39  41
DOCKED: ENDBRANCH  38  39
DOCKED: ENDBRANCH  35  38
DOCKED: ENDBRANCH   1  35
DOCKED: TORSDOF 23
DOCKED: TER
DOCKED: ENDMDL
________________________________________________________________________________


    FINAL DOCKED STATE:
    ________________________


Run:   15 / 20
Time taken for this run:   2.402s

DOCKED: MODEL        15
DOCKED: USER    Run = 15
DOCKED: USER
DOCKED: USER    Estimated Free Energy of Binding    =  +6.86 kcal/mol  [=(1)+(2)+(3)-(4)]
DOCKED: USER
DOCKED: USER    (1) Final Intermolecular Energy     =  +0.00 kcal/mol
DOCKED: USER        vdW + Hbond + desolv Energy     =  +0.00 kcal/mol
DOCKED: USER        Electrostatic Energy            =  +0.00 kcal/mol
DOCKED: USER        Moving Ligand-Fixed Receptor    =  +0.00 kcal/mol
DOCKED: USER        Moving Ligand-Moving Receptor   =  +0.00 kcal/mol
DOCKED: USER    (2) Final Total Internal Energy     = -15.32 kcal/mol
DOCKED: USER    (3) Torsional Free Energy           =  +6.86 kcal/mol
DOCKED: USER    (4) Unbound System's Energy         = -15.32 kcal/mol
DOCKED: USER
DOCKED: USER
DOCKED: REMARK  Name = ligands/ligand_5.pdb
DOCKED: REMARK  32 active torsions:
DOCKED: REMARK  status: ('A' for Active; 'I' for Inactive)
DOCKED: REMARK    1  A    between atoms: C1_1  and  S1_2
DOCKED: REMARK    2  A    between atoms: S1_2  and  C2_3
DOCKED: REMARK    3  A    between atoms: C2_3  and  C3_4
DOCKED: REMARK    4  A    between atoms: C3_4  and  C4_5
DOCKED: REMARK    5  A    between atoms: C4_5  and  N1_6
DOCKED: REMARK    6  A    between atoms: C4_5  and  C15_21
DOCKED: REMARK    7  A    between atoms: C5_7  and  C6_9
DOCKED: REMARK    8  A    between atoms: C6_9  and  N2_10
DOCKED: REMARK    9  A    between atoms: C6_9  and  C12_18
DOCKED: REMARK   10  A    between atoms: C7_11  and  O3_13
DOCKED: REMARK   11  A    between atoms: O3_13  and  C8_14
DOCKED: REMARK   12  A    between atoms: C8_14  and  C9_15
DOCKED: REMARK   13  A    between atoms: C8_14  and  C10_16
DOCKED: REMARK   14  A    between atoms: C8_14  and  C11_17
DOCKED: REMARK   15  A    between atoms: C12_18  and  C13_19
DOCKED: REMARK   16  A    between atoms: C12_18  and  C14_20
DOCKED: REMARK   17  A    between atoms: N3_23  and  C16_24
DOCKED: REMARK   18  A    between atoms: C16_24  and  C17_25
DOCKED: REMARK   19  A    between atoms: C16_24  and  C24_32
DOCKED: REMARK   20  A    between atoms: C17_25  and  C18_26
DOCKED: REMARK   21  A    between atoms: C24_32  and  O5_33
DOCKED: REMARK   22  A    between atoms: C24_32  and  C25_34
DOCKED: REMARK   23  A    between atoms: C25_34  and  C26_35
DOCKED: REMARK   24  A    between atoms: C26_35  and  C27_36
DOCKED: REMARK   25  A    between atoms: C26_35  and  C28_37
DOCKED: REMARK   26  A    between atoms: N4_39  and  C29_40
DOCKED: REMARK   27  A    between atoms: C29_40  and  C30_41
DOCKED: REMARK   28  A    between atoms: C29_40  and  C38_51
DOCKED: REMARK   29  A    between atoms: N5_43  and  C31_44
DOCKED: REMARK   30  A    between atoms: C31_44  and  C32_45
DOCKED: REMARK   31  A    between atoms: C38_51  and  C39_52
DOCKED: REMARK   32  A    between atoms: C38_51  and  C40_53
DOCKED: REMARK                            x       y       z     vdW  Elec       q    Type
DOCKED: REMARK                         _______ _______ _______ _____ _____    ______ ____
DOCKED: USER                              x       y       z     vdW  Elec       q    Type
DOCKED: USER                           _______ _______ _______ _____ _____    ______ ____
DOCKED: ROOT
DOCKED: ATOM      1  C16 UNL     1       9.694  -6.221  -3.319 +0.00 +0.00    +0.106 C  
DOCKED: ENDROOT
DOCKED: BRANCH   1   4
DOCKED: ATOM      2  C15 UNL     1      12.152  -6.247  -3.745 +0.00 +0.00    +0.234 C  
DOCKED: ATOM      3  O4  UNL     1      12.409  -5.443  -2.848 +0.00 -0.00    -0.274 OA 
DOCKED: ATOM      4  N3  UNL     1      10.900  -6.783  -3.948 +0.00 -0.00    -0.308 N  
DOCKED: ATOM      5  H28 UNL     1      10.710  -7.228  -4.842 +0.00 +0.00    +0.149 HD 
DOCKED: BRANCH   2   6
DOCKED: ATOM      6  C4  UNL     1      13.218  -6.755  -4.742 +0.00 +0.00    +0.160 C  
DOCKED: BRANCH   6   7
DOCKED: ATOM      7  N1  UNL     1      12.561  -6.854  -6.046 +0.00 -0.00    -0.302 N  
DOCKED: ATOM      8  C5  UNL     1      13.045  -7.754  -6.979 +0.00 +0.00    +0.234 C  
DOCKED: ATOM      9  O1  UNL     1      14.110  -8.351  -6.821 +0.00 -0.00    -0.274 OA 
DOCKED: ATOM     10  H9  UNL     1      11.566  -6.666  -6.052 +0.00 +0.00    +0.150 HD 
DOCKED: BRANCH   8  11
DOCKED: ATOM     11  C6  UNL     1      12.129  -7.973  -8.211 +0.00 +0.00    +0.165 C  
DOCKED: BRANCH  11  12
DOCKED: ATOM     12  N2  UNL     1      10.782  -7.549  -7.855 +0.00 -0.00    -0.270 N  
DOCKED: ATOM     13  C7  UNL     1      10.196  -8.004  -6.711 +0.00 +0.00    +0.401 C  
DOCKED: ATOM     14  O2  UNL     1      10.561  -8.981  -6.078 +0.00 -0.00    -0.226 OA 
DOCKED: ATOM     15  H11 UNL     1      10.532  -6.586  -8.045 +0.00 +0.00    +0.153 HD 
DOCKED: BRANCH  13  16
DOCKED: ATOM     16  O3  UNL     1       9.172  -7.180  -6.398 +0.00 -0.00    -0.445 OA 
DOCKED: BRANCH  16  17
DOCKED: ATOM     17  C8  UNL     1       7.901  -7.285  -7.090 +0.00 +0.00    +0.107 C  
DOCKED: ATOM     18  C9  UNL     1       7.924  -6.140  -8.116 +0.00 +0.00    +0.055 C  
DOCKED: ATOM     19  C10 UNL     1       7.771  -8.617  -7.835 +0.00 +0.00    +0.055 C  
DOCKED: ATOM     20  C11 UNL     1       6.729  -7.054  -6.131 +0.00 +0.00    +0.055 C  
DOCKED: ENDBRANCH  16  17
DOCKED: ENDBRANCH  13  16
DOCKED: ENDBRANCH  11  12
DOCKED: BRANCH  11  21
DOCKED: ATOM     21  C12 UNL     1      12.663  -7.235  -9.460 +0.00 +0.00    +0.012 C  
DOCKED: ATOM     22  C13 UNL     1      14.126  -7.563  -9.776 +0.00 +0.00    +0.009 C  
DOCKED: ATOM     23  C14 UNL     1      12.486  -5.719  -9.320 +0.00 +0.00    +0.009 C  
DOCKED: ENDBRANCH  11  21
DOCKED: ENDBRANCH   8  11
DOCKED: ENDBRANCH   6   7
DOCKED: BRANCH   6  24
DOCKED: ATOM     24  C3  UNL     1      14.416  -5.805  -4.816 +0.00 +0.00    +0.042 C  
DOCKED: BRANCH  24  25
DOCKED: ATOM     25  C2  UNL     1      14.271  -4.761  -5.919 +0.00 +0.00    +0.071 C  
DOCKED: BRANCH  25  27
DOCKED: ATOM     26  C1  UNL     1      16.488  -6.311  -6.433 +0.00 +0.00    +0.084 C  
DOCKED: ATOM     27  S1  UNL     1      15.398  -5.156  -7.295 +0.00 -0.00    -0.164 S  
DOCKED: ENDBRANCH  25  27
DOCKED: ENDBRANCH  24  25
DOCKED: ENDBRANCH   6  24
DOCKED: ENDBRANCH   2   6
DOCKED: ENDBRANCH   1   4
DOCKED: BRANCH   1  28
DOCKED: ATOM     28  C17 UNL     1       9.069  -5.175  -4.278 +0.00 +0.00    +0.060 C  
DOCKED: BRANCH  28  29
DOCKED: ATOM     29  C18 UNL     1      10.060  -4.281  -4.990 +0.00 -0.00    -0.046 A  
DOCKED: ATOM     30  C19 UNL     1      10.321  -4.429  -6.360 +0.00 +0.00    +0.004 A  
DOCKED: ATOM     31  C20 UNL     1      11.245  -3.597  -6.997 +0.00 +0.00    +0.000 A  
DOCKED: ATOM     32  C21 UNL     1      11.901  -2.601  -6.277 +0.00 +0.00    +0.000 A  
DOCKED: ATOM     33  C22 UNL     1      11.635  -2.433  -4.922 +0.00 +0.00    +0.000 A  
DOCKED: ATOM     34  C23 UNL     1      10.719  -3.267  -4.281 +0.00 +0.00    +0.004 A  
DOCKED: ENDBRANCH  28  29
DOCKED: ENDBRANCH   1  28
DOCKED: BRANCH   1  35
DOCKED: ATOM     35  C24 UNL     1       8.713  -7.382  -2.994 +0.00 +0.00    +0.136 C  
DOCKED: BRANCH  35  36
DOCKED: ATOM     36  O5  UNL     1       8.720  -8.280  -4.123 +0.00 -0.00    -0.390 OA 
DOCKED: ATOM     37  H38 UNL     1       9.169  -7.814  -4.851 +0.00 +0.00    +0.210 HD 
DOCKED: ENDBRANCH  35  36
DOCKED: BRANCH  35  38
DOCKED: ATOM     38  C25 UNL     1       9.092  -8.214  -1.750 +0.00 +0.00    +0.045 C  
DOCKED: BRANCH  38  39
DOCKED: ATOM     39  C26 UNL     1      10.528  -8.768  -1.768 +0.00 +0.00    +0.074 C  
DOCKED: ATOM     40  C27 UNL     1      11.184  -8.625  -0.393 +0.00 +0.00    +0.017 C  
DOCKED: BRANCH  39  41
DOCKED: ATOM     41  C28 UNL     1      10.600 -10.212  -2.240 +0.00 +0.00    +0.217 C  
DOCKED: ATOM     42  O6  UNL     1      11.040 -11.102  -1.515 +0.00 -0.00    -0.276 OA 
DOCKED: ATOM     43  N4  UNL     1      10.191 -10.438  -3.525 +0.00 -0.00    -0.304 N  
DOCKED: ATOM     44  H45 UNL     1       9.908  -9.674  -4.131 +0.00 +0.00    +0.149 HD 
DOCKED: BRANCH  43  45
DOCKED: ATOM     45  C29 UNL     1      10.311 -11.746  -4.175 +0.00 +0.00    +0.161 C  
DOCKED: BRANCH  45  46
DOCKED: ATOM     46  C30 UNL     1      11.799 -11.917  -4.552 +0.00 +0.00    +0.234 C  
DOCKED: ATOM     47  O7  UNL     1      12.326 -13.031  -4.611 +0.00 -0.00    -0.274 OA 
DOCKED: ATOM     48  N5  UNL     1      12.477 -10.747  -4.791 +0.00 -0.00    -0.310 N  
DOCKED: ATOM     49  H47 UNL     1      11.965  -9.874  -4.810 +0.00 +0.00    +0.149 HD 
DOCKED: BRANCH  48  50
DOCKED: ATOM     50  C31 UNL     1      13.888 -10.712  -5.085 +0.00 +0.00    +0.139 C  
DOCKED: BRANCH  50  51
DOCKED: ATOM     51  C32 UNL     1      14.607  -9.773  -4.156 +0.00 -0.00    -0.030 A  
DOCKED: ATOM     52  C33 UNL     1      15.862  -9.248  -4.494 +0.00 +0.00    +0.005 A  
DOCKED: ATOM     53  C34 UNL     1      16.517  -8.370  -3.629 +0.00 +0.00    +0.000 A  
DOCKED: ATOM     54  C35 UNL     1      15.921  -8.001  -2.424 +0.00 +0.00    +0.000 A  
DOCKED: ATOM     55  C36 UNL     1      14.664  -8.502  -2.088 +0.00 +0.00    +0.000 A  
DOCKED: ATOM     56  C37 UNL     1      14.009  -9.383  -2.949 +0.00 +0.00    +0.005 A  
DOCKED: ENDBRANCH  50  51
DOCKED: ENDBRANCH  48  50
DOCKED: ENDBRANCH  45  46
DOCKED: BRANCH  45  57
DOCKED: ATOM     57  C38 UNL     1       9.337 -11.867  -5.372 +0.00 +0.00    +0.012 C  
DOCKED: ATOM     58  C39 UNL     1       8.158 -10.894  -5.285 +0.00 +0.00    +0.009 C  
DOCKED: ATOM     59  C40 UNL     1      10.040 -11.722  -6.723 +0.00 +0.00    +0.009 C  
DOCKED: ENDBRANCH  45  57
DOCKED: ENDBRANCH  43  45
DOCKED: ENDBRANCH  39  41
DOCKED: ENDBRANCH  38  39
DOCKED: ENDBRANCH  35  38
DOCKED: ENDBRANCH   1  35
DOCKED: TORSDOF 23
DOCKED: TER
DOCKED: ENDMDL
________________________________________________________________________________


    FINAL DOCKED STATE:
    ________________________


Run:   16 / 20
Time taken for this run:   2.402s

DOCKED: MODEL        16
DOCKED: USER    Run = 16
DOCKED: USER
DOCKED: USER    Estimated Free Energy of Binding    =  +6.86 kcal/mol  [=(1)+(2)+(3)-(4)]
DOCKED: USER
DOCKED: USER    (1) Final Intermolecular Energy     =  +0.00 kcal/mol
DOCKED: USER        vdW + Hbond + desolv Energy     =  +0.00 kcal/mol
DOCKED: USER        Electrostatic Energy            =  +0.00 kcal/mol
DOCKED: USER        Moving Ligand-Fixed Receptor    =  +0.00 kcal/mol
DOCKED: USER        Moving Ligand-Moving Receptor   =  +0.00 kcal/mol
DOCKED: USER    (2) Final Total Internal Energy     = -15.97 kcal/mol
DOCKED: USER    (3) Torsional Free Energy           =  +6.86 kcal/mol
DOCKED: USER    (4) Unbound System's Energy         = -15.97 kcal/mol
DOCKED: USER
DOCKED: USER
DOCKED: REMARK  Name = ligands/ligand_5.pdb
DOCKED: REMARK  32 active torsions:
DOCKED: REMARK  status: ('A' for Active; 'I' for Inactive)
DOCKED: REMARK    1  A    between atoms: C1_1  and  S1_2
DOCKED: REMARK    2  A    between atoms: S1_2  and  C2_3
DOCKED: REMARK    3  A    between atoms: C2_3  and  C3_4
DOCKED: REMARK    4  A    between atoms: C3_4  and  C4_5
DOCKED: REMARK    5  A    between atoms: C4_5  and  N1_6
DOCKED: REMARK    6  A    between atoms: C4_5  and  C15_21
DOCKED: REMARK    7  A    between atoms: C5_7  and  C6_9
DOCKED: REMARK    8  A    between atoms: C6_9  and  N2_10
DOCKED: REMARK    9  A    between atoms: C6_9  and  C12_18
DOCKED: REMARK   10  A    between atoms: C7_11  and  O3_13
DOCKED: REMARK   11  A    between atoms: O3_13  and  C8_14
DOCKED: REMARK   12  A    between atoms: C8_14  and  C9_15
DOCKED: REMARK   13  A    between atoms: C8_14  and  C10_16
DOCKED: REMARK   14  A    between atoms: C8_14  and  C11_17
DOCKED: REMARK   15  A    between atoms: C12_18  and  C13_19
DOCKED: REMARK   16  A    between atoms: C12_18  and  C14_20
DOCKED: REMARK   17  A    between atoms: N3_23  and  C16_24
DOCKED: REMARK   18  A    between atoms: C16_24  and  C17_25
DOCKED: REMARK   19  A    between atoms: C16_24  and  C24_32
DOCKED: REMARK   20  A    between atoms: C17_25  and  C18_26
DOCKED: REMARK   21  A    between atoms: C24_32  and  O5_33
DOCKED: REMARK   22  A    between atoms: C24_32  and  C25_34
DOCKED: REMARK   23  A    between atoms: C25_34  and  C26_35
DOCKED: REMARK   24  A    between atoms: C26_35  and  C27_36
DOCKED: REMARK   25  A    between atoms: C26_35  and  C28_37
DOCKED: REMARK   26  A    between atoms: N4_39  and  C29_40
DOCKED: REMARK   27  A    between atoms: C29_40  and  C30_41
DOCKED: REMARK   28  A    between atoms: C29_40  and  C38_51
DOCKED: REMARK   29  A    between atoms: N5_43  and  C31_44
DOCKED: REMARK   30  A    between atoms: C31_44  and  C32_45
DOCKED: REMARK   31  A    between atoms: C38_51  and  C39_52
DOCKED: REMARK   32  A    between atoms: C38_51  and  C40_53
DOCKED: REMARK                            x       y       z     vdW  Elec       q    Type
DOCKED: REMARK                         _______ _______ _______ _____ _____    ______ ____
DOCKED: USER                              x       y       z     vdW  Elec       q    Type
DOCKED: USER                           _______ _______ _______ _____ _____    ______ ____
DOCKED: ROOT
DOCKED: ATOM      1  C16 UNL     1       8.652  -7.601   3.514 +0.00 +0.00    +0.106 C  
DOCKED: ENDROOT
DOCKED: BRANCH   1   4
DOCKED: ATOM      2  C15 UNL     1       9.490  -5.712   2.115 +0.00 +0.00    +0.234 C  
DOCKED: ATOM      3  O4  UNL     1       8.640  -4.916   2.519 +0.00 -0.00    -0.274 OA 
DOCKED: ATOM      4  N3  UNL     1       9.658  -6.974   2.643 +0.00 -0.00    -0.308 N  
DOCKED: ATOM      5  H28 UNL     1      10.191  -7.650   2.101 +0.00 +0.00    +0.149 HD 
DOCKED: BRANCH   2   6
DOCKED: ATOM      6  C4  UNL     1      10.476  -5.375   0.974 +0.00 +0.00    +0.160 C  
DOCKED: BRANCH   6   7
DOCKED: ATOM      7  N1  UNL     1      10.661  -6.604   0.202 +0.00 -0.00    -0.302 N  
DOCKED: ATOM      8  C5  UNL     1      11.796  -6.748  -0.576 +0.00 +0.00    +0.234 C  
DOCKED: ATOM      9  O1  UNL     1      12.572  -5.814  -0.780 +0.00 -0.00    -0.274 OA 
DOCKED: ATOM     10  H9  UNL     1      10.267  -7.443   0.610 +0.00 +0.00    +0.150 HD 
DOCKED: BRANCH   8  11
DOCKED: ATOM     11  C6  UNL     1      12.028  -8.176  -1.136 +0.00 +0.00    +0.165 C  
DOCKED: BRANCH  11  12
DOCKED: ATOM     12  N2  UNL     1      12.269  -9.069  -0.010 +0.00 -0.00    -0.270 N  
DOCKED: ATOM     13  C7  UNL     1      11.223  -9.621   0.667 +0.00 +0.00    +0.401 C  
DOCKED: ATOM     14  O2  UNL     1      10.072  -9.218   0.630 +0.00 -0.00    -0.226 OA 
DOCKED: ATOM     15  H11 UNL     1      13.048  -9.713  -0.086 +0.00 +0.00    +0.153 HD 
DOCKED: BRANCH  13  16
DOCKED: ATOM     16  O3  UNL     1      11.677 -10.690   1.358 +0.00 -0.00    -0.445 OA 
DOCKED: BRANCH  16  17
DOCKED: ATOM     17  C8  UNL     1      11.349 -12.038   0.933 +0.00 +0.00    +0.107 C  
DOCKED: ATOM     18  C9  UNL     1      12.529 -12.463   0.045 +0.00 +0.00    +0.055 C  
DOCKED: ATOM     19  C10 UNL     1      11.253 -12.997   2.124 +0.00 +0.00    +0.055 C  
DOCKED: ATOM     20  C11 UNL     1      10.071 -12.056   0.087 +0.00 +0.00    +0.055 C  
DOCKED: ENDBRANCH  16  17
DOCKED: ENDBRANCH  13  16
DOCKED: ENDBRANCH  11  12
DOCKED: BRANCH  11  21
DOCKED: ATOM     21  C12 UNL     1      10.845  -8.646  -2.012 +0.00 +0.00    +0.012 C  
DOCKED: ATOM     22  C13 UNL     1      11.086 -10.008  -2.673 +0.00 +0.00    +0.009 C  
DOCKED: ATOM     23  C14 UNL     1      10.503  -7.601  -3.079 +0.00 +0.00    +0.009 C  
DOCKED: ENDBRANCH  11  21
DOCKED: ENDBRANCH   8  11
DOCKED: ENDBRANCH   6   7
DOCKED: BRANCH   6  24
DOCKED: ATOM     24  C3  UNL     1       9.938  -4.256   0.080 +0.00 +0.00    +0.042 C  
DOCKED: BRANCH  24  25
DOCKED: ATOM     25  C2  UNL     1       8.537  -4.549  -0.449 +0.00 +0.00    +0.071 C  
DOCKED: BRANCH  25  27
DOCKED: ATOM     26  C1  UNL     1      10.253  -4.196  -2.573 +0.00 +0.00    +0.084 C  
DOCKED: ATOM     27  S1  UNL     1       8.607  -4.862  -2.243 +0.00 -0.00    -0.164 S  
DOCKED: ENDBRANCH  25  27
DOCKED: ENDBRANCH  24  25
DOCKED: ENDBRANCH   6  24
DOCKED: ENDBRANCH   2   6
DOCKED: ENDBRANCH   1   4
DOCKED: BRANCH   1  28
DOCKED: ATOM     28  C17 UNL     1       7.292  -7.631   2.768 +0.00 +0.00    +0.060 C  
DOCKED: BRANCH  28  29
DOCKED: ATOM     29  C18 UNL     1       7.311  -8.317   1.420 +0.00 -0.00    -0.046 A  
DOCKED: ATOM     30  C19 UNL     1       7.495  -7.589   0.235 +0.00 +0.00    +0.004 A  
DOCKED: ATOM     31  C20 UNL     1       7.503  -8.242  -1.000 +0.00 +0.00    +0.000 A  
DOCKED: ATOM     32  C21 UNL     1       7.347  -9.625  -1.062 +0.00 +0.00    +0.000 A  
DOCKED: ATOM     33  C22 UNL     1       7.183 -10.358   0.109 +0.00 +0.00    +0.000 A  
DOCKED: ATOM     34  C23 UNL     1       7.167  -9.709   1.345 +0.00 +0.00    +0.004 A  
DOCKED: ENDBRANCH  28  29
DOCKED: ENDBRANCH   1  28
DOCKED: BRANCH   1  35
DOCKED: ATOM     35  C24 UNL     1       9.143  -9.024   3.900 +0.00 +0.00    +0.136 C  
DOCKED: BRANCH  35  36
DOCKED: ATOM     36  O5  UNL     1      10.316  -9.304   3.108 +0.00 -0.00    -0.390 OA 
DOCKED: ATOM     37  H38 UNL     1      10.115 -10.097   2.579 +0.00 +0.00    +0.210 HD 
DOCKED: ENDBRANCH  35  36
DOCKED: BRANCH  35  38
DOCKED: ATOM     38  C25 UNL     1       9.548  -9.183   5.381 +0.00 +0.00    +0.045 C  
DOCKED: BRANCH  38  39
DOCKED: ATOM     39  C26 UNL     1      10.252 -10.511   5.711 +0.00 +0.00    +0.074 C  
DOCKED: ATOM     40  C27 UNL     1       9.724 -11.642   4.826 +0.00 +0.00    +0.017 C  
DOCKED: BRANCH  39  41
DOCKED: ATOM     41  C28 UNL     1      11.766 -10.420   5.604 +0.00 +0.00    +0.217 C  
DOCKED: ATOM     42  O6  UNL     1      12.458 -10.099   6.567 +0.00 -0.00    -0.276 OA 
DOCKED: ATOM     43  N4  UNL     1      12.291 -10.671   4.366 +0.00 -0.00    -0.304 N  
DOCKED: ATOM     44  H45 UNL     1      11.692 -10.855   3.567 +0.00 +0.00    +0.149 HD 
DOCKED: BRANCH  43  45
DOCKED: ATOM     45  C29 UNL     1      13.715 -10.507   4.062 +0.00 +0.00    +0.161 C  
DOCKED: BRANCH  45  46
DOCKED: ATOM     46  C30 UNL     1      13.936  -9.003   3.786 +0.00 +0.00    +0.234 C  
DOCKED: ATOM     47  O7  UNL     1      14.887  -8.391   4.278 +0.00 -0.00    -0.274 OA 
DOCKED: ATOM     48  N5  UNL     1      12.993  -8.413   2.981 +0.00 -0.00    -0.310 N  
DOCKED: ATOM     49  H47 UNL     1      12.288  -8.991   2.541 +0.00 +0.00    +0.149 HD 
DOCKED: BRANCH  48  50
DOCKED: ATOM     50  C31 UNL     1      13.003  -7.004   2.676 +0.00 +0.00    +0.139 C  
DOCKED: BRANCH  50  51
DOCKED: ATOM     51  C32 UNL     1      12.396  -6.208   3.800 +0.00 -0.00    -0.030 A  
DOCKED: ATOM     52  C33 UNL     1      12.351  -4.809   3.746 +0.00 +0.00    +0.005 A  
DOCKED: ATOM     53  C34 UNL     1      11.778  -4.079   4.790 +0.00 +0.00    +0.000 A  
DOCKED: ATOM     54  C35 UNL     1      11.238  -4.742   5.891 +0.00 +0.00    +0.000 A  
DOCKED: ATOM     55  C36 UNL     1      11.259  -6.135   5.944 +0.00 +0.00    +0.000 A  
DOCKED: ATOM     56  C37 UNL     1      11.835  -6.866   4.904 +0.00 +0.00    +0.005 A  
DOCKED: ENDBRANCH  50  51
DOCKED: ENDBRANCH  48  50
DOCKED: ENDBRANCH  45  46
DOCKED: BRANCH  45  57
DOCKED: ATOM     57  C38 UNL     1      14.149 -11.433   2.901 +0.00 +0.00    +0.012 C  
DOCKED: ATOM     58  C39 UNL     1      15.111 -10.755   1.921 +0.00 +0.00    +0.009 C  
DOCKED: ATOM     59  C40 UNL     1      14.742 -12.756   3.389 +0.00 +0.00    +0.009 C  
DOCKED: ENDBRANCH  45  57
DOCKED: ENDBRANCH  43  45
DOCKED: ENDBRANCH  39  41
DOCKED: ENDBRANCH  38  39
DOCKED: ENDBRANCH  35  38
DOCKED: ENDBRANCH   1  35
DOCKED: TORSDOF 23
DOCKED: TER
DOCKED: ENDMDL
________________________________________________________________________________


    FINAL DOCKED STATE:
    ________________________


Run:   17 / 20
Time taken for this run:   2.402s

DOCKED: MODEL        17
DOCKED: USER    Run = 17
DOCKED: USER
DOCKED: USER    Estimated Free Energy of Binding    =  +6.86 kcal/mol  [=(1)+(2)+(3)-(4)]
DOCKED: USER
DOCKED: USER    (1) Final Intermolecular Energy     =  +0.00 kcal/mol
DOCKED: USER        vdW + Hbond + desolv Energy     =  +0.00 kcal/mol
DOCKED: USER        Electrostatic Energy            =  +0.00 kcal/mol
DOCKED: USER        Moving Ligand-Fixed Receptor    =  +0.00 kcal/mol
DOCKED: USER        Moving Ligand-Moving Receptor   =  +0.00 kcal/mol
DOCKED: USER    (2) Final Total Internal Energy     = -15.93 kcal/mol
DOCKED: USER    (3) Torsional Free Energy           =  +6.86 kcal/mol
DOCKED: USER    (4) Unbound System's Energy         = -15.93 kcal/mol
DOCKED: USER
DOCKED: USER
DOCKED: REMARK  Name = ligands/ligand_5.pdb
DOCKED: REMARK  32 active torsions:
DOCKED: REMARK  status: ('A' for Active; 'I' for Inactive)
DOCKED: REMARK    1  A    between atoms: C1_1  and  S1_2
DOCKED: REMARK    2  A    between atoms: S1_2  and  C2_3
DOCKED: REMARK    3  A    between atoms: C2_3  and  C3_4
DOCKED: REMARK    4  A    between atoms: C3_4  and  C4_5
DOCKED: REMARK    5  A    between atoms: C4_5  and  N1_6
DOCKED: REMARK    6  A    between atoms: C4_5  and  C15_21
DOCKED: REMARK    7  A    between atoms: C5_7  and  C6_9
DOCKED: REMARK    8  A    between atoms: C6_9  and  N2_10
DOCKED: REMARK    9  A    between atoms: C6_9  and  C12_18
DOCKED: REMARK   10  A    between atoms: C7_11  and  O3_13
DOCKED: REMARK   11  A    between atoms: O3_13  and  C8_14
DOCKED: REMARK   12  A    between atoms: C8_14  and  C9_15
DOCKED: REMARK   13  A    between atoms: C8_14  and  C10_16
DOCKED: REMARK   14  A    between atoms: C8_14  and  C11_17
DOCKED: REMARK   15  A    between atoms: C12_18  and  C13_19
DOCKED: REMARK   16  A    between atoms: C12_18  and  C14_20
DOCKED: REMARK   17  A    between atoms: N3_23  and  C16_24
DOCKED: REMARK   18  A    between atoms: C16_24  and  C17_25
DOCKED: REMARK   19  A    between atoms: C16_24  and  C24_32
DOCKED: REMARK   20  A    between atoms: C17_25  and  C18_26
DOCKED: REMARK   21  A    between atoms: C24_32  and  O5_33
DOCKED: REMARK   22  A    between atoms: C24_32  and  C25_34
DOCKED: REMARK   23  A    between atoms: C25_34  and  C26_35
DOCKED: REMARK   24  A    between atoms: C26_35  and  C27_36
DOCKED: REMARK   25  A    between atoms: C26_35  and  C28_37
DOCKED: REMARK   26  A    between atoms: N4_39  and  C29_40
DOCKED: REMARK   27  A    between atoms: C29_40  and  C30_41
DOCKED: REMARK   28  A    between atoms: C29_40  and  C38_51
DOCKED: REMARK   29  A    between atoms: N5_43  and  C31_44
DOCKED: REMARK   30  A    between atoms: C31_44  and  C32_45
DOCKED: REMARK   31  A    between atoms: C38_51  and  C39_52
DOCKED: REMARK   32  A    between atoms: C38_51  and  C40_53
DOCKED: REMARK                            x       y       z     vdW  Elec       q    Type
DOCKED: REMARK                         _______ _______ _______ _____ _____    ______ ____
DOCKED: USER                              x       y       z     vdW  Elec       q    Type
DOCKED: USER                           _______ _______ _______ _____ _____    ______ ____
DOCKED: ROOT
DOCKED: ATOM      1  C16 UNL     1      11.545  -3.674  -1.683 +0.00 +0.00    +0.106 C  
DOCKED: ENDROOT
DOCKED: BRANCH   1   4
DOCKED: ATOM      2  C15 UNL     1      11.638  -1.485  -0.488 +0.00 +0.00    +0.234 C  
DOCKED: ATOM      3  O4  UNL     1      10.479  -1.179  -0.770 +0.00 -0.00    -0.274 OA 
DOCKED: ATOM      4  N3  UNL     1      12.183  -2.721  -0.762 +0.00 -0.00    -0.308 N  
DOCKED: ATOM      5  H28 UNL     1      13.196  -2.812  -0.735 +0.00 +0.00    +0.149 HD 
DOCKED: BRANCH   2   6
DOCKED: ATOM      6  C4  UNL     1      12.611  -0.516   0.220 +0.00 +0.00    +0.160 C  
DOCKED: BRANCH   6   7
DOCKED: ATOM      7  N1  UNL     1      13.821  -1.281   0.522 +0.00 -0.00    -0.302 N  
DOCKED: ATOM      8  C5  UNL     1      14.411  -1.147   1.767 +0.00 +0.00    +0.234 C  
DOCKED: ATOM      9  O1  UNL     1      14.058  -0.281   2.569 +0.00 -0.00    -0.274 OA 
DOCKED: ATOM     10  H9  UNL     1      13.898  -2.181   0.065 +0.00 +0.00    +0.150 HD 
DOCKED: BRANCH   8  11
DOCKED: ATOM     11  C6  UNL     1      15.517  -2.188   2.081 +0.00 +0.00    +0.165 C  
DOCKED: BRANCH  11  12
DOCKED: ATOM     12  N2  UNL     1      16.544  -2.081   1.054 +0.00 -0.00    -0.270 N  
DOCKED: ATOM     13  C7  UNL     1      16.276  -2.456  -0.229 +0.00 +0.00    +0.401 C  
DOCKED: ATOM     14  O2  UNL     1      15.345  -3.165  -0.572 +0.00 -0.00    -0.226 OA 
DOCKED: ATOM     15  H11 UNL     1      17.154  -1.273   1.088 +0.00 +0.00    +0.153 HD 
DOCKED: BRANCH  13  16
DOCKED: ATOM     16  O3  UNL     1      17.199  -1.893  -1.040 +0.00 -0.00    -0.445 OA 
DOCKED: BRANCH  16  17
DOCKED: ATOM     17  C8  UNL     1      18.449  -2.574  -1.323 +0.00 +0.00    +0.107 C  
DOCKED: ATOM     18  C9  UNL     1      19.504  -1.457  -1.335 +0.00 +0.00    +0.055 C  
DOCKED: ATOM     19  C10 UNL     1      18.804  -3.582  -0.226 +0.00 +0.00    +0.055 C  
DOCKED: ATOM     20  C11 UNL     1      18.419  -3.230  -2.708 +0.00 +0.00    +0.055 C  
DOCKED: ENDBRANCH  16  17
DOCKED: ENDBRANCH  13  16
DOCKED: ENDBRANCH  11  12
DOCKED: BRANCH  11  21
DOCKED: ATOM     21  C12 UNL     1      16.092  -2.001   3.504 +0.00 +0.00    +0.012 C  
DOCKED: ATOM     22  C13 UNL     1      17.405  -2.757   3.730 +0.00 +0.00    +0.009 C  
DOCKED: ATOM     23  C14 UNL     1      15.066  -2.406   4.568 +0.00 +0.00    +0.009 C  
DOCKED: ENDBRANCH  11  21
DOCKED: ENDBRANCH   8  11
DOCKED: ENDBRANCH   6   7
DOCKED: BRANCH   6  24
DOCKED: ATOM     24  C3  UNL     1      12.945   0.688  -0.663 +0.00 +0.00    +0.042 C  
DOCKED: BRANCH  24  25
DOCKED: ATOM     25  C2  UNL     1      14.164   1.461  -0.168 +0.00 +0.00    +0.071 C  
DOCKED: BRANCH  25  27
DOCKED: ATOM     26  C1  UNL     1      16.862   1.113   0.257 +0.00 +0.00    +0.084 C  
DOCKED: ATOM     27  S1  UNL     1      15.650   0.911  -1.067 +0.00 -0.00    -0.164 S  
DOCKED: ENDBRANCH  25  27
DOCKED: ENDBRANCH  24  25
DOCKED: ENDBRANCH   6  24
DOCKED: ENDBRANCH   2   6
DOCKED: ENDBRANCH   1   4
DOCKED: BRANCH   1  28
DOCKED: ATOM     28  C17 UNL     1      11.684  -3.140  -3.132 +0.00 +0.00    +0.060 C  
DOCKED: BRANCH  28  29
DOCKED: ATOM     29  C18 UNL     1      12.961  -2.381  -3.420 +0.00 -0.00    -0.046 A  
DOCKED: ATOM     30  C19 UNL     1      14.204  -3.029  -3.441 +0.00 +0.00    +0.004 A  
DOCKED: ATOM     31  C20 UNL     1      15.371  -2.308  -3.703 +0.00 +0.00    +0.000 A  
DOCKED: ATOM     32  C21 UNL     1      15.306  -0.941  -3.964 +0.00 +0.00    +0.000 A  
DOCKED: ATOM     33  C22 UNL     1      14.075  -0.293  -3.965 +0.00 +0.00    +0.000 A  
DOCKED: ATOM     34  C23 UNL     1      12.907  -1.008  -3.696 +0.00 +0.00    +0.004 A  
DOCKED: ENDBRANCH  28  29
DOCKED: ENDBRANCH   1  28
DOCKED: BRANCH   1  35
DOCKED: ATOM     35  C24 UNL     1      12.213  -5.066  -1.502 +0.00 +0.00    +0.136 C  
DOCKED: BRANCH  35  36
DOCKED: ATOM     36  O5  UNL     1      13.587  -4.839  -1.126 +0.00 -0.00    -0.390 OA 
DOCKED: ATOM     37  H38 UNL     1      13.576  -4.198  -0.393 +0.00 +0.00    +0.210 HD 
DOCKED: ENDBRANCH  35  36
DOCKED: BRANCH  35  38
DOCKED: ATOM     38  C25 UNL     1      11.581  -5.943  -0.400 +0.00 +0.00    +0.045 C  
DOCKED: BRANCH  38  39
DOCKED: ATOM     39  C26 UNL     1      11.437  -5.247   0.964 +0.00 +0.00    +0.074 C  
DOCKED: ATOM     40  C27 UNL     1      10.664  -6.129   1.947 +0.00 +0.00    +0.017 C  
DOCKED: BRANCH  39  41
DOCKED: ATOM     41  C28 UNL     1      12.773  -4.835   1.562 +0.00 +0.00    +0.217 C  
DOCKED: ATOM     42  O6  UNL     1      13.328  -3.790   1.232 +0.00 -0.00    -0.276 OA 
DOCKED: ATOM     43  N4  UNL     1      13.328  -5.720   2.445 +0.00 -0.00    -0.304 N  
DOCKED: ATOM     44  H45 UNL     1      12.889  -6.615   2.640 +0.00 +0.00    +0.149 HD 
DOCKED: BRANCH  43  45
DOCKED: ATOM     45  C29 UNL     1      14.664  -5.536   3.016 +0.00 +0.00    +0.161 C  
DOCKED: BRANCH  45  46
DOCKED: ATOM     46  C30 UNL     1      15.658  -6.201   2.038 +0.00 +0.00    +0.234 C  
DOCKED: ATOM     47  O7  UNL     1      16.387  -7.131   2.392 +0.00 -0.00    -0.274 OA 
DOCKED: ATOM     48  N5  UNL     1      15.676  -5.666   0.773 +0.00 -0.00    -0.310 N  
DOCKED: ATOM     49  H47 UNL     1      14.992  -4.963   0.524 +0.00 +0.00    +0.149 HD 
DOCKED: BRANCH  48  50
DOCKED: ATOM     50  C31 UNL     1      16.590  -6.115  -0.248 +0.00 +0.00    +0.139 C  
DOCKED: BRANCH  50  51
DOCKED: ATOM     51  C32 UNL     1      15.851  -6.476  -1.508 +0.00 -0.00    -0.030 A  
DOCKED: ATOM     52  C33 UNL     1      14.866  -7.472  -1.503 +0.00 +0.00    +0.005 A  
DOCKED: ATOM     53  C34 UNL     1      14.180  -7.793  -2.676 +0.00 +0.00    +0.000 A  
DOCKED: ATOM     54  C35 UNL     1      14.465  -7.116  -3.860 +0.00 +0.00    +0.000 A  
DOCKED: ATOM     55  C36 UNL     1      15.429  -6.109  -3.870 +0.00 +0.00    +0.000 A  
DOCKED: ATOM     56  C37 UNL     1      16.119  -5.789  -2.701 +0.00 +0.00    +0.005 A  
DOCKED: ENDBRANCH  50  51
DOCKED: ENDBRANCH  48  50
DOCKED: ENDBRANCH  45  46
DOCKED: BRANCH  45  57
DOCKED: ATOM     57  C38 UNL     1      14.735  -6.086   4.461 +0.00 +0.00    +0.012 C  
DOCKED: ATOM     58  C39 UNL     1      16.037  -5.719   5.178 +0.00 +0.00    +0.009 C  
DOCKED: ATOM     59  C40 UNL     1      13.532  -5.674   5.311 +0.00 +0.00    +0.009 C  
DOCKED: ENDBRANCH  45  57
DOCKED: ENDBRANCH  43  45
DOCKED: ENDBRANCH  39  41
DOCKED: ENDBRANCH  38  39
DOCKED: ENDBRANCH  35  38
DOCKED: ENDBRANCH   1  35
DOCKED: TORSDOF 23
DOCKED: TER
DOCKED: ENDMDL
________________________________________________________________________________


    FINAL DOCKED STATE:
    ________________________


Run:   18 / 20
Time taken for this run:   2.402s

DOCKED: MODEL        18
DOCKED: USER    Run = 18
DOCKED: USER
DOCKED: USER    Estimated Free Energy of Binding    =  +6.86 kcal/mol  [=(1)+(2)+(3)-(4)]
DOCKED: USER
DOCKED: USER    (1) Final Intermolecular Energy     =  +0.00 kcal/mol
DOCKED: USER        vdW + Hbond + desolv Energy     =  +0.00 kcal/mol
DOCKED: USER        Electrostatic Energy            =  +0.00 kcal/mol
DOCKED: USER        Moving Ligand-Fixed Receptor    =  +0.00 kcal/mol
DOCKED: USER        Moving Ligand-Moving Receptor   =  +0.00 kcal/mol
DOCKED: USER    (2) Final Total Internal Energy     = -15.99 kcal/mol
DOCKED: USER    (3) Torsional Free Energy           =  +6.86 kcal/mol
DOCKED: USER    (4) Unbound System's Energy         = -15.99 kcal/mol
DOCKED: USER
DOCKED: USER
DOCKED: REMARK  Name = ligands/ligand_5.pdb
DOCKED: REMARK  32 active torsions:
DOCKED: REMARK  status: ('A' for Active; 'I' for Inactive)
DOCKED: REMARK    1  A    between atoms: C1_1  and  S1_2
DOCKED: REMARK    2  A    between atoms: S1_2  and  C2_3
DOCKED: REMARK    3  A    between atoms: C2_3  and  C3_4
DOCKED: REMARK    4  A    between atoms: C3_4  and  C4_5
DOCKED: REMARK    5  A    between atoms: C4_5  and  N1_6
DOCKED: REMARK    6  A    between atoms: C4_5  and  C15_21
DOCKED: REMARK    7  A    between atoms: C5_7  and  C6_9
DOCKED: REMARK    8  A    between atoms: C6_9  and  N2_10
DOCKED: REMARK    9  A    between atoms: C6_9  and  C12_18
DOCKED: REMARK   10  A    between atoms: C7_11  and  O3_13
DOCKED: REMARK   11  A    between atoms: O3_13  and  C8_14
DOCKED: REMARK   12  A    between atoms: C8_14  and  C9_15
DOCKED: REMARK   13  A    between atoms: C8_14  and  C10_16
DOCKED: REMARK   14  A    between atoms: C8_14  and  C11_17
DOCKED: REMARK   15  A    between atoms: C12_18  and  C13_19
DOCKED: REMARK   16  A    between atoms: C12_18  and  C14_20
DOCKED: REMARK   17  A    between atoms: N3_23  and  C16_24
DOCKED: REMARK   18  A    between atoms: C16_24  and  C17_25
DOCKED: REMARK   19  A    between atoms: C16_24  and  C24_32
DOCKED: REMARK   20  A    between atoms: C17_25  and  C18_26
DOCKED: REMARK   21  A    between atoms: C24_32  and  O5_33
DOCKED: REMARK   22  A    between atoms: C24_32  and  C25_34
DOCKED: REMARK   23  A    between atoms: C25_34  and  C26_35
DOCKED: REMARK   24  A    between atoms: C26_35  and  C27_36
DOCKED: REMARK   25  A    between atoms: C26_35  and  C28_37
DOCKED: REMARK   26  A    between atoms: N4_39  and  C29_40
DOCKED: REMARK   27  A    between atoms: C29_40  and  C30_41
DOCKED: REMARK   28  A    between atoms: C29_40  and  C38_51
DOCKED: REMARK   29  A    between atoms: N5_43  and  C31_44
DOCKED: REMARK   30  A    between atoms: C31_44  and  C32_45
DOCKED: REMARK   31  A    between atoms: C38_51  and  C39_52
DOCKED: REMARK   32  A    between atoms: C38_51  and  C40_53
DOCKED: REMARK                            x       y       z     vdW  Elec       q    Type
DOCKED: REMARK                         _______ _______ _______ _____ _____    ______ ____
DOCKED: USER                              x       y       z     vdW  Elec       q    Type
DOCKED: USER                           _______ _______ _______ _____ _____    ______ ____
DOCKED: ROOT
DOCKED: ATOM      1  C16 UNL     1      11.127  -0.817   3.552 +0.00 +0.00    +0.106 C  
DOCKED: ENDROOT
DOCKED: BRANCH   1   4
DOCKED: ATOM      2  C15 UNL     1      12.662  -2.600   2.721 +0.00 +0.00    +0.234 C  
DOCKED: ATOM      3  O4  UNL     1      12.483  -3.335   3.693 +0.00 -0.00    -0.274 OA 
DOCKED: ATOM      4  N3  UNL     1      11.946  -1.443   2.502 +0.00 -0.00    -0.308 N  
DOCKED: ATOM      5  H28 UNL     1      12.317  -0.771   1.834 +0.00 +0.00    +0.149 HD 
DOCKED: BRANCH   2   6
DOCKED: ATOM      6  C4  UNL     1      13.709  -2.903   1.625 +0.00 +0.00    +0.160 C  
DOCKED: BRANCH   6   7
DOCKED: ATOM      7  N1  UNL     1      14.282  -1.618   1.224 +0.00 -0.00    -0.302 N  
DOCKED: ATOM      8  C5  UNL     1      14.892  -1.508  -0.013 +0.00 +0.00    +0.234 C  
DOCKED: ATOM      9  O1  UNL     1      15.123  -2.490  -0.719 +0.00 -0.00    -0.274 OA 
DOCKED: ATOM     10  H9  UNL     1      13.817  -0.796   1.589 +0.00 +0.00    +0.150 HD 
DOCKED: BRANCH   8  11
DOCKED: ATOM     11  C6  UNL     1      15.225  -0.057  -0.450 +0.00 +0.00    +0.165 C  
DOCKED: BRANCH  11  12
DOCKED: ATOM     12  N2  UNL     1      13.970   0.662  -0.624 +0.00 -0.00    -0.270 N  
DOCKED: ATOM     13  C7  UNL     1      13.351   1.236   0.446 +0.00 +0.00    +0.401 C  
DOCKED: ATOM     14  O2  UNL     1      13.575   0.965   1.614 +0.00 -0.00    -0.226 OA 
DOCKED: ATOM     15  H11 UNL     1      13.868   1.224  -1.461 +0.00 +0.00    +0.153 HD 
DOCKED: BRANCH  13  16
DOCKED: ATOM     16  O3  UNL     1      12.476   2.158  -0.011 +0.00 -0.00    -0.445 OA 
DOCKED: BRANCH  16  17
DOCKED: ATOM     17  C8  UNL     1      12.746   3.576   0.147 +0.00 +0.00    +0.107 C  
DOCKED: ATOM     18  C9  UNL     1      13.417   3.990  -1.172 +0.00 +0.00    +0.055 C  
DOCKED: ATOM     19  C10 UNL     1      11.455   4.380   0.321 +0.00 +0.00    +0.055 C  
DOCKED: ATOM     20  C11 UNL     1      13.730   3.827   1.294 +0.00 +0.00    +0.055 C  
DOCKED: ENDBRANCH  16  17
DOCKED: ENDBRANCH  13  16
DOCKED: ENDBRANCH  11  12
DOCKED: BRANCH  11  21
DOCKED: ATOM     21  C12 UNL     1      16.165   0.643   0.558 +0.00 +0.00    +0.012 C  
DOCKED: ATOM     22  C13 UNL     1      16.618   2.033   0.097 +0.00 +0.00    +0.009 C  
DOCKED: ATOM     23  C14 UNL     1      17.386  -0.230   0.867 +0.00 +0.00    +0.009 C  
DOCKED: ENDBRANCH  11  21
DOCKED: ENDBRANCH   8  11
DOCKED: ENDBRANCH   6   7
DOCKED: BRANCH   6  24
DOCKED: ATOM     24  C3  UNL     1      14.802  -3.842   2.138 +0.00 +0.00    +0.042 C  
DOCKED: BRANCH  24  25
DOCKED: ATOM     25  C2  UNL     1      15.452  -3.340   3.424 +0.00 +0.00    +0.071 C  
DOCKED: BRANCH  25  27
DOCKED: ATOM     26  C1  UNL     1      17.403  -3.624   1.501 +0.00 +0.00    +0.084 C  
DOCKED: ATOM     27  S1  UNL     1      17.152  -2.782   3.080 +0.00 -0.00    -0.164 S  
DOCKED: ENDBRANCH  25  27
DOCKED: ENDBRANCH  24  25
DOCKED: ENDBRANCH   6  24
DOCKED: ENDBRANCH   2   6
DOCKED: ENDBRANCH   1   4
DOCKED: BRANCH   1  28
DOCKED: ATOM     28  C17 UNL     1      12.017  -0.559   4.795 +0.00 +0.00    +0.060 C  
DOCKED: BRANCH  28  29
DOCKED: ATOM     29  C18 UNL     1      13.246   0.286   4.544 +0.00 -0.00    -0.046 A  
DOCKED: ATOM     30  C19 UNL     1      13.184   1.687   4.566 +0.00 +0.00    +0.004 A  
DOCKED: ATOM     31  C20 UNL     1      14.330   2.448   4.324 +0.00 +0.00    +0.000 A  
DOCKED: ATOM     32  C21 UNL     1      15.549   1.819   4.078 +0.00 +0.00    +0.000 A  
DOCKED: ATOM     33  C22 UNL     1      15.625   0.430   4.073 +0.00 +0.00    +0.000 A  
DOCKED: ATOM     34  C23 UNL     1      14.480  -0.334   4.306 +0.00 +0.00    +0.004 A  
DOCKED: ENDBRANCH  28  29
DOCKED: ENDBRANCH   1  28
DOCKED: BRANCH   1  35
DOCKED: ATOM     35  C24 UNL     1      10.509   0.493   2.988 +0.00 +0.00    +0.136 C  
DOCKED: BRANCH  35  36
DOCKED: ATOM     36  O5  UNL     1      11.081   0.712   1.682 +0.00 -0.00    -0.390 OA 
DOCKED: ATOM     37  H38 UNL     1      11.508   1.586   1.704 +0.00 +0.00    +0.210 HD 
DOCKED: ENDBRANCH  35  36
DOCKED: BRANCH  35  38
DOCKED: ATOM     38  C25 UNL     1       8.975   0.455   2.811 +0.00 +0.00    +0.045 C  
DOCKED: BRANCH  38  39
DOCKED: ATOM     39  C26 UNL     1       8.392   1.658   2.049 +0.00 +0.00    +0.074 C  
DOCKED: ATOM     40  C27 UNL     1       9.186   2.931   2.349 +0.00 +0.00    +0.017 C  
DOCKED: BRANCH  39  41
DOCKED: ATOM     41  C28 UNL     1       8.312   1.426   0.548 +0.00 +0.00    +0.217 C  
DOCKED: ATOM     42  O6  UNL     1       7.299   0.972   0.023 +0.00 -0.00    -0.276 OA 
DOCKED: ATOM     43  N4  UNL     1       9.448   1.709  -0.158 +0.00 -0.00    -0.304 N  
DOCKED: ATOM     44  H45 UNL     1      10.299   2.007   0.309 +0.00 +0.00    +0.149 HD 
DOCKED: BRANCH  43  45
DOCKED: ATOM     45  C29 UNL     1       9.581   1.428  -1.590 +0.00 +0.00    +0.161 C  
DOCKED: BRANCH  45  46
DOCKED: ATOM     46  C30 UNL     1      10.016  -0.050  -1.709 +0.00 +0.00    +0.234 C  
DOCKED: ATOM     47  O7  UNL     1       9.472  -0.819  -2.506 +0.00 -0.00    -0.274 OA 
DOCKED: ATOM     48  N5  UNL     1      11.023  -0.432  -0.858 +0.00 -0.00    -0.310 N  
DOCKED: ATOM     49  H47 UNL     1      11.484   0.269  -0.292 +0.00 +0.00    +0.149 HD 
DOCKED: BRANCH  48  50
DOCKED: ATOM     50  C31 UNL     1      11.506  -1.789  -0.783 +0.00 +0.00    +0.139 C  
DOCKED: BRANCH  50  51
DOCKED: ATOM     51  C32 UNL     1      10.586  -2.640   0.049 +0.00 -0.00    -0.030 A  
DOCKED: ATOM     52  C33 UNL     1      10.835  -4.007   0.224 +0.00 +0.00    +0.005 A  
DOCKED: ATOM     53  C34 UNL     1       9.980  -4.787   1.006 +0.00 +0.00    +0.000 A  
DOCKED: ATOM     54  C35 UNL     1       8.875  -4.206   1.626 +0.00 +0.00    +0.000 A  
DOCKED: ATOM     55  C36 UNL     1       8.631  -2.842   1.474 +0.00 +0.00    +0.000 A  
DOCKED: ATOM     56  C37 UNL     1       9.481  -2.062   0.690 +0.00 +0.00    +0.005 A  
DOCKED: ENDBRANCH  50  51
DOCKED: ENDBRANCH  48  50
DOCKED: ENDBRANCH  45  46
DOCKED: BRANCH  45  57
DOCKED: ATOM     57  C38 UNL     1      10.547   2.428  -2.269 +0.00 +0.00    +0.012 C  
DOCKED: ATOM     58  C39 UNL     1      11.556   1.748  -3.200 +0.00 +0.00    +0.009 C  
DOCKED: ATOM     59  C40 UNL     1       9.814   3.545  -3.014 +0.00 +0.00    +0.009 C  
DOCKED: ENDBRANCH  45  57
DOCKED: ENDBRANCH  43  45
DOCKED: ENDBRANCH  39  41
DOCKED: ENDBRANCH  38  39
DOCKED: ENDBRANCH  35  38
DOCKED: ENDBRANCH   1  35
DOCKED: TORSDOF 23
DOCKED: TER
DOCKED: ENDMDL
________________________________________________________________________________


    FINAL DOCKED STATE:
    ________________________


Run:   19 / 20
Time taken for this run:   2.402s

DOCKED: MODEL        19
DOCKED: USER    Run = 19
DOCKED: USER
DOCKED: USER    Estimated Free Energy of Binding    =  +6.86 kcal/mol  [=(1)+(2)+(3)-(4)]
DOCKED: USER
DOCKED: USER    (1) Final Intermolecular Energy     =  +0.00 kcal/mol
DOCKED: USER        vdW + Hbond + desolv Energy     =  +0.00 kcal/mol
DOCKED: USER        Electrostatic Energy            =  +0.00 kcal/mol
DOCKED: USER        Moving Ligand-Fixed Receptor    =  +0.00 kcal/mol
DOCKED: USER        Moving Ligand-Moving Receptor   =  +0.00 kcal/mol
DOCKED: USER    (2) Final Total Internal Energy     = -15.99 kcal/mol
DOCKED: USER    (3) Torsional Free Energy           =  +6.86 kcal/mol
DOCKED: USER    (4) Unbound System's Energy         = -15.99 kcal/mol
DOCKED: USER
DOCKED: USER
DOCKED: REMARK  Name = ligands/ligand_5.pdb
DOCKED: REMARK  32 active torsions:
DOCKED: REMARK  status: ('A' for Active; 'I' for Inactive)
DOCKED: REMARK    1  A    between atoms: C1_1  and  S1_2
DOCKED: REMARK    2  A    between atoms: S1_2  and  C2_3
DOCKED: REMARK    3  A    between atoms: C2_3  and  C3_4
DOCKED: REMARK    4  A    between atoms: C3_4  and  C4_5
DOCKED: REMARK    5  A    between atoms: C4_5  and  N1_6
DOCKED: REMARK    6  A    between atoms: C4_5  and  C15_21
DOCKED: REMARK    7  A    between atoms: C5_7  and  C6_9
DOCKED: REMARK    8  A    between atoms: C6_9  and  N2_10
DOCKED: REMARK    9  A    between atoms: C6_9  and  C12_18
DOCKED: REMARK   10  A    between atoms: C7_11  and  O3_13
DOCKED: REMARK   11  A    between atoms: O3_13  and  C8_14
DOCKED: REMARK   12  A    between atoms: C8_14  and  C9_15
DOCKED: REMARK   13  A    between atoms: C8_14  and  C10_16
DOCKED: REMARK   14  A    between atoms: C8_14  and  C11_17
DOCKED: REMARK   15  A    between atoms: C12_18  and  C13_19
DOCKED: REMARK   16  A    between atoms: C12_18  and  C14_20
DOCKED: REMARK   17  A    between atoms: N3_23  and  C16_24
DOCKED: REMARK   18  A    between atoms: C16_24  and  C17_25
DOCKED: REMARK   19  A    between atoms: C16_24  and  C24_32
DOCKED: REMARK   20  A    between atoms: C17_25  and  C18_26
DOCKED: REMARK   21  A    between atoms: C24_32  and  O5_33
DOCKED: REMARK   22  A    between atoms: C24_32  and  C25_34
DOCKED: REMARK   23  A    between atoms: C25_34  and  C26_35
DOCKED: REMARK   24  A    between atoms: C26_35  and  C27_36
DOCKED: REMARK   25  A    between atoms: C26_35  and  C28_37
DOCKED: REMARK   26  A    between atoms: N4_39  and  C29_40
DOCKED: REMARK   27  A    between atoms: C29_40  and  C30_41
DOCKED: REMARK   28  A    between atoms: C29_40  and  C38_51
DOCKED: REMARK   29  A    between atoms: N5_43  and  C31_44
DOCKED: REMARK   30  A    between atoms: C31_44  and  C32_45
DOCKED: REMARK   31  A    between atoms: C38_51  and  C39_52
DOCKED: REMARK   32  A    between atoms: C38_51  and  C40_53
DOCKED: REMARK                            x       y       z     vdW  Elec       q    Type
DOCKED: REMARK                         _______ _______ _______ _____ _____    ______ ____
DOCKED: USER                              x       y       z     vdW  Elec       q    Type
DOCKED: USER                           _______ _______ _______ _____ _____    ______ ____
DOCKED: ROOT
DOCKED: ATOM      1  C16 UNL     1      13.159  -1.848   1.482 +0.00 +0.00    +0.106 C  
DOCKED: ENDROOT
DOCKED: BRANCH   1   4
DOCKED: ATOM      2  C15 UNL     1      13.648  -4.013   0.342 +0.00 +0.00    +0.234 C  
DOCKED: ATOM      3  O4  UNL     1      12.592  -4.022  -0.292 +0.00 -0.00    -0.274 OA 
DOCKED: ATOM      4  N3  UNL     1      14.065  -2.944   1.104 +0.00 -0.00    -0.308 N  
DOCKED: ATOM      5  H28 UNL     1      14.802  -3.103   1.787 +0.00 +0.00    +0.149 HD 
DOCKED: BRANCH   2   6
DOCKED: ATOM      6  C4  UNL     1      14.634  -5.203   0.342 +0.00 +0.00    +0.160 C  
DOCKED: BRANCH   6   7
DOCKED: ATOM      7  N1  UNL     1      15.174  -5.301   1.698 +0.00 -0.00    -0.302 N  
DOCKED: ATOM      8  C5  UNL     1      16.396  -5.920   1.895 +0.00 +0.00    +0.234 C  
DOCKED: ATOM      9  O1  UNL     1      16.966  -6.542   0.998 +0.00 -0.00    -0.274 OA 
DOCKED: ATOM     10  H9  UNL     1      14.928  -4.545   2.325 +0.00 +0.00    +0.150 HD 
DOCKED: BRANCH   8  11
DOCKED: ATOM     11  C6  UNL     1      17.000  -5.737   3.312 +0.00 +0.00    +0.165 C  
DOCKED: BRANCH  11  12
DOCKED: ATOM     12  N2  UNL     1      17.344  -4.332   3.479 +0.00 -0.00    -0.270 N  
DOCKED: ATOM     13  C7  UNL     1      16.400  -3.436   3.884 +0.00 +0.00    +0.401 C  
DOCKED: ATOM     14  O2  UNL     1      15.195  -3.619   3.844 +0.00 -0.00    -0.226 OA 
DOCKED: ATOM     15  H11 UNL     1      18.255  -4.119   3.868 +0.00 +0.00    +0.153 HD 
DOCKED: BRANCH  13  16
DOCKED: ATOM     16  O3  UNL     1      17.030  -2.336   4.353 +0.00 -0.00    -0.445 OA 
DOCKED: BRANCH  16  17
DOCKED: ATOM     17  C8  UNL     1      17.057  -2.049   5.776 +0.00 +0.00    +0.107 C  
DOCKED: ATOM     18  C9  UNL     1      18.378  -2.661   6.268 +0.00 +0.00    +0.055 C  
DOCKED: ATOM     19  C10 UNL     1      17.076  -0.542   6.047 +0.00 +0.00    +0.055 C  
DOCKED: ATOM     20  C11 UNL     1      15.899  -2.742   6.502 +0.00 +0.00    +0.055 C  
DOCKED: ENDBRANCH  16  17
DOCKED: ENDBRANCH  13  16
DOCKED: ENDBRANCH  11  12
DOCKED: BRANCH  11  21
DOCKED: ATOM     21  C12 UNL     1      16.039  -6.239   4.413 +0.00 +0.00    +0.012 C  
DOCKED: ATOM     22  C13 UNL     1      16.640  -6.165   5.820 +0.00 +0.00    +0.009 C  
DOCKED: ATOM     23  C14 UNL     1      15.567  -7.667   4.120 +0.00 +0.00    +0.009 C  
DOCKED: ENDBRANCH  11  21
DOCKED: ENDBRANCH   8  11
DOCKED: ENDBRANCH   6   7
DOCKED: BRANCH   6  24
DOCKED: ATOM     24  C3  UNL     1      13.939  -6.507  -0.055 +0.00 +0.00    +0.042 C  
DOCKED: BRANCH  24  25
DOCKED: ATOM     25  C2  UNL     1      12.720  -6.811   0.812 +0.00 +0.00    +0.071 C  
DOCKED: BRANCH  25  27
DOCKED: ATOM     26  C1  UNL     1      14.527  -8.876   1.039 +0.00 +0.00    +0.084 C  
DOCKED: ATOM     27  S1  UNL     1      13.071  -8.234   1.894 +0.00 -0.00    -0.164 S  
DOCKED: ENDBRANCH  25  27
DOCKED: ENDBRANCH  24  25
DOCKED: ENDBRANCH   6  24
DOCKED: ENDBRANCH   2   6
DOCKED: ENDBRANCH   1   4
DOCKED: BRANCH   1  28
DOCKED: ATOM     28  C17 UNL     1      11.925  -2.444   2.208 +0.00 +0.00    +0.060 C  
DOCKED: BRANCH  28  29
DOCKED: ATOM     29  C18 UNL     1      12.239  -3.293   3.420 +0.00 -0.00    -0.046 A  
DOCKED: ATOM     30  C19 UNL     1      12.421  -2.717   4.685 +0.00 +0.00    +0.004 A  
DOCKED: ATOM     31  C20 UNL     1      12.716  -3.519   5.790 +0.00 +0.00    +0.000 A  
DOCKED: ATOM     32  C21 UNL     1      12.814  -4.901   5.646 +0.00 +0.00    +0.000 A  
DOCKED: ATOM     33  C22 UNL     1      12.616  -5.484   4.398 +0.00 +0.00    +0.000 A  
DOCKED: ATOM     34  C23 UNL     1      12.329  -4.686   3.290 +0.00 +0.00    +0.004 A  
DOCKED: ENDBRANCH  28  29
DOCKED: ENDBRANCH   1  28
DOCKED: BRANCH   1  35
DOCKED: ATOM     35  C24 UNL     1      13.938  -0.842   2.375 +0.00 +0.00    +0.136 C  
DOCKED: BRANCH  35  36
DOCKED: ATOM     36  O5  UNL     1      15.225  -1.427   2.662 +0.00 -0.00    -0.390 OA 
DOCKED: ATOM     37  H38 UNL     1      15.297  -1.487   3.631 +0.00 +0.00    +0.210 HD 
DOCKED: ENDBRANCH  35  36
DOCKED: BRANCH  35  38
DOCKED: ATOM     38  C25 UNL     1      14.200   0.531   1.718 +0.00 +0.00    +0.045 C  
DOCKED: BRANCH  38  39
DOCKED: ATOM     39  C26 UNL     1      15.148   1.447   2.512 +0.00 +0.00    +0.074 C  
DOCKED: ATOM     40  C27 UNL     1      14.975   1.236   4.017 +0.00 +0.00    +0.017 C  
DOCKED: BRANCH  39  41
DOCKED: ATOM     41  C28 UNL     1      16.606   1.274   2.118 +0.00 +0.00    +0.217 C  
DOCKED: ATOM     42  O6  UNL     1      17.125   1.979   1.255 +0.00 -0.00    -0.276 OA 
DOCKED: ATOM     43  N4  UNL     1      17.276   0.261   2.747 +0.00 -0.00    -0.304 N  
DOCKED: ATOM     44  H45 UNL     1      16.803  -0.360   3.397 +0.00 +0.00    +0.149 HD 
DOCKED: BRANCH  43  45
DOCKED: ATOM     45  C29 UNL     1      18.647  -0.119   2.397 +0.00 +0.00    +0.161 C  
DOCKED: BRANCH  45  46
DOCKED: ATOM     46  C30 UNL     1      18.541  -1.104   1.211 +0.00 +0.00    +0.234 C  
DOCKED: ATOM     47  O7  UNL     1      19.278  -1.009   0.226 +0.00 -0.00    -0.274 OA 
DOCKED: ATOM     48  N5  UNL     1      17.566  -2.062   1.335 +0.00 -0.00    -0.310 N  
DOCKED: ATOM     49  H47 UNL     1      17.054  -2.138   2.205 +0.00 +0.00    +0.149 HD 
DOCKED: BRANCH  48  50
DOCKED: ATOM     50  C31 UNL     1      17.279  -3.019   0.295 +0.00 +0.00    +0.139 C  
DOCKED: BRANCH  50  51
DOCKED: ATOM     51  C32 UNL     1      16.409  -2.409  -0.771 +0.00 -0.00    -0.030 A  
DOCKED: ATOM     52  C33 UNL     1      16.057  -3.138  -1.914 +0.00 +0.00    +0.005 A  
DOCKED: ATOM     53  C34 UNL     1      15.242  -2.566  -2.893 +0.00 +0.00    +0.000 A  
DOCKED: ATOM     54  C35 UNL     1      14.765  -1.267  -2.733 +0.00 +0.00    +0.000 A  
DOCKED: ATOM     55  C36 UNL     1      15.093  -0.541  -1.589 +0.00 +0.00    +0.000 A  
DOCKED: ATOM     56  C37 UNL     1      15.911  -1.109  -0.611 +0.00 +0.00    +0.005 A  
DOCKED: ENDBRANCH  50  51
DOCKED: ENDBRANCH  48  50
DOCKED: ENDBRANCH  45  46
DOCKED: BRANCH  45  57
DOCKED: ATOM     57  C38 UNL     1      19.401  -0.684   3.624 +0.00 +0.00    +0.012 C  
DOCKED: ATOM     58  C39 UNL     1      20.193  -1.956   3.306 +0.00 +0.00    +0.009 C  
DOCKED: ATOM     59  C40 UNL     1      20.313   0.350   4.286 +0.00 +0.00    +0.009 C  
DOCKED: ENDBRANCH  45  57
DOCKED: ENDBRANCH  43  45
DOCKED: ENDBRANCH  39  41
DOCKED: ENDBRANCH  38  39
DOCKED: ENDBRANCH  35  38
DOCKED: ENDBRANCH   1  35
DOCKED: TORSDOF 23
DOCKED: TER
DOCKED: ENDMDL
________________________________________________________________________________


    FINAL DOCKED STATE:
    ________________________


Run:   20 / 20
Time taken for this run:   2.402s

DOCKED: MODEL        20
DOCKED: USER    Run = 20
DOCKED: USER
DOCKED: USER    Estimated Free Energy of Binding    =  +6.86 kcal/mol  [=(1)+(2)+(3)-(4)]
DOCKED: USER
DOCKED: USER    (1) Final Intermolecular Energy     =  +0.00 kcal/mol
DOCKED: USER        vdW + Hbond + desolv Energy     =  +0.00 kcal/mol
DOCKED: USER        Electrostatic Energy            =  +0.00 kcal/mol
DOCKED: USER        Moving Ligand-Fixed Receptor    =  +0.00 kcal/mol
DOCKED: USER        Moving Ligand-Moving Receptor   =  +0.00 kcal/mol
DOCKED: USER    (2) Final Total Internal Energy     = -15.98 kcal/mol
DOCKED: USER    (3) Torsional Free Energy           =  +6.86 kcal/mol
DOCKED: USER    (4) Unbound System's Energy         = -15.98 kcal/mol
DOCKED: USER
DOCKED: USER
DOCKED: REMARK  Name = ligands/ligand_5.pdb
DOCKED: REMARK  32 active torsions:
DOCKED: REMARK  status: ('A' for Active; 'I' for Inactive)
DOCKED: REMARK    1  A    between atoms: C1_1  and  S1_2
DOCKED: REMARK    2  A    between atoms: S1_2  and  C2_3
DOCKED: REMARK    3  A    between atoms: C2_3  and  C3_4
DOCKED: REMARK    4  A    between atoms: C3_4  and  C4_5
DOCKED: REMARK    5  A    between atoms: C4_5  and  N1_6
DOCKED: REMARK    6  A    between atoms: C4_5  and  C15_21
DOCKED: REMARK    7  A    between atoms: C5_7  and  C6_9
DOCKED: REMARK    8  A    between atoms: C6_9  and  N2_10
DOCKED: REMARK    9  A    between atoms: C6_9  and  C12_18
DOCKED: REMARK   10  A    between atoms: C7_11  and  O3_13
DOCKED: REMARK   11  A    between atoms: O3_13  and  C8_14
DOCKED: REMARK   12  A    between atoms: C8_14  and  C9_15
DOCKED: REMARK   13  A    between atoms: C8_14  and  C10_16
DOCKED: REMARK   14  A    between atoms: C8_14  and  C11_17
DOCKED: REMARK   15  A    between atoms: C12_18  and  C13_19
DOCKED: REMARK   16  A    between atoms: C12_18  and  C14_20
DOCKED: REMARK   17  A    between atoms: N3_23  and  C16_24
DOCKED: REMARK   18  A    between atoms: C16_24  and  C17_25
DOCKED: REMARK   19  A    between atoms: C16_24  and  C24_32
DOCKED: REMARK   20  A    between atoms: C17_25  and  C18_26
DOCKED: REMARK   21  A    between atoms: C24_32  and  O5_33
DOCKED: REMARK   22  A    between atoms: C24_32  and  C25_34
DOCKED: REMARK   23  A    between atoms: C25_34  and  C26_35
DOCKED: REMARK   24  A    between atoms: C26_35  and  C27_36
DOCKED: REMARK   25  A    between atoms: C26_35  and  C28_37
DOCKED: REMARK   26  A    between atoms: N4_39  and  C29_40
DOCKED: REMARK   27  A    between atoms: C29_40  and  C30_41
DOCKED: REMARK   28  A    between atoms: C29_40  and  C38_51
DOCKED: REMARK   29  A    between atoms: N5_43  and  C31_44
DOCKED: REMARK   30  A    between atoms: C31_44  and  C32_45
DOCKED: REMARK   31  A    between atoms: C38_51  and  C39_52
DOCKED: REMARK   32  A    between atoms: C38_51  and  C40_53
DOCKED: REMARK                            x       y       z     vdW  Elec       q    Type
DOCKED: REMARK                         _______ _______ _______ _____ _____    ______ ____
DOCKED: USER                              x       y       z     vdW  Elec       q    Type
DOCKED: USER                           _______ _______ _______ _____ _____    ______ ____
DOCKED: ROOT
DOCKED: ATOM      1  C16 UNL     1       7.072  -5.988  -5.332 +0.00 +0.00    +0.106 C  
DOCKED: ENDROOT
DOCKED: BRANCH   1   4
DOCKED: ATOM      2  C15 UNL     1       5.366  -7.390  -4.170 +0.00 +0.00    +0.234 C  
DOCKED: ATOM      3  O4  UNL     1       5.320  -8.237  -5.063 +0.00 -0.00    -0.274 OA 
DOCKED: ATOM      4  N3  UNL     1       6.278  -6.358  -4.150 +0.00 -0.00    -0.308 N  
DOCKED: ATOM      5  H28 UNL     1       6.094  -5.570  -3.533 +0.00 +0.00    +0.149 HD 
DOCKED: BRANCH   2   6
DOCKED: ATOM      6  C4  UNL     1       4.406  -7.400  -2.958 +0.00 +0.00    +0.160 C  
DOCKED: BRANCH   6   7
DOCKED: ATOM      7  N1  UNL     1       4.090  -6.002  -2.662 +0.00 -0.00    -0.302 N  
DOCKED: ATOM      8  C5  UNL     1       3.677  -5.660  -1.386 +0.00 +0.00    +0.234 C  
DOCKED: ATOM      9  O1  UNL     1       3.400  -6.508  -0.538 +0.00 -0.00    -0.274 OA 
DOCKED: ATOM     10  H9  UNL     1       4.618  -5.312  -3.182 +0.00 +0.00    +0.150 HD 
DOCKED: BRANCH   8  11
DOCKED: ATOM     11  C6  UNL     1       3.626  -4.135  -1.104 +0.00 +0.00    +0.165 C  
DOCKED: BRANCH  11  12
DOCKED: ATOM     12  N2  UNL     1       4.990  -3.625  -1.123 +0.00 -0.00    -0.270 N  
DOCKED: ATOM     13  C7  UNL     1       5.577  -3.274  -2.302 +0.00 +0.00    +0.401 C  
DOCKED: ATOM     14  O2  UNL     1       5.192  -3.617  -3.407 +0.00 -0.00    -0.226 OA 
DOCKED: ATOM     15  H11 UNL     1       5.267  -3.009  -0.368 +0.00 +0.00    +0.153 HD 
DOCKED: BRANCH  13  16
DOCKED: ATOM     16  O3  UNL     1       6.631  -2.472  -2.032 +0.00 -0.00    -0.445 OA 
DOCKED: BRANCH  16  17
DOCKED: ATOM     17  C8  UNL     1       6.564  -1.048  -2.302 +0.00 +0.00    +0.107 C  
DOCKED: ATOM     18  C9  UNL     1       6.108  -0.424  -0.973 +0.00 +0.00    +0.055 C  
DOCKED: ATOM     19  C10 UNL     1       7.938  -0.479  -2.671 +0.00 +0.00    +0.055 C  
DOCKED: ATOM     20  C11 UNL     1       5.514  -0.736  -3.373 +0.00 +0.00    +0.055 C  
DOCKED: ENDBRANCH  16  17
DOCKED: ENDBRANCH  13  16
DOCKED: ENDBRANCH  11  12
DOCKED: BRANCH  11  21
DOCKED: ATOM     21  C12 UNL     1       2.712  -3.397  -2.108 +0.00 +0.00    +0.012 C  
DOCKED: ATOM     22  C13 UNL     1       2.559  -1.903  -1.803 +0.00 +0.00    +0.009 C  
DOCKED: ATOM     23  C14 UNL     1       1.332  -4.059  -2.183 +0.00 +0.00    +0.009 C  
DOCKED: ENDBRANCH  11  21
DOCKED: ENDBRANCH   8  11
DOCKED: ENDBRANCH   6   7
DOCKED: BRANCH   6  24
DOCKED: ATOM     24  C3  UNL     1       3.130  -8.186  -3.261 +0.00 +0.00    +0.042 C  
DOCKED: BRANCH  24  25
DOCKED: ATOM     25  C2  UNL     1       2.456  -7.741  -4.556 +0.00 +0.00    +0.071 C  
DOCKED: BRANCH  25  27
DOCKED: ATOM     26  C1  UNL     1       0.625  -7.416  -2.525 +0.00 +0.00    +0.084 C  
DOCKED: ATOM     27  S1  UNL     1       0.969  -6.761  -4.173 +0.00 -0.00    -0.164 S  
DOCKED: ENDBRANCH  25  27
DOCKED: ENDBRANCH  24  25
DOCKED: ENDBRANCH   6  24
DOCKED: ENDBRANCH   2   6
DOCKED: ENDBRANCH   1   4
DOCKED: BRANCH   1  28
DOCKED: ATOM     28  C17 UNL     1       6.108  -5.686  -6.509 +0.00 +0.00    +0.060 C  
DOCKED: BRANCH  28  29
DOCKED: ATOM     29  C18 UNL     1       5.084  -4.605  -6.241 +0.00 -0.00    -0.046 A  
DOCKED: ATOM     30  C19 UNL     1       5.393  -3.249  -6.419 +0.00 +0.00    +0.004 A  
DOCKED: ATOM     31  C20 UNL     1       4.434  -2.267  -6.160 +0.00 +0.00    +0.000 A  
DOCKED: ATOM     32  C21 UNL     1       3.157  -2.630  -5.739 +0.00 +0.00    +0.000 A  
DOCKED: ATOM     33  C22 UNL     1       2.834  -3.973  -5.578 +0.00 +0.00    +0.000 A  
DOCKED: ATOM     34  C23 UNL     1       3.792  -4.957  -5.828 +0.00 +0.00    +0.004 A  
DOCKED: ENDBRANCH  28  29
DOCKED: ENDBRANCH   1  28
DOCKED: BRANCH   1  35
DOCKED: ATOM     35  C24 UNL     1       7.964  -4.767  -4.973 +0.00 +0.00    +0.136 C  
DOCKED: BRANCH  35  36
DOCKED: ATOM     36  O5  UNL     1       7.586  -4.331  -3.651 +0.00 -0.00    -0.390 OA 
DOCKED: ATOM     37  H38 UNL     1       7.294  -3.406  -3.732 +0.00 +0.00    +0.210 HD 
DOCKED: ENDBRANCH  35  36
DOCKED: BRANCH  35  38
DOCKED: ATOM     38  C25 UNL     1       9.478  -5.067  -4.935 +0.00 +0.00    +0.045 C  
DOCKED: BRANCH  38  39
DOCKED: ATOM     39  C26 UNL     1      10.341  -3.924  -4.373 +0.00 +0.00    +0.074 C  
DOCKED: ATOM     40  C27 UNL     1       9.753  -2.562  -4.748 +0.00 +0.00    +0.017 C  
DOCKED: BRANCH  39  41
DOCKED: ATOM     41  C28 UNL     1      10.539  -4.017  -2.868 +0.00 +0.00    +0.217 C  
DOCKED: ATOM     42  O6  UNL     1      11.512  -4.590  -2.384 +0.00 -0.00    -0.276 OA 
DOCKED: ATOM     43  N4  UNL     1       9.547  -3.468  -2.103 +0.00 -0.00    -0.304 N  
DOCKED: ATOM     44  H45 UNL     1       8.713  -3.071  -2.526 +0.00 +0.00    +0.149 HD 
DOCKED: BRANCH  43  45
DOCKED: ATOM     45  C29 UNL     1       9.521  -3.579  -0.642 +0.00 +0.00    +0.161 C  
DOCKED: BRANCH  45  46
DOCKED: ATOM     46  C30 UNL     1       8.839  -4.926  -0.315 +0.00 +0.00    +0.234 C  
DOCKED: ATOM     47  O7  UNL     1       9.312  -5.701   0.521 +0.00 -0.00    -0.274 OA 
DOCKED: ATOM     48  N5  UNL     1       7.700  -5.192  -1.032 +0.00 -0.00    -0.310 N  
DOCKED: ATOM     49  H47 UNL     1       7.319  -4.476  -1.639 +0.00 +0.00    +0.149 HD 
DOCKED: BRANCH  48  50
DOCKED: ATOM     50  C31 UNL     1       6.974  -6.431  -0.908 +0.00 +0.00    +0.139 C  
DOCKED: BRANCH  50  51
DOCKED: ATOM     51  C32 UNL     1       7.650  -7.529  -1.683 +0.00 -0.00    -0.030 A  
DOCKED: ATOM     52  C33 UNL     1       8.751  -7.255  -2.504 +0.00 +0.00    +0.005 A  
DOCKED: ATOM     53  C34 UNL     1       9.378  -8.282  -3.213 +0.00 +0.00    +0.000 A  
DOCKED: ATOM     54  C35 UNL     1       8.916  -9.592  -3.099 +0.00 +0.00    +0.000 A  
DOCKED: ATOM     55  C36 UNL     1       7.834  -9.878  -2.268 +0.00 +0.00    +0.000 A  
DOCKED: ATOM     56  C37 UNL     1       7.203  -8.853  -1.562 +0.00 +0.00    +0.005 A  
DOCKED: ENDBRANCH  50  51
DOCKED: ENDBRANCH  48  50
DOCKED: ENDBRANCH  45  46
DOCKED: BRANCH  45  57
DOCKED: ATOM     57  C38 UNL     1       8.834  -2.350   0.000 +0.00 +0.00    +0.012 C  
DOCKED: ATOM     58  C39 UNL     1       7.889  -2.723   1.146 +0.00 +0.00    +0.009 C  
DOCKED: ATOM     59  C40 UNL     1       9.833  -1.290   0.467 +0.00 +0.00    +0.009 C  
DOCKED: ENDBRANCH  45  57
DOCKED: ENDBRANCH  43  45
DOCKED: ENDBRANCH  39  41
DOCKED: ENDBRANCH  38  39
DOCKED: ENDBRANCH  35  38
DOCKED: ENDBRANCH   1  35
DOCKED: TORSDOF 23
DOCKED: TER
DOCKED: ENDMDL
________________________________________________________________________________


    CLUSTERING HISTOGRAM
    ____________________


________________________________________________________________________________
     |           |     |           |     |
Clus | Lowest    | Run | Mean      | Num | Histogram
-ter | Binding   |     | Binding   | in  |
Rank | Energy    |     | Energy    | Clus|    5    10   15   20   25   30   35
_____|___________|_____|___________|_____|____:____|____:____|____:____|____:___
   1 |     +6.86 |   1 |     +6.86 |   1 |#
   2 |     +6.86 |   2 |     +6.86 |   1 |#
   3 |     +6.86 |   3 |     +6.86 |   1 |#
   4 |     +6.86 |   4 |     +6.86 |   1 |#
   5 |     +6.86 |   5 |     +6.86 |   1 |#
   6 |     +6.86 |   6 |     +6.86 |   1 |#
   7 |     +6.86 |   7 |     +6.86 |   1 |#
   8 |     +6.86 |   8 |     +6.86 |   1 |#
   9 |     +6.86 |   9 |     +6.86 |   1 |#
  10 |     +6.86 |  10 |     +6.86 |   1 |#
  11 |     +6.86 |  11 |     +6.86 |   1 |#
  12 |     +6.86 |  12 |     +6.86 |   1 |#
  13 |     +6.86 |  13 |     +6.86 |   1 |#
  14 |     +6.86 |  14 |     +6.86 |   1 |#
  15 |     +6.86 |  15 |     +6.86 |   1 |#
  16 |     +6.86 |  16 |     +6.86 |   1 |#
  17 |     +6.86 |  17 |     +6.86 |   1 |#
  18 |     +6.86 |  18 |     +6.86 |   1 |#
  19 |     +6.86 |  19 |     +6.86 |   1 |#
  20 |     +6.86 |  20 |     +6.86 |   1 |#
_____|___________|_____|___________|_____|______________________________________


    RMSD TABLE
    __________


_______________________________________________________________________
     |      |      |           |         |                 |
Rank | Sub- | Run  | Binding   | Cluster | Reference       | Grep
     | Rank |      | Energy    | RMSD    | RMSD            | Pattern
_____|______|______|___________|_________|_________________|___________
   1      1      1       +6.86      0.00     14.27           RANKING
   2      1      2       +6.86      0.00     14.92           RANKING
   3      1      3       +6.86      0.00      7.93           RANKING
   4      1      4       +6.86      0.00      8.14           RANKING
   5      1      5       +6.86      0.00      9.02           RANKING
   6      1      6       +6.86      0.00     11.22           RANKING
   7      1      7       +6.86      0.00     10.69           RANKING
   8      1      8       +6.86      0.00      7.99           RANKING
   9      1      9       +6.86      0.00     11.75           RANKING
  10      1     10       +6.86      0.00     12.86           RANKING
  11      1     11       +6.86      0.00      6.27           RANKING
  12      1     12       +6.86      0.00      8.99           RANKING
  13      1     13       +6.86      0.00     12.86           RANKING
  14      1     14       +6.86      0.00     13.19           RANKING
  15      1     15       +6.86      0.00     11.91           RANKING
  16      1     16       +6.86      0.00     11.44           RANKING
  17      1     17       +6.86      0.00     12.79           RANKING
  18      1     18       +6.86      0.00     11.02           RANKING
  19      1     19       +6.86      0.00     14.23           RANKING
  20      1     20       +6.86      0.00      6.24           RANKING

Run time 48.548 sec
Idle time 0.294 sec
