REMARK  Name = ligands/ligand_4.pdb
REMARK  33 active torsions:
REMARK  status: ('A' for Active; 'I' for Inactive)
REMARK    1  A    between atoms: C1_1  and  C2_2
REMARK    2  A    between atoms: C2_2  and  C3_3
REMARK    3  A    between atoms: C3_3  and  C4_4
REMARK    4  A    between atoms: C3_3  and  C5_5
REMARK    5  A    between atoms: C5_5  and  C6_6
REMARK    6  A    between atoms: C6_6  and  N1_7
REMARK    7  A    between atoms: C6_6  and  C15_19
REMARK    8  A    between atoms: C7_8  and  C8_10
REMARK    9  A    between atoms: C8_10  and  C9_11
REMARK   10  A    between atoms: C8_10  and  N2_15
REMARK   11  A    between atoms: C9_11  and  C10_12
REMARK   12  A    between atoms: C10_12  and  C11_13
REMARK   13  A    between atoms: C10_12  and  C12_14
REMARK   14  A    between atoms: C13_16  and  C14_17
REMARK   15  A    between atoms: C15_19  and  O3_20
REMARK   16  A    between atoms: C15_19  and  C16_21
REMARK   17  A    between atoms: C16_21  and  C17_22
REMARK   18  A    between atoms: N3_24  and  C18_25
REMARK   19  A    between atoms: C18_25  and  C19_26
REMARK   20  A    between atoms: C18_25  and  C26_33
REMARK   21  A    between atoms: C19_26  and  C20_27
REMARK   22  A    between atoms: C26_33  and  O5_34
REMARK   23  A    between atoms: C26_33  and  C27_35
REMARK   24  A    between atoms: C27_35  and  C28_36
REMARK   25  A    between atoms: N4_38  and  C29_39
REMARK   26  A    between atoms: C29_39  and  C30_40
REMARK   27  A    between atoms: C29_39  and  C39_53
REMARK   28  A    between atoms: N5_42  and  C31_43
REMARK   29  A    between atoms: C31_43  and  C32_44
REMARK   30  A    between atoms: C35_47  and  C36_48
REMARK   31  A    between atoms: C36_48  and  O9_50
REMARK   32  A    between atoms: C39_53  and  C40_54
REMARK   33  A    between atoms: C39_53  and  C41_55
REMARK                            x       y       z     vdW  Elec       q    Type
REMARK                         _______ _______ _______ _____ _____    ______ ____
ROOT
ATOM      1  C18 UNL     1       2.014  -1.669  -0.977  0.00  0.00    +0.106 C 
ENDROOT
BRANCH   1   4
ATOM      2  C17 UNL     1      -0.203  -2.766  -1.348  0.00  0.00    +0.216 C 
ATOM      3  O4  UNL     1       0.289  -3.846  -1.665  0.00  0.00    -0.276 OA
ATOM      4  N3  UNL     1       0.546  -1.668  -1.012  0.00  0.00    -0.310 N 
ATOM      5  H32 UNL     1       0.114  -0.779  -0.795  0.00  0.00    +0.149 HD
BRANCH   2   6
ATOM      6  C16 UNL     1      -1.701  -2.570  -1.285  0.00  0.00    +0.129 C 
BRANCH   6   7
ATOM      7  C15 UNL     1      -2.325  -2.002  -2.561  0.00  0.00    +0.143 C 
BRANCH   7   8
ATOM      8  O3  UNL     1      -2.050  -2.901  -3.653  0.00  0.00    -0.389 OA
ATOM      9  H29 UNL     1      -1.080  -2.921  -3.790  0.00  0.00    +0.210 HD
ENDBRANCH   7   8
BRANCH   7  10
ATOM     10  C6  UNL     1      -1.945  -0.547  -2.962  0.00  0.00    +0.102 C 
BRANCH  10  11
ATOM     11  N1  UNL     1      -2.106  -0.404  -4.416  0.00  0.00    -0.308 N 
ATOM     12  C7  UNL     1      -1.460   0.552  -5.164  0.00  0.00    +0.234 C 
ATOM     13  O1  UNL     1      -0.614   1.317  -4.697  0.00  0.00    -0.274 OA
ATOM     14  H13 UNL     1      -2.770  -1.028  -4.863  0.00  0.00    +0.149 HD
BRANCH  12  15
ATOM     15  C8  UNL     1      -1.870   0.574  -6.658  0.00  0.00    +0.159 C 
BRANCH  15  16
ATOM     16  N2  UNL     1      -1.338   1.811  -7.216  0.00  0.00    -0.304 N 
ATOM     17  C13 UNL     1      -2.138   2.931  -7.286  0.00  0.00    +0.211 C 
ATOM     18  C14 UNL     1      -1.385   4.191  -7.614  0.00  0.00    +0.109 C 
ATOM     19  O2  UNL     1      -3.352   2.917  -7.094  0.00  0.00    -0.276 OA
ATOM     20  H24 UNL     1      -0.362   1.988  -6.999  0.00  0.00    +0.149 HD
ENDBRANCH  15  16
BRANCH  15  21
ATOM     21  C9  UNL     1      -1.321  -0.664  -7.383  0.00  0.00    +0.034 C 
BRANCH  21  22
ATOM     22  C10 UNL     1      -1.849  -0.931  -8.808  0.00  0.00    -0.015 C 
ATOM     23  C11 UNL     1      -1.344   0.078  -9.842  0.00  0.00    +0.007 C 
ATOM     24  C12 UNL     1      -3.373  -1.034  -8.866  0.00  0.00    +0.007 C 
ENDBRANCH  21  22
ENDBRANCH  15  21
ENDBRANCH  12  15
ENDBRANCH  10  11
BRANCH  10  25
ATOM     25  C5  UNL     1      -2.816   0.543  -2.290  0.00  0.00    +0.028 C 
BRANCH  25  26
ATOM     26  C3  UNL     1      -2.651   0.718  -0.770  0.00  0.00    -0.013 C 
ATOM     27  C4  UNL     1      -2.472   2.198  -0.419  0.00  0.00    +0.007 C 
BRANCH  26  29
ATOM     28  C1  UNL     1      -5.140   0.824  -0.011  0.00  0.00    +0.004 C 
ATOM     29  C2  UNL     1      -3.808   0.082   0.033  0.00  0.00    -0.000 C 
ENDBRANCH  26  29
ENDBRANCH  25  26
ENDBRANCH  10  25
ENDBRANCH   7  10
ENDBRANCH   6   7
ENDBRANCH   2   6
ENDBRANCH   1   4
BRANCH   1  30
ATOM     30  C19 UNL     1       2.598  -0.945  -2.217  0.00  0.00    +0.060 C 
BRANCH  30  31
ATOM     31  C20 UNL     1       2.418  -1.599  -3.572  0.00  0.00    -0.046 A 
ATOM     32  C21 UNL     1       2.243  -0.787  -4.705  0.00  0.00    +0.004 A 
ATOM     33  C22 UNL     1       2.164  -1.344  -5.983  0.00  0.00    +0.000 A 
ATOM     34  C23 UNL     1       2.227  -2.725  -6.149  0.00  0.00    +0.000 A 
ATOM     35  C24 UNL     1       2.404  -3.541  -5.037  0.00  0.00    +0.000 A 
ATOM     36  C25 UNL     1       2.526  -2.981  -3.762  0.00  0.00    +0.004 A 
ENDBRANCH  30  31
ENDBRANCH   1  30
BRANCH   1  37
ATOM     37  C26 UNL     1       2.491  -0.967   0.323  0.00  0.00    +0.144 C 
BRANCH  37  38
ATOM     38  O5  UNL     1       1.986   0.380   0.326  0.00  0.00    -0.389 OA
ATOM     39  H42 UNL     1       2.535   0.868   0.974  0.00  0.00    +0.210 HD
ENDBRANCH  37  38
BRANCH  37  40
ATOM     40  C27 UNL     1       1.986  -1.684   1.579  0.00  0.00    +0.129 C 
BRANCH  40  41
ATOM     41  C28 UNL     1       2.608  -1.085   2.822  0.00  0.00    +0.216 C 
ATOM     42  O6  UNL     1       3.697  -0.518   2.822  0.00  0.00    -0.276 OA
ATOM     43  N4  UNL     1       1.827  -1.235   3.941  0.00  0.00    -0.304 N 
ATOM     44  H45 UNL     1       0.970  -1.780   3.898  0.00  0.00    +0.149 HD
BRANCH  43  45
ATOM     45  C29 UNL     1       2.188  -0.713   5.260  0.00  0.00    +0.161 C 
BRANCH  45  46
ATOM     46  C30 UNL     1       1.608  -1.742   6.253  0.00  0.00    +0.234 C 
ATOM     47  O7  UNL     1       0.603  -2.399   5.985  0.00  0.00    -0.274 OA
ATOM     48  N5  UNL     1       2.276  -1.849   7.451  0.00  0.00    -0.310 N 
ATOM     49  H47 UNL     1       3.015  -1.193   7.659  0.00  0.00    +0.149 HD
BRANCH  48  50
ATOM     50  C31 UNL     1       1.727  -2.606   8.552  0.00  0.00    +0.139 C 
BRANCH  50  51
ATOM     51  C32 UNL     1       0.880  -1.719   9.432  0.00  0.00    -0.030 A 
ATOM     52  C33 UNL     1      -0.468  -1.492   9.114  0.00  0.00    +0.006 A 
ATOM     53  C34 UNL     1      -1.248  -0.625   9.883  0.00  0.00    +0.015 A 
ATOM     54  C35 UNL     1      -0.690   0.026  10.989  0.00  0.00    +0.059 A 
ATOM     55  C37 UNL     1       0.653  -0.194  11.316  0.00  0.00    +0.015 A 
ATOM     56  C38 UNL     1       1.434  -1.058  10.539  0.00  0.00    +0.006 A 
BRANCH  54  57
ATOM     57  C36 UNL     1      -1.552   0.941  11.780  0.00  0.00    +0.337 C 
ATOM     58  O8  UNL     1      -2.735   1.156  11.583  0.00  0.00    -0.245 OA
BRANCH  57  59
ATOM     59  O9  UNL     1      -0.889   1.556  12.773  0.00  0.00    -0.477 OA
ATOM     60  H52 UNL     1      -1.571   2.135  13.179  0.00  0.00    +0.295 HD
ENDBRANCH  57  59
ENDBRANCH  54  57
ENDBRANCH  50  51
ENDBRANCH  48  50
ENDBRANCH  45  46
BRANCH  45  61
ATOM     61  C39 UNL     1       1.591   0.696   5.492  0.00  0.00    +0.012 C 
ATOM     62  C40 UNL     1       1.996   1.686   4.396  0.00  0.00    +0.009 C 
ATOM     63  C41 UNL     1       2.008   1.279   6.847  0.00  0.00    +0.009 C 
ENDBRANCH  45  61
ENDBRANCH  43  45
ENDBRANCH  40  41
ENDBRANCH  37  40
ENDBRANCH   1  37
TORSDOF 26
