AutoDock-GPU version: v1.6

**********************************************************
**    AutoDock-GPU AUTODOCKTOOLS-COMPATIBLE DLG FILE    **
**********************************************************


    DOCKING PARAMETERS
    ________________________


Ligand file:                               ligands/ligand_18.pdbqt
Grid fld file:                             protein.maps.fld

Random seed:                               1770972614, 27709
Number of runs:                            20
Number of energy evaluations:              8735288
Number of generations:                     42000
Size of population:                        150
Rate of crossover:                         80.000000%
Tournament selection probability limit:    60.000000%
Rate of mutation:                          2.000000%
Maximal allowed delta movement:            +/- 6.000000A
Maximal allowed delta angle:               +/- 90.000000

Rate of local search:                      100.000000%
Maximal number of local search iterations: 300
Rho lower bound:                           0.010000
Spread of local search delta movement:     2.000000A
Spread of local search delta angle:        74.999999
Limit of consecutive successes/failures:   4

Handle symmetry during clustering:         YES
RMSD tolerance:                            2.000000A

Program call in command line was:          ./autodock-gpu --ffile protein.maps.fld --lfile ligands/ligand_18.pdbqt --nrun 20 


    GRID PARAMETERS
    ________________________


Receptor name:                             #MACROMOLECULE
Number of grid points (x, y, z):           61, 61, 61
Grid center (x, y, z):                     10.261000, -3.492000, -0.127000A
Grid size (x, y, z):                       22.500000, 22.500000, 22.500000A
Grid spacing:                              0.375000A


    LIGAND PARAMETERS
    ________________________


Ligand name:                               ligands/ligand_18
Number of atoms:                           51
Number of rotatable bonds:                 19
Number of atom types:                      5


    DUMMY DATA (only for ADT-compatibility)
    ________________________


DPF> outlev 1
DPF> ga_run 20
DPF> fld protein.maps.fld
DPF> move ligands/ligand_18.pdbqt


    COUNTER STATES
    ________________________


Number of energy evaluations performed:    2863957
Number of generations used:                110


    INPUT LIGAND PDBQT FILE:
    ________________________


INPUT-LIGAND-PDBQT: REMARK  Name = ligands/ligand_18.pdb
INPUT-LIGAND-PDBQT: REMARK  26 active torsions:
INPUT-LIGAND-PDBQT: REMARK  status: ('A' for Active; 'I' for Inactive)
INPUT-LIGAND-PDBQT: REMARK    1  A    between atoms: C1_1  and  C2_2
INPUT-LIGAND-PDBQT: REMARK    2  A    between atoms: C2_2  and  C3_3
INPUT-LIGAND-PDBQT: REMARK    3  A    between atoms: C3_3  and  C4_4
INPUT-LIGAND-PDBQT: REMARK    4  A    between atoms: C3_3  and  C22_28
INPUT-LIGAND-PDBQT: REMARK    5  A    between atoms: C4_4  and  C5_5
INPUT-LIGAND-PDBQT: REMARK    6  A    between atoms: C5_5  and  O1_6
INPUT-LIGAND-PDBQT: REMARK    7  A    between atoms: C5_5  and  C6_7
INPUT-LIGAND-PDBQT: REMARK    8  A    between atoms: C6_7  and  C7_8
INPUT-LIGAND-PDBQT: REMARK    9  A    between atoms: C6_7  and  N1_15
INPUT-LIGAND-PDBQT: REMARK   10  A    between atoms: C7_8  and  C8_9
INPUT-LIGAND-PDBQT: REMARK   11  A    between atoms: C14_16  and  C15_18
INPUT-LIGAND-PDBQT: REMARK   12  A    between atoms: C15_18  and  C16_19
INPUT-LIGAND-PDBQT: REMARK   13  A    between atoms: C15_18  and  N2_20
INPUT-LIGAND-PDBQT: REMARK   14  A    between atoms: C17_21  and  C18_23
INPUT-LIGAND-PDBQT: REMARK   15  A    between atoms: C18_23  and  O4_24
INPUT-LIGAND-PDBQT: REMARK   16  A    between atoms: C18_23  and  C19_25
INPUT-LIGAND-PDBQT: REMARK   17  A    between atoms: C19_25  and  C20_26
INPUT-LIGAND-PDBQT: REMARK   18  A    between atoms: C19_25  and  C21_27
INPUT-LIGAND-PDBQT: REMARK   19  A    between atoms: N3_30  and  C23_31
INPUT-LIGAND-PDBQT: REMARK   20  A    between atoms: C23_31  and  C24_32
INPUT-LIGAND-PDBQT: REMARK   21  A    between atoms: C23_31  and  C33_43
INPUT-LIGAND-PDBQT: REMARK   22  A    between atoms: N4_34  and  C25_35
INPUT-LIGAND-PDBQT: REMARK   23  A    between atoms: C25_35  and  C26_36
INPUT-LIGAND-PDBQT: REMARK   24  A    between atoms: C25_35  and  C27_37
INPUT-LIGAND-PDBQT: REMARK   25  A    between atoms: C33_43  and  C34_44
INPUT-LIGAND-PDBQT: REMARK   26  A    between atoms: C33_43  and  C35_45
INPUT-LIGAND-PDBQT: REMARK                            x       y       z     vdW  Elec       q    Type
INPUT-LIGAND-PDBQT: REMARK                         _______ _______ _______ _____ _____    ______ ____
INPUT-LIGAND-PDBQT: ROOT
INPUT-LIGAND-PDBQT: ATOM      1  C5  UNL     1       1.651  -2.407   3.070  0.00  0.00    +0.136 C 
INPUT-LIGAND-PDBQT: ENDROOT
INPUT-LIGAND-PDBQT: BRANCH   1   2
INPUT-LIGAND-PDBQT: ATOM      2  O1  UNL     1       2.416  -2.128   4.238  0.00  0.00    -0.390 OA
INPUT-LIGAND-PDBQT: ATOM      3  H10 UNL     1       2.545  -2.972   4.706  0.00  0.00    +0.210 HD
INPUT-LIGAND-PDBQT: ENDBRANCH   1   2
INPUT-LIGAND-PDBQT: BRANCH   1   4
INPUT-LIGAND-PDBQT: ATOM      4  C6  UNL     1       1.873  -1.304   1.998  0.00  0.00    +0.106 C 
INPUT-LIGAND-PDBQT: BRANCH   4   5
INPUT-LIGAND-PDBQT: ATOM      5  N1  UNL     1       1.196  -1.644   0.743  0.00  0.00    -0.308 N 
INPUT-LIGAND-PDBQT: ATOM      6  C14 UNL     1       1.892  -2.194  -0.311  0.00  0.00    +0.233 C 
INPUT-LIGAND-PDBQT: ATOM      7  O2  UNL     1       3.056  -2.587  -0.225  0.00  0.00    -0.274 OA
INPUT-LIGAND-PDBQT: ATOM      8  H19 UNL     1       0.309  -1.193   0.509  0.00  0.00    +0.149 HD
INPUT-LIGAND-PDBQT: BRANCH   6   9
INPUT-LIGAND-PDBQT: ATOM      9  C15 UNL     1       1.087  -2.306  -1.614  0.00  0.00    +0.156 C 
INPUT-LIGAND-PDBQT: ATOM     10  C16 UNL     1       0.269  -3.592  -1.603  0.00  0.00    +0.038 C 
INPUT-LIGAND-PDBQT: BRANCH   9  11
INPUT-LIGAND-PDBQT: ATOM     11  N2  UNL     1       2.037  -2.295  -2.715  0.00  0.00    -0.302 N 
INPUT-LIGAND-PDBQT: ATOM     12  C17 UNL     1       1.787  -1.668  -3.904  0.00  0.00    +0.242 C 
INPUT-LIGAND-PDBQT: ATOM     13  O3  UNL     1       0.700  -1.177  -4.189  0.00  0.00    -0.273 OA
INPUT-LIGAND-PDBQT: ATOM     14  H24 UNL     1       3.001  -2.561  -2.505  0.00  0.00    +0.150 HD
INPUT-LIGAND-PDBQT: BRANCH  12  15
INPUT-LIGAND-PDBQT: ATOM     15  C18 UNL     1       2.997  -1.633  -4.862  0.00  0.00    +0.202 C 
INPUT-LIGAND-PDBQT: BRANCH  15  16
INPUT-LIGAND-PDBQT: ATOM     16  C19 UNL     1       3.116  -2.872  -5.769  0.00  0.00    +0.020 C 
INPUT-LIGAND-PDBQT: ATOM     17  C20 UNL     1       1.905  -3.032  -6.684  0.00  0.00    +0.010 C 
INPUT-LIGAND-PDBQT: ATOM     18  C21 UNL     1       3.383  -4.174  -5.008  0.00  0.00    +0.010 C 
INPUT-LIGAND-PDBQT: ENDBRANCH  15  16
INPUT-LIGAND-PDBQT: BRANCH  15  19
INPUT-LIGAND-PDBQT: ATOM     19  O4  UNL     1       4.214  -1.499  -4.119  0.00  0.00    -0.382 OA
INPUT-LIGAND-PDBQT: ATOM     20  H26 UNL     1       4.158  -0.662  -3.620  0.00  0.00    +0.210 HD
INPUT-LIGAND-PDBQT: ENDBRANCH  15  19
INPUT-LIGAND-PDBQT: ENDBRANCH  12  15
INPUT-LIGAND-PDBQT: ENDBRANCH   9  11
INPUT-LIGAND-PDBQT: ENDBRANCH   6   9
INPUT-LIGAND-PDBQT: ENDBRANCH   4   5
INPUT-LIGAND-PDBQT: BRANCH   4  21
INPUT-LIGAND-PDBQT: ATOM     21  C7  UNL     1       1.602   0.141   2.458  0.00  0.00    +0.060 C 
INPUT-LIGAND-PDBQT: BRANCH  21  22
INPUT-LIGAND-PDBQT: ATOM     22  C8  UNL     1       1.942   1.174   1.404  0.00  0.00    -0.046 A 
INPUT-LIGAND-PDBQT: ATOM     23  C9  UNL     1       3.274   1.531   1.161  0.00  0.00    +0.004 A 
INPUT-LIGAND-PDBQT: ATOM     24  C10 UNL     1       3.589   2.443   0.150  0.00  0.00    +0.000 A 
INPUT-LIGAND-PDBQT: ATOM     25  C11 UNL     1       2.577   3.006  -0.628  0.00  0.00    +0.000 A 
INPUT-LIGAND-PDBQT: ATOM     26  C12 UNL     1       1.248   2.660  -0.391  0.00  0.00    +0.000 A 
INPUT-LIGAND-PDBQT: ATOM     27  C13 UNL     1       0.932   1.752   0.619  0.00  0.00    +0.004 A 
INPUT-LIGAND-PDBQT: ENDBRANCH  21  22
INPUT-LIGAND-PDBQT: ENDBRANCH   4  21
INPUT-LIGAND-PDBQT: ENDBRANCH   1   4
INPUT-LIGAND-PDBQT: BRANCH   1  28
INPUT-LIGAND-PDBQT: ATOM     28  C4  UNL     1       0.209  -2.845   3.430  0.00  0.00    +0.046 C 
INPUT-LIGAND-PDBQT: BRANCH  28  29
INPUT-LIGAND-PDBQT: ATOM     29  C3  UNL     1      -0.685  -2.103   4.470  0.00  0.00    +0.077 C 
INPUT-LIGAND-PDBQT: BRANCH  29  30
INPUT-LIGAND-PDBQT: ATOM     30  C22 UNL     1      -1.954  -1.483   3.858  0.00  0.00    +0.217 C 
INPUT-LIGAND-PDBQT: ATOM     31  O5  UNL     1      -3.045  -1.567   4.420  0.00  0.00    -0.275 OA
INPUT-LIGAND-PDBQT: ATOM     32  N3  UNL     1      -1.784  -0.760   2.713  0.00  0.00    -0.304 N 
INPUT-LIGAND-PDBQT: ATOM     33  H34 UNL     1      -0.973  -0.977   2.146  0.00  0.00    +0.149 HD
INPUT-LIGAND-PDBQT: BRANCH  32  34
INPUT-LIGAND-PDBQT: ATOM     34  C23 UNL     1      -2.907  -0.176   1.970  0.00  0.00    +0.161 C 
INPUT-LIGAND-PDBQT: BRANCH  34  35
INPUT-LIGAND-PDBQT: ATOM     35  C24 UNL     1      -2.564  -0.472   0.484  0.00  0.00    +0.234 C 
INPUT-LIGAND-PDBQT: ATOM     36  O6  UNL     1      -1.457  -0.911   0.159  0.00  0.00    -0.274 OA
INPUT-LIGAND-PDBQT: ATOM     37  N4  UNL     1      -3.570  -0.222  -0.416  0.00  0.00    -0.307 N 
INPUT-LIGAND-PDBQT: ATOM     38  H36 UNL     1      -4.380   0.302  -0.102  0.00  0.00    +0.149 HD
INPUT-LIGAND-PDBQT: BRANCH  37  39
INPUT-LIGAND-PDBQT: ATOM     39  C25 UNL     1      -3.365  -0.306  -1.856  0.00  0.00    +0.100 C 
INPUT-LIGAND-PDBQT: ATOM     40  C26 UNL     1      -4.601  -0.893  -2.534  0.00  0.00    +0.033 C 
INPUT-LIGAND-PDBQT: BRANCH  39  41
INPUT-LIGAND-PDBQT: ATOM     41  C27 UNL     1      -2.997   1.062  -2.406  0.00  0.00    -0.027 A 
INPUT-LIGAND-PDBQT: ATOM     42  C28 UNL     1      -1.709   1.280  -2.919  0.00  0.00    +0.005 A 
INPUT-LIGAND-PDBQT: ATOM     43  C29 UNL     1      -1.349   2.524  -3.442  0.00  0.00    +0.000 A 
INPUT-LIGAND-PDBQT: ATOM     44  C30 UNL     1      -2.260   3.577  -3.433  0.00  0.00    +0.000 A 
INPUT-LIGAND-PDBQT: ATOM     45  C31 UNL     1      -3.539   3.386  -2.912  0.00  0.00    +0.000 A 
INPUT-LIGAND-PDBQT: ATOM     46  C32 UNL     1      -3.906   2.137  -2.401  0.00  0.00    +0.005 A 
INPUT-LIGAND-PDBQT: ENDBRANCH  39  41
INPUT-LIGAND-PDBQT: ENDBRANCH  37  39
INPUT-LIGAND-PDBQT: ENDBRANCH  34  35
INPUT-LIGAND-PDBQT: BRANCH  34  47
INPUT-LIGAND-PDBQT: ATOM     47  C33 UNL     1      -3.090   1.348   2.226  0.00  0.00    +0.012 C 
INPUT-LIGAND-PDBQT: ATOM     48  C34 UNL     1      -4.577   1.714   2.336  0.00  0.00    +0.009 C 
INPUT-LIGAND-PDBQT: ATOM     49  C35 UNL     1      -2.377   1.872   3.481  0.00  0.00    +0.009 C 
INPUT-LIGAND-PDBQT: ENDBRANCH  34  47
INPUT-LIGAND-PDBQT: ENDBRANCH  32  34
INPUT-LIGAND-PDBQT: ENDBRANCH  29  30
INPUT-LIGAND-PDBQT: BRANCH  29  51
INPUT-LIGAND-PDBQT: ATOM     50  C1  UNL     1      -0.910  -0.581   6.515  0.00  0.00    +0.004 C 
INPUT-LIGAND-PDBQT: ATOM     51  C2  UNL     1       0.012  -1.123   5.423  0.00  0.00    +0.009 C 
INPUT-LIGAND-PDBQT: ENDBRANCH  29  51
INPUT-LIGAND-PDBQT: ENDBRANCH  28  29
INPUT-LIGAND-PDBQT: ENDBRANCH   1  28
INPUT-LIGAND-PDBQT: TORSDOF 19


    FINAL DOCKED STATE:
    ________________________


Run:   1 / 20
Time taken for this run:   0.685s

DOCKED: MODEL        1
DOCKED: USER    Run = 1
DOCKED: USER
DOCKED: USER    Estimated Free Energy of Binding    =  +5.67 kcal/mol  [=(1)+(2)+(3)-(4)]
DOCKED: USER
DOCKED: USER    (1) Final Intermolecular Energy     =  +0.00 kcal/mol
DOCKED: USER        vdW + Hbond + desolv Energy     =  +0.00 kcal/mol
DOCKED: USER        Electrostatic Energy            =  +0.00 kcal/mol
DOCKED: USER        Moving Ligand-Fixed Receptor    =  +0.00 kcal/mol
DOCKED: USER        Moving Ligand-Moving Receptor   =  +0.00 kcal/mol
DOCKED: USER    (2) Final Total Internal Energy     = -12.95 kcal/mol
DOCKED: USER    (3) Torsional Free Energy           =  +5.67 kcal/mol
DOCKED: USER    (4) Unbound System's Energy         = -12.95 kcal/mol
DOCKED: USER
DOCKED: USER
DOCKED: REMARK  Name = ligands/ligand_18.pdb
DOCKED: REMARK  26 active torsions:
DOCKED: REMARK  status: ('A' for Active; 'I' for Inactive)
DOCKED: REMARK    1  A    between atoms: C1_1  and  C2_2
DOCKED: REMARK    2  A    between atoms: C2_2  and  C3_3
DOCKED: REMARK    3  A    between atoms: C3_3  and  C4_4
DOCKED: REMARK    4  A    between atoms: C3_3  and  C22_28
DOCKED: REMARK    5  A    between atoms: C4_4  and  C5_5
DOCKED: REMARK    6  A    between atoms: C5_5  and  O1_6
DOCKED: REMARK    7  A    between atoms: C5_5  and  C6_7
DOCKED: REMARK    8  A    between atoms: C6_7  and  C7_8
DOCKED: REMARK    9  A    between atoms: C6_7  and  N1_15
DOCKED: REMARK   10  A    between atoms: C7_8  and  C8_9
DOCKED: REMARK   11  A    between atoms: C14_16  and  C15_18
DOCKED: REMARK   12  A    between atoms: C15_18  and  C16_19
DOCKED: REMARK   13  A    between atoms: C15_18  and  N2_20
DOCKED: REMARK   14  A    between atoms: C17_21  and  C18_23
DOCKED: REMARK   15  A    between atoms: C18_23  and  O4_24
DOCKED: REMARK   16  A    between atoms: C18_23  and  C19_25
DOCKED: REMARK   17  A    between atoms: C19_25  and  C20_26
DOCKED: REMARK   18  A    between atoms: C19_25  and  C21_27
DOCKED: REMARK   19  A    between atoms: N3_30  and  C23_31
DOCKED: REMARK   20  A    between atoms: C23_31  and  C24_32
DOCKED: REMARK   21  A    between atoms: C23_31  and  C33_43
DOCKED: REMARK   22  A    between atoms: N4_34  and  C25_35
DOCKED: REMARK   23  A    between atoms: C25_35  and  C26_36
DOCKED: REMARK   24  A    between atoms: C25_35  and  C27_37
DOCKED: REMARK   25  A    between atoms: C33_43  and  C34_44
DOCKED: REMARK   26  A    between atoms: C33_43  and  C35_45
DOCKED: REMARK                            x       y       z     vdW  Elec       q    Type
DOCKED: REMARK                         _______ _______ _______ _____ _____    ______ ____
DOCKED: USER                              x       y       z     vdW  Elec       q    Type
DOCKED: USER                           _______ _______ _______ _____ _____    ______ ____
DOCKED: ROOT
DOCKED: ATOM      1  C5  UNL     1      10.443  -6.302  -0.728 +0.00 +0.00    +0.136 C  
DOCKED: ENDROOT
DOCKED: BRANCH   1   2
DOCKED: ATOM      2  O1  UNL     1      10.739  -7.482   0.012 +0.00 -0.00    -0.390 OA 
DOCKED: ATOM      3  H10 UNL     1       9.923  -7.746   0.471 +0.00 +0.00    +0.210 HD 
DOCKED: ENDBRANCH   1   2
DOCKED: BRANCH   1   4
DOCKED: ATOM      4  C6  UNL     1       9.200  -5.584  -0.132 +0.00 +0.00    +0.106 C  
DOCKED: BRANCH   4   5
DOCKED: ATOM      5  N1  UNL     1       8.217  -6.553   0.362 +0.00 -0.00    -0.308 N  
DOCKED: ATOM      6  C14 UNL     1       7.161  -6.151   1.151 +0.00 +0.00    +0.233 C  
DOCKED: ATOM      7  O2  UNL     1       6.875  -4.971   1.353 +0.00 -0.00    -0.274 OA 
DOCKED: ATOM      8  H19 UNL     1       8.465  -7.543   0.413 +0.00 +0.00    +0.149 HD 
DOCKED: BRANCH   6   9
DOCKED: ATOM      9  C15 UNL     1       6.340  -7.304   1.747 +0.00 +0.00    +0.156 C  
DOCKED: ATOM     10  C16 UNL     1       6.211  -7.116   3.254 +0.00 +0.00    +0.038 C  
DOCKED: BRANCH   9  11
DOCKED: ATOM     11  N2  UNL     1       7.033  -8.542   1.428 +0.00 -0.00    -0.302 N  
DOCKED: ATOM     12  C17 UNL     1       8.288  -8.829   1.885 +0.00 +0.00    +0.242 C  
DOCKED: ATOM     13  O3  UNL     1       8.984  -8.021   2.491 +0.00 -0.00    -0.273 OA 
DOCKED: ATOM     14  H24 UNL     1       6.472  -9.308   1.049 +0.00 +0.00    +0.150 HD 
DOCKED: BRANCH  12  15
DOCKED: ATOM     15  C18 UNL     1       8.758 -10.266   1.571 +0.00 +0.00    +0.202 C  
DOCKED: BRANCH  15  16
DOCKED: ATOM     16  C19 UNL     1       8.893 -11.168   2.812 +0.00 +0.00    +0.020 C  
DOCKED: ATOM     17  C20 UNL     1       9.012 -12.644   2.438 +0.00 +0.00    +0.010 C  
DOCKED: ATOM     18  C21 UNL     1       7.781 -10.970   3.846 +0.00 +0.00    +0.010 C  
DOCKED: ENDBRANCH  15  16
DOCKED: BRANCH  15  19
DOCKED: ATOM     19  O4  UNL     1      10.020 -10.238   0.894 +0.00 -0.00    -0.382 OA 
DOCKED: ATOM     20  H26 UNL     1      10.242  -9.301   0.734 +0.00 +0.00    +0.210 HD 
DOCKED: ENDBRANCH  15  19
DOCKED: ENDBRANCH  12  15
DOCKED: ENDBRANCH   9  11
DOCKED: ENDBRANCH   6   9
DOCKED: ENDBRANCH   4   5
DOCKED: BRANCH   4  21
DOCKED: ATOM     21  C7  UNL     1       9.497  -4.458   0.877 +0.00 +0.00    +0.060 C  
DOCKED: BRANCH  21  22
DOCKED: ATOM     22  C8  UNL     1      10.226  -4.944   2.112 +0.00 -0.00    -0.046 A  
DOCKED: ATOM     23  C9  UNL     1       9.525  -5.203   3.296 +0.00 +0.00    +0.004 A  
DOCKED: ATOM     24  C10 UNL     1      10.192  -5.704   4.418 +0.00 +0.00    +0.000 A  
DOCKED: ATOM     25  C11 UNL     1      11.564  -5.952   4.367 +0.00 +0.00    +0.000 A  
DOCKED: ATOM     26  C12 UNL     1      12.271  -5.693   3.194 +0.00 +0.00    +0.000 A  
DOCKED: ATOM     27  C13 UNL     1      11.608  -5.191   2.075 +0.00 +0.00    +0.004 A  
DOCKED: ENDBRANCH  21  22
DOCKED: ENDBRANCH   4  21
DOCKED: ENDBRANCH   1   4
DOCKED: BRANCH   1  28
DOCKED: ATOM     28  C4  UNL     1      10.520  -6.558  -2.254 +0.00 +0.00    +0.046 C  
DOCKED: BRANCH  28  29
DOCKED: ATOM     29  C3  UNL     1       9.765  -7.717  -2.975 +0.00 +0.00    +0.077 C  
DOCKED: BRANCH  29  30
DOCKED: ATOM     30  C22 UNL     1       9.683  -9.008  -2.141 +0.00 +0.00    +0.217 C  
DOCKED: ATOM     31  O5  UNL     1       9.095  -9.039  -1.061 +0.00 -0.00    -0.275 OA 
DOCKED: ATOM     32  N3  UNL     1      10.213 -10.131  -2.708 +0.00 -0.00    -0.304 N  
DOCKED: ATOM     33  H34 UNL     1      10.931  -9.998  -3.411 +0.00 +0.00    +0.149 HD 
DOCKED: BRANCH  32  34
DOCKED: ATOM     34  C23 UNL     1      10.281 -11.417  -2.005 +0.00 +0.00    +0.161 C  
DOCKED: BRANCH  34  35
DOCKED: ATOM     35  C24 UNL     1      11.645 -11.364  -1.263 +0.00 +0.00    +0.234 C  
DOCKED: ATOM     36  O6  UNL     1      12.371 -12.360  -1.187 +0.00 -0.00    -0.274 OA 
DOCKED: ATOM     37  N4  UNL     1      11.976 -10.148  -0.720 +0.00 -0.00    -0.307 N  
DOCKED: ATOM     38  H36 UNL     1      11.259  -9.432  -0.665 +0.00 +0.00    +0.149 HD 
DOCKED: BRANCH  37  39
DOCKED: ATOM     39  C25 UNL     1      13.145  -9.967   0.130 +0.00 +0.00    +0.100 C  
DOCKED: ATOM     40  C26 UNL     1      13.821  -8.632  -0.175 +0.00 +0.00    +0.033 C  
DOCKED: BRANCH  39  41
DOCKED: ATOM     41  C27 UNL     1      12.746 -10.093   1.591 +0.00 -0.00    -0.027 A  
DOCKED: ATOM     42  C28 UNL     1      12.775 -11.351   2.212 +0.00 +0.00    +0.005 A  
DOCKED: ATOM     43  C29 UNL     1      12.425 -11.493   3.557 +0.00 +0.00    +0.000 A  
DOCKED: ATOM     44  C30 UNL     1      12.012 -10.386   4.293 +0.00 +0.00    +0.000 A  
DOCKED: ATOM     45  C31 UNL     1      11.959  -9.130   3.690 +0.00 +0.00    +0.000 A  
DOCKED: ATOM     46  C32 UNL     1      12.323  -8.983   2.348 +0.00 +0.00    +0.005 A  
DOCKED: ENDBRANCH  39  41
DOCKED: ENDBRANCH  37  39
DOCKED: ENDBRANCH  34  35
DOCKED: BRANCH  34  47
DOCKED: ATOM     47  C33 UNL     1      10.191 -12.645  -2.957 +0.00 +0.00    +0.012 C  
DOCKED: ATOM     48  C34 UNL     1       9.018 -13.558  -2.570 +0.00 +0.00    +0.009 C  
DOCKED: ATOM     49  C35 UNL     1      10.046 -12.289  -4.443 +0.00 +0.00    +0.009 C  
DOCKED: ENDBRANCH  34  47
DOCKED: ENDBRANCH  32  34
DOCKED: ENDBRANCH  29  30
DOCKED: BRANCH  29  51
DOCKED: ATOM     50  C1  UNL     1      11.666  -7.955  -4.672 +0.00 +0.00    +0.004 C  
DOCKED: ATOM     51  C2  UNL     1      10.158  -8.014  -4.428 +0.00 +0.00    +0.009 C  
DOCKED: ENDBRANCH  29  51
DOCKED: ENDBRANCH  28  29
DOCKED: ENDBRANCH   1  28
DOCKED: TORSDOF 19
DOCKED: TER
DOCKED: ENDMDL
________________________________________________________________________________


    FINAL DOCKED STATE:
    ________________________


Run:   2 / 20
Time taken for this run:   0.685s

DOCKED: MODEL        2
DOCKED: USER    Run = 2
DOCKED: USER
DOCKED: USER    Estimated Free Energy of Binding    =  +5.67 kcal/mol  [=(1)+(2)+(3)-(4)]
DOCKED: USER
DOCKED: USER    (1) Final Intermolecular Energy     =  +0.00 kcal/mol
DOCKED: USER        vdW + Hbond + desolv Energy     =  +0.00 kcal/mol
DOCKED: USER        Electrostatic Energy            =  +0.00 kcal/mol
DOCKED: USER        Moving Ligand-Fixed Receptor    =  +0.00 kcal/mol
DOCKED: USER        Moving Ligand-Moving Receptor   =  +0.00 kcal/mol
DOCKED: USER    (2) Final Total Internal Energy     = -13.10 kcal/mol
DOCKED: USER    (3) Torsional Free Energy           =  +5.67 kcal/mol
DOCKED: USER    (4) Unbound System's Energy         = -13.10 kcal/mol
DOCKED: USER
DOCKED: USER
DOCKED: REMARK  Name = ligands/ligand_18.pdb
DOCKED: REMARK  26 active torsions:
DOCKED: REMARK  status: ('A' for Active; 'I' for Inactive)
DOCKED: REMARK    1  A    between atoms: C1_1  and  C2_2
DOCKED: REMARK    2  A    between atoms: C2_2  and  C3_3
DOCKED: REMARK    3  A    between atoms: C3_3  and  C4_4
DOCKED: REMARK    4  A    between atoms: C3_3  and  C22_28
DOCKED: REMARK    5  A    between atoms: C4_4  and  C5_5
DOCKED: REMARK    6  A    between atoms: C5_5  and  O1_6
DOCKED: REMARK    7  A    between atoms: C5_5  and  C6_7
DOCKED: REMARK    8  A    between atoms: C6_7  and  C7_8
DOCKED: REMARK    9  A    between atoms: C6_7  and  N1_15
DOCKED: REMARK   10  A    between atoms: C7_8  and  C8_9
DOCKED: REMARK   11  A    between atoms: C14_16  and  C15_18
DOCKED: REMARK   12  A    between atoms: C15_18  and  C16_19
DOCKED: REMARK   13  A    between atoms: C15_18  and  N2_20
DOCKED: REMARK   14  A    between atoms: C17_21  and  C18_23
DOCKED: REMARK   15  A    between atoms: C18_23  and  O4_24
DOCKED: REMARK   16  A    between atoms: C18_23  and  C19_25
DOCKED: REMARK   17  A    between atoms: C19_25  and  C20_26
DOCKED: REMARK   18  A    between atoms: C19_25  and  C21_27
DOCKED: REMARK   19  A    between atoms: N3_30  and  C23_31
DOCKED: REMARK   20  A    between atoms: C23_31  and  C24_32
DOCKED: REMARK   21  A    between atoms: C23_31  and  C33_43
DOCKED: REMARK   22  A    between atoms: N4_34  and  C25_35
DOCKED: REMARK   23  A    between atoms: C25_35  and  C26_36
DOCKED: REMARK   24  A    between atoms: C25_35  and  C27_37
DOCKED: REMARK   25  A    between atoms: C33_43  and  C34_44
DOCKED: REMARK   26  A    between atoms: C33_43  and  C35_45
DOCKED: REMARK                            x       y       z     vdW  Elec       q    Type
DOCKED: REMARK                         _______ _______ _______ _____ _____    ______ ____
DOCKED: USER                              x       y       z     vdW  Elec       q    Type
DOCKED: USER                           _______ _______ _______ _____ _____    ______ ____
DOCKED: ROOT
DOCKED: ATOM      1  C5  UNL     1       9.387   1.525   0.366 +0.00 +0.00    +0.136 C  
DOCKED: ENDROOT
DOCKED: BRANCH   1   2
DOCKED: ATOM      2  O1  UNL     1       8.991   1.982   1.655 +0.00 -0.00    -0.390 OA 
DOCKED: ATOM      3  H10 UNL     1       8.957   1.203   2.238 +0.00 +0.00    +0.210 HD 
DOCKED: ENDBRANCH   1   2
DOCKED: BRANCH   1   4
DOCKED: ATOM      4  C6  UNL     1       8.504   0.327  -0.082 +0.00 +0.00    +0.106 C  
DOCKED: BRANCH   4   5
DOCKED: ATOM      5  N1  UNL     1       7.995  -0.415   1.076 +0.00 -0.00    -0.308 N  
DOCKED: ATOM      6  C14 UNL     1       7.024  -1.380   0.928 +0.00 +0.00    +0.233 C  
DOCKED: ATOM      7  O2  UNL     1       6.645  -1.800  -0.166 +0.00 -0.00    -0.274 OA 
DOCKED: ATOM      8  H19 UNL     1       8.097  -0.020   2.014 +0.00 +0.00    +0.149 HD 
DOCKED: BRANCH   6   9
DOCKED: ATOM      9  C15 UNL     1       6.459  -1.921   2.250 +0.00 +0.00    +0.156 C  
DOCKED: ATOM     10  C16 UNL     1       4.937  -1.955   2.181 +0.00 +0.00    +0.038 C  
DOCKED: BRANCH   9  11
DOCKED: ATOM     11  N2  UNL     1       6.919  -1.041   3.312 +0.00 -0.00    -0.302 N  
DOCKED: ATOM     12  C17 UNL     1       7.899  -1.396   4.197 +0.00 +0.00    +0.242 C  
DOCKED: ATOM     13  O3  UNL     1       8.379  -2.523   4.251 +0.00 -0.00    -0.273 OA 
DOCKED: ATOM     14  H24 UNL     1       6.667  -0.053   3.244 +0.00 +0.00    +0.150 HD 
DOCKED: BRANCH  12  15
DOCKED: ATOM     15  C18 UNL     1       8.351  -0.249   5.126 +0.00 +0.00    +0.202 C  
DOCKED: BRANCH  15  16
DOCKED: ATOM     16  C19 UNL     1       7.527  -0.130   6.422 +0.00 +0.00    +0.020 C  
DOCKED: ATOM     17  C20 UNL     1       6.031  -0.018   6.143 +0.00 +0.00    +0.010 C  
DOCKED: ATOM     18  C21 UNL     1       7.982   1.006   7.344 +0.00 +0.00    +0.010 C  
DOCKED: ENDBRANCH  15  16
DOCKED: BRANCH  15  19
DOCKED: ATOM     19  O4  UNL     1       8.289   1.004   4.435 +0.00 -0.00    -0.382 OA 
DOCKED: ATOM     20  H26 UNL     1       8.708   0.875   3.563 +0.00 +0.00    +0.210 HD 
DOCKED: ENDBRANCH  15  19
DOCKED: ENDBRANCH  12  15
DOCKED: ENDBRANCH   9  11
DOCKED: ENDBRANCH   6   9
DOCKED: ENDBRANCH   4   5
DOCKED: BRANCH   4  21
DOCKED: ATOM     21  C7  UNL     1       7.412   0.651  -1.119 +0.00 +0.00    +0.060 C  
DOCKED: BRANCH  21  22
DOCKED: ATOM     22  C8  UNL     1       6.384   1.640  -0.610 +0.00 -0.00    -0.046 A  
DOCKED: ATOM     23  C9  UNL     1       5.164   1.193  -0.087 +0.00 +0.00    +0.004 A  
DOCKED: ATOM     24  C10 UNL     1       4.241   2.105   0.432 +0.00 +0.00    +0.000 A  
DOCKED: ATOM     25  C11 UNL     1       4.528   3.470   0.435 +0.00 +0.00    +0.000 A  
DOCKED: ATOM     26  C12 UNL     1       5.737   3.925  -0.087 +0.00 +0.00    +0.000 A  
DOCKED: ATOM     27  C13 UNL     1       6.658   3.016  -0.608 +0.00 +0.00    +0.004 A  
DOCKED: ENDBRANCH  21  22
DOCKED: ENDBRANCH   4  21
DOCKED: ENDBRANCH   1   4
DOCKED: BRANCH   1  28
DOCKED: ATOM     28  C4  UNL     1      10.929   1.424   0.250 +0.00 +0.00    +0.046 C  
DOCKED: BRANCH  28  29
DOCKED: ATOM     29  C3  UNL     1      11.831   0.725   1.314 +0.00 +0.00    +0.077 C  
DOCKED: BRANCH  29  30
DOCKED: ATOM     30  C22 UNL     1      11.196   0.666   2.715 +0.00 +0.00    +0.217 C  
DOCKED: ATOM     31  O5  UNL     1      10.110   0.120   2.905 +0.00 -0.00    -0.275 OA 
DOCKED: ATOM     32  N3  UNL     1      11.943   1.167   3.741 +0.00 -0.00    -0.304 N  
DOCKED: ATOM     33  H34 UNL     1      12.646   1.858   3.506 +0.00 +0.00    +0.149 HD 
DOCKED: BRANCH  32  34
DOCKED: ATOM     34  C23 UNL     1      11.442   1.253   5.118 +0.00 +0.00    +0.161 C  
DOCKED: BRANCH  34  35
DOCKED: ATOM     35  C24 UNL     1      10.750   2.643   5.176 +0.00 +0.00    +0.234 C  
DOCKED: ATOM     36  O6  UNL     1      10.908   3.396   6.141 +0.00 -0.00    -0.274 OA 
DOCKED: ATOM     37  N4  UNL     1       9.976   2.963   4.088 +0.00 -0.00    -0.307 N  
DOCKED: ATOM     38  H36 UNL     1       9.750   2.231   3.424 +0.00 +0.00    +0.149 HD 
DOCKED: BRANCH  37  39
DOCKED: ATOM     39  C25 UNL     1       9.144   4.159   4.050 +0.00 +0.00    +0.100 C  
DOCKED: ATOM     40  C26 UNL     1       9.321   4.885   2.718 +0.00 +0.00    +0.033 C  
DOCKED: BRANCH  39  41
DOCKED: ATOM     41  C27 UNL     1       7.695   3.790   4.321 +0.00 -0.00    -0.027 A  
DOCKED: ATOM     42  C28 UNL     1       6.903   3.282   3.280 +0.00 +0.00    +0.005 A  
DOCKED: ATOM     43  C29 UNL     1       5.572   2.923   3.505 +0.00 +0.00    +0.000 A  
DOCKED: ATOM     44  C30 UNL     1       5.004   3.094   4.765 +0.00 +0.00    +0.000 A  
DOCKED: ATOM     45  C31 UNL     1       5.770   3.613   5.808 +0.00 +0.00    +0.000 A  
DOCKED: ATOM     46  C32 UNL     1       7.107   3.960   5.588 +0.00 +0.00    +0.005 A  
DOCKED: ENDBRANCH  39  41
DOCKED: ENDBRANCH  37  39
DOCKED: ENDBRANCH  34  35
DOCKED: BRANCH  34  47
DOCKED: ATOM     47  C33 UNL     1      12.562   1.123   6.191 +0.00 +0.00    +0.012 C  
DOCKED: ATOM     48  C34 UNL     1      12.225   0.024   7.209 +0.00 +0.00    +0.009 C  
DOCKED: ATOM     49  C35 UNL     1      13.958   0.831   5.621 +0.00 +0.00    +0.009 C  
DOCKED: ENDBRANCH  34  47
DOCKED: ENDBRANCH  32  34
DOCKED: ENDBRANCH  29  30
DOCKED: BRANCH  29  51
DOCKED: ATOM     50  C1  UNL     1      13.486   2.677   1.303 +0.00 +0.00    +0.004 C  
DOCKED: ATOM     51  C2  UNL     1      13.300   1.162   1.384 +0.00 +0.00    +0.009 C  
DOCKED: ENDBRANCH  29  51
DOCKED: ENDBRANCH  28  29
DOCKED: ENDBRANCH   1  28
DOCKED: TORSDOF 19
DOCKED: TER
DOCKED: ENDMDL
________________________________________________________________________________


    FINAL DOCKED STATE:
    ________________________


Run:   3 / 20
Time taken for this run:   0.685s

DOCKED: MODEL        3
DOCKED: USER    Run = 3
DOCKED: USER
DOCKED: USER    Estimated Free Energy of Binding    =  +5.67 kcal/mol  [=(1)+(2)+(3)-(4)]
DOCKED: USER
DOCKED: USER    (1) Final Intermolecular Energy     =  +0.00 kcal/mol
DOCKED: USER        vdW + Hbond + desolv Energy     =  +0.00 kcal/mol
DOCKED: USER        Electrostatic Energy            =  +0.00 kcal/mol
DOCKED: USER        Moving Ligand-Fixed Receptor    =  +0.00 kcal/mol
DOCKED: USER        Moving Ligand-Moving Receptor   =  +0.00 kcal/mol
DOCKED: USER    (2) Final Total Internal Energy     = -13.07 kcal/mol
DOCKED: USER    (3) Torsional Free Energy           =  +5.67 kcal/mol
DOCKED: USER    (4) Unbound System's Energy         = -13.07 kcal/mol
DOCKED: USER
DOCKED: USER
DOCKED: REMARK  Name = ligands/ligand_18.pdb
DOCKED: REMARK  26 active torsions:
DOCKED: REMARK  status: ('A' for Active; 'I' for Inactive)
DOCKED: REMARK    1  A    between atoms: C1_1  and  C2_2
DOCKED: REMARK    2  A    between atoms: C2_2  and  C3_3
DOCKED: REMARK    3  A    between atoms: C3_3  and  C4_4
DOCKED: REMARK    4  A    between atoms: C3_3  and  C22_28
DOCKED: REMARK    5  A    between atoms: C4_4  and  C5_5
DOCKED: REMARK    6  A    between atoms: C5_5  and  O1_6
DOCKED: REMARK    7  A    between atoms: C5_5  and  C6_7
DOCKED: REMARK    8  A    between atoms: C6_7  and  C7_8
DOCKED: REMARK    9  A    between atoms: C6_7  and  N1_15
DOCKED: REMARK   10  A    between atoms: C7_8  and  C8_9
DOCKED: REMARK   11  A    between atoms: C14_16  and  C15_18
DOCKED: REMARK   12  A    between atoms: C15_18  and  C16_19
DOCKED: REMARK   13  A    between atoms: C15_18  and  N2_20
DOCKED: REMARK   14  A    between atoms: C17_21  and  C18_23
DOCKED: REMARK   15  A    between atoms: C18_23  and  O4_24
DOCKED: REMARK   16  A    between atoms: C18_23  and  C19_25
DOCKED: REMARK   17  A    between atoms: C19_25  and  C20_26
DOCKED: REMARK   18  A    between atoms: C19_25  and  C21_27
DOCKED: REMARK   19  A    between atoms: N3_30  and  C23_31
DOCKED: REMARK   20  A    between atoms: C23_31  and  C24_32
DOCKED: REMARK   21  A    between atoms: C23_31  and  C33_43
DOCKED: REMARK   22  A    between atoms: N4_34  and  C25_35
DOCKED: REMARK   23  A    between atoms: C25_35  and  C26_36
DOCKED: REMARK   24  A    between atoms: C25_35  and  C27_37
DOCKED: REMARK   25  A    between atoms: C33_43  and  C34_44
DOCKED: REMARK   26  A    between atoms: C33_43  and  C35_45
DOCKED: REMARK                            x       y       z     vdW  Elec       q    Type
DOCKED: REMARK                         _______ _______ _______ _____ _____    ______ ____
DOCKED: USER                              x       y       z     vdW  Elec       q    Type
DOCKED: USER                           _______ _______ _______ _____ _____    ______ ____
DOCKED: ROOT
DOCKED: ATOM      1  C5  UNL     1       8.688  -2.209   3.875 +0.00 +0.00    +0.136 C  
DOCKED: ENDROOT
DOCKED: BRANCH   1   2
DOCKED: ATOM      2  O1  UNL     1       9.451  -1.934   5.045 +0.00 -0.00    -0.390 OA 
DOCKED: ATOM      3  H10 UNL     1       9.161  -1.067   5.380 +0.00 +0.00    +0.210 HD 
DOCKED: ENDBRANCH   1   2
DOCKED: BRANCH   1   4
DOCKED: ATOM      4  C6  UNL     1       8.916  -1.107   2.804 +0.00 +0.00    +0.106 C  
DOCKED: BRANCH   4   5
DOCKED: ATOM      5  N1  UNL     1       9.375   0.141   3.421 +0.00 -0.00    -0.308 N  
DOCKED: ATOM      6  C14 UNL     1      10.004   1.112   2.673 +0.00 +0.00    +0.233 C  
DOCKED: ATOM      7  O2  UNL     1      10.073   1.083   1.444 +0.00 -0.00    -0.274 OA 
DOCKED: ATOM      8  H19 UNL     1       9.537   0.177   4.430 +0.00 +0.00    +0.149 HD 
DOCKED: BRANCH   6   9
DOCKED: ATOM      9  C15 UNL     1      10.599   2.263   3.497 +0.00 +0.00    +0.156 C  
DOCKED: ATOM     10  C16 UNL     1      11.724   2.928   2.713 +0.00 +0.00    +0.038 C  
DOCKED: BRANCH   9  11
DOCKED: ATOM     11  N2  UNL     1      11.087   1.698   4.745 +0.00 -0.00    -0.302 N  
DOCKED: ATOM     12  C17 UNL     1      10.274   1.448   5.815 +0.00 +0.00    +0.242 C  
DOCKED: ATOM     13  O3  UNL     1       9.098   1.794   5.860 +0.00 -0.00    -0.273 OA 
DOCKED: ATOM     14  H24 UNL     1      12.012   1.264   4.732 +0.00 +0.00    +0.150 HD 
DOCKED: BRANCH  12  15
DOCKED: ATOM     15  C18 UNL     1      10.967   0.688   6.966 +0.00 +0.00    +0.202 C  
DOCKED: BRANCH  15  16
DOCKED: ATOM     16  C19 UNL     1      12.434   0.317   6.681 +0.00 +0.00    +0.020 C  
DOCKED: ATOM     17  C20 UNL     1      12.553  -0.971   5.871 +0.00 +0.00    +0.010 C  
DOCKED: ATOM     18  C21 UNL     1      13.309   0.239   7.935 +0.00 +0.00    +0.010 C  
DOCKED: ENDBRANCH  15  16
DOCKED: BRANCH  15  19
DOCKED: ATOM     19  O4  UNL     1      10.248  -0.513   7.271 +0.00 -0.00    -0.382 OA 
DOCKED: ATOM     20  H26 UNL     1       9.449  -0.523   6.711 +0.00 +0.00    +0.210 HD 
DOCKED: ENDBRANCH  15  19
DOCKED: ENDBRANCH  12  15
DOCKED: ENDBRANCH   9  11
DOCKED: ENDBRANCH   6   9
DOCKED: ENDBRANCH   4   5
DOCKED: BRANCH   4  21
DOCKED: ATOM     21  C7  UNL     1       9.759  -1.523   1.584 +0.00 +0.00    +0.060 C  
DOCKED: BRANCH  21  22
DOCKED: ATOM     22  C8  UNL     1      11.139  -2.023   1.957 +0.00 -0.00    -0.046 A  
DOCKED: ATOM     23  C9  UNL     1      12.212  -1.131   2.071 +0.00 +0.00    +0.004 A  
DOCKED: ATOM     24  C10 UNL     1      13.472  -1.587   2.470 +0.00 +0.00    +0.000 A  
DOCKED: ATOM     25  C11 UNL     1      13.671  -2.937   2.760 +0.00 +0.00    +0.000 A  
DOCKED: ATOM     26  C12 UNL     1      12.609  -3.833   2.646 +0.00 +0.00    +0.000 A  
DOCKED: ATOM     27  C13 UNL     1      11.353  -3.380   2.246 +0.00 +0.00    +0.004 A  
DOCKED: ENDBRANCH  21  22
DOCKED: ENDBRANCH   4  21
DOCKED: ENDBRANCH   1   4
DOCKED: BRANCH   1  28
DOCKED: ATOM     28  C4  UNL     1       7.243  -2.642   4.232 +0.00 +0.00    +0.046 C  
DOCKED: BRANCH  28  29
DOCKED: ATOM     29  C3  UNL     1       6.543  -2.288   5.580 +0.00 +0.00    +0.077 C  
DOCKED: BRANCH  29  30
DOCKED: ATOM     30  C22 UNL     1       6.717  -0.815   5.994 +0.00 +0.00    +0.217 C  
DOCKED: ATOM     31  O5  UNL     1       7.665  -0.143   5.590 +0.00 -0.00    -0.275 OA 
DOCKED: ATOM     32  N3  UNL     1       5.718  -0.277   6.752 +0.00 -0.00    -0.304 N  
DOCKED: ATOM     33  H34 UNL     1       5.155  -0.918   7.297 +0.00 +0.00    +0.149 HD 
DOCKED: BRANCH  32  34
DOCKED: ATOM     34  C23 UNL     1       5.779   1.088   7.289 +0.00 +0.00    +0.161 C  
DOCKED: BRANCH  34  35
DOCKED: ATOM     35  C24 UNL     1       5.498   1.987   6.054 +0.00 +0.00    +0.234 C  
DOCKED: ATOM     36  O6  UNL     1       4.366   2.421   5.823 +0.00 -0.00    -0.274 OA 
DOCKED: ATOM     37  N4  UNL     1       6.587   2.262   5.264 +0.00 -0.00    -0.307 N  
DOCKED: ATOM     38  H36 UNL     1       7.438   1.730   5.412 +0.00 +0.00    +0.149 HD 
DOCKED: BRANCH  37  39
DOCKED: ATOM     39  C25 UNL     1       6.469   2.965   3.993 +0.00 +0.00    +0.100 C  
DOCKED: ATOM     40  C26 UNL     1       7.584   3.999   3.854 +0.00 +0.00    +0.033 C  
DOCKED: BRANCH  39  41
DOCKED: ATOM     41  C27 UNL     1       6.459   1.966   2.849 +0.00 -0.00    -0.027 A  
DOCKED: ATOM     42  C28 UNL     1       7.054   2.307   1.624 +0.00 +0.00    +0.005 A  
DOCKED: ATOM     43  C29 UNL     1       7.070   1.402   0.561 +0.00 +0.00    +0.000 A  
DOCKED: ATOM     44  C30 UNL     1       6.466   0.155   0.694 +0.00 +0.00    +0.000 A  
DOCKED: ATOM     45  C31 UNL     1       5.854  -0.197   1.896 +0.00 +0.00    +0.000 A  
DOCKED: ATOM     46  C32 UNL     1       5.850   0.702   2.967 +0.00 +0.00    +0.005 A  
DOCKED: ENDBRANCH  39  41
DOCKED: ENDBRANCH  37  39
DOCKED: ENDBRANCH  34  35
DOCKED: BRANCH  34  47
DOCKED: ATOM     47  C33 UNL     1       7.144   1.429   7.952 +0.00 +0.00    +0.012 C  
DOCKED: ATOM     48  C34 UNL     1       7.184   2.894   8.410 +0.00 +0.00    +0.009 C  
DOCKED: ATOM     49  C35 UNL     1       7.506   0.545   9.154 +0.00 +0.00    +0.009 C  
DOCKED: ENDBRANCH  34  47
DOCKED: ENDBRANCH  32  34
DOCKED: ENDBRANCH  29  30
DOCKED: BRANCH  29  51
DOCKED: ATOM     50  C1  UNL     1       7.918  -2.782   7.681 +0.00 +0.00    +0.004 C  
DOCKED: ATOM     51  C2  UNL     1       6.781  -3.233   6.765 +0.00 +0.00    +0.009 C  
DOCKED: ENDBRANCH  29  51
DOCKED: ENDBRANCH  28  29
DOCKED: ENDBRANCH   1  28
DOCKED: TORSDOF 19
DOCKED: TER
DOCKED: ENDMDL
________________________________________________________________________________


    FINAL DOCKED STATE:
    ________________________


Run:   4 / 20
Time taken for this run:   0.685s

DOCKED: MODEL        4
DOCKED: USER    Run = 4
DOCKED: USER
DOCKED: USER    Estimated Free Energy of Binding    =  +5.67 kcal/mol  [=(1)+(2)+(3)-(4)]
DOCKED: USER
DOCKED: USER    (1) Final Intermolecular Energy     =  +0.00 kcal/mol
DOCKED: USER        vdW + Hbond + desolv Energy     =  +0.00 kcal/mol
DOCKED: USER        Electrostatic Energy            =  +0.00 kcal/mol
DOCKED: USER        Moving Ligand-Fixed Receptor    =  +0.00 kcal/mol
DOCKED: USER        Moving Ligand-Moving Receptor   =  +0.00 kcal/mol
DOCKED: USER    (2) Final Total Internal Energy     = -13.09 kcal/mol
DOCKED: USER    (3) Torsional Free Energy           =  +5.67 kcal/mol
DOCKED: USER    (4) Unbound System's Energy         = -13.09 kcal/mol
DOCKED: USER
DOCKED: USER
DOCKED: REMARK  Name = ligands/ligand_18.pdb
DOCKED: REMARK  26 active torsions:
DOCKED: REMARK  status: ('A' for Active; 'I' for Inactive)
DOCKED: REMARK    1  A    between atoms: C1_1  and  C2_2
DOCKED: REMARK    2  A    between atoms: C2_2  and  C3_3
DOCKED: REMARK    3  A    between atoms: C3_3  and  C4_4
DOCKED: REMARK    4  A    between atoms: C3_3  and  C22_28
DOCKED: REMARK    5  A    between atoms: C4_4  and  C5_5
DOCKED: REMARK    6  A    between atoms: C5_5  and  O1_6
DOCKED: REMARK    7  A    between atoms: C5_5  and  C6_7
DOCKED: REMARK    8  A    between atoms: C6_7  and  C7_8
DOCKED: REMARK    9  A    between atoms: C6_7  and  N1_15
DOCKED: REMARK   10  A    between atoms: C7_8  and  C8_9
DOCKED: REMARK   11  A    between atoms: C14_16  and  C15_18
DOCKED: REMARK   12  A    between atoms: C15_18  and  C16_19
DOCKED: REMARK   13  A    between atoms: C15_18  and  N2_20
DOCKED: REMARK   14  A    between atoms: C17_21  and  C18_23
DOCKED: REMARK   15  A    between atoms: C18_23  and  O4_24
DOCKED: REMARK   16  A    between atoms: C18_23  and  C19_25
DOCKED: REMARK   17  A    between atoms: C19_25  and  C20_26
DOCKED: REMARK   18  A    between atoms: C19_25  and  C21_27
DOCKED: REMARK   19  A    between atoms: N3_30  and  C23_31
DOCKED: REMARK   20  A    between atoms: C23_31  and  C24_32
DOCKED: REMARK   21  A    between atoms: C23_31  and  C33_43
DOCKED: REMARK   22  A    between atoms: N4_34  and  C25_35
DOCKED: REMARK   23  A    between atoms: C25_35  and  C26_36
DOCKED: REMARK   24  A    between atoms: C25_35  and  C27_37
DOCKED: REMARK   25  A    between atoms: C33_43  and  C34_44
DOCKED: REMARK   26  A    between atoms: C33_43  and  C35_45
DOCKED: REMARK                            x       y       z     vdW  Elec       q    Type
DOCKED: REMARK                         _______ _______ _______ _____ _____    ______ ____
DOCKED: USER                              x       y       z     vdW  Elec       q    Type
DOCKED: USER                           _______ _______ _______ _____ _____    ______ ____
DOCKED: ROOT
DOCKED: ATOM      1  C5  UNL     1      10.039  -7.625   3.385 +0.00 +0.00    +0.136 C  
DOCKED: ENDROOT
DOCKED: BRANCH   1   2
DOCKED: ATOM      2  O1  UNL     1      10.647  -7.519   4.667 +0.00 -0.00    -0.390 OA 
DOCKED: ATOM      3  H10 UNL     1      11.588  -7.314   4.524 +0.00 +0.00    +0.210 HD 
DOCKED: ENDBRANCH   1   2
DOCKED: BRANCH   1   4
DOCKED: ATOM      4  C6  UNL     1      10.818  -8.633   2.495 +0.00 +0.00    +0.106 C  
DOCKED: BRANCH   4   5
DOCKED: ATOM      5  N1  UNL     1      12.214  -8.748   2.927 +0.00 -0.00    -0.308 N  
DOCKED: ATOM      6  C14 UNL     1      13.025  -9.751   2.444 +0.00 +0.00    +0.233 C  
DOCKED: ATOM      7  O2  UNL     1      12.704 -10.497   1.518 +0.00 -0.00    -0.274 OA 
DOCKED: ATOM      8  H19 UNL     1      12.509  -8.317   3.806 +0.00 +0.00    +0.149 HD 
DOCKED: BRANCH   6   9
DOCKED: ATOM      9  C15 UNL     1      14.390  -9.855   3.140 +0.00 +0.00    +0.156 C  
DOCKED: ATOM     10  C16 UNL     1      14.232 -10.572   4.476 +0.00 +0.00    +0.038 C  
DOCKED: BRANCH   9  11
DOCKED: ATOM     11  N2  UNL     1      14.890  -8.502   3.323 +0.00 -0.00    -0.302 N  
DOCKED: ATOM     12  C17 UNL     1      16.218  -8.185   3.250 +0.00 +0.00    +0.242 C  
DOCKED: ATOM     13  O3  UNL     1      17.105  -9.026   3.153 +0.00 -0.00    -0.273 OA 
DOCKED: ATOM     14  H24 UNL     1      14.210  -7.741   3.271 +0.00 +0.00    +0.150 HD 
DOCKED: BRANCH  12  15
DOCKED: ATOM     15  C18 UNL     1      16.505  -6.669   3.301 +0.00 +0.00    +0.202 C  
DOCKED: BRANCH  15  16
DOCKED: ATOM     16  C19 UNL     1      16.951  -6.161   4.685 +0.00 +0.00    +0.020 C  
DOCKED: ATOM     17  C20 UNL     1      18.354  -5.562   4.651 +0.00 +0.00    +0.010 C  
DOCKED: ATOM     18  C21 UNL     1      16.849  -7.213   5.794 +0.00 +0.00    +0.010 C  
DOCKED: ENDBRANCH  15  16
DOCKED: BRANCH  15  19
DOCKED: ATOM     19  O4  UNL     1      15.345  -5.931   2.901 +0.00 -0.00    -0.382 OA 
DOCKED: ATOM     20  H26 UNL     1      14.596  -6.256   3.436 +0.00 +0.00    +0.210 HD 
DOCKED: ENDBRANCH  15  19
DOCKED: ENDBRANCH  12  15
DOCKED: ENDBRANCH   9  11
DOCKED: ENDBRANCH   6   9
DOCKED: ENDBRANCH   4   5
DOCKED: BRANCH   4  21
DOCKED: ATOM     21  C7  UNL     1      10.139  -9.998   2.276 +0.00 +0.00    +0.060 C  
DOCKED: BRANCH  21  22
DOCKED: ATOM     22  C8  UNL     1       9.809 -10.712   3.571 +0.00 -0.00    -0.046 A  
DOCKED: ATOM     23  C9  UNL     1      10.817 -11.336   4.316 +0.00 +0.00    +0.004 A  
DOCKED: ATOM     24  C10 UNL     1      10.518 -11.945   5.538 +0.00 +0.00    +0.000 A  
DOCKED: ATOM     25  C11 UNL     1       9.212 -11.936   6.027 +0.00 +0.00    +0.000 A  
DOCKED: ATOM     26  C12 UNL     1       8.201 -11.321   5.290 +0.00 +0.00    +0.000 A  
DOCKED: ATOM     27  C13 UNL     1       8.497 -10.715   4.069 +0.00 +0.00    +0.004 A  
DOCKED: ENDBRANCH  21  22
DOCKED: ENDBRANCH   4  21
DOCKED: ENDBRANCH   1   4
DOCKED: BRANCH   1  28
DOCKED: ATOM     28  C4  UNL     1       9.667  -6.232   2.818 +0.00 +0.00    +0.046 C  
DOCKED: BRANCH  28  29
DOCKED: ATOM     29  C3  UNL     1      10.617  -4.996   2.870 +0.00 +0.00    +0.077 C  
DOCKED: BRANCH  29  30
DOCKED: ATOM     30  C22 UNL     1      12.010  -5.316   3.442 +0.00 +0.00    +0.217 C  
DOCKED: ATOM     31  O5  UNL     1      12.682  -6.251   3.010 +0.00 -0.00    -0.275 OA 
DOCKED: ATOM     32  N3  UNL     1      12.492  -4.453   4.383 +0.00 -0.00    -0.304 N  
DOCKED: ATOM     33  H34 UNL     1      11.812  -3.918   4.910 +0.00 +0.00    +0.149 HD 
DOCKED: BRANCH  32  34
DOCKED: ATOM     34  C23 UNL     1      13.767  -4.668   5.077 +0.00 +0.00    +0.161 C  
DOCKED: BRANCH  34  35
DOCKED: ATOM     35  C24 UNL     1      13.566  -6.020   5.814 +0.00 +0.00    +0.234 C  
DOCKED: ATOM     36  O6  UNL     1      13.628  -7.094   5.208 +0.00 -0.00    -0.274 OA 
DOCKED: ATOM     37  N4  UNL     1      13.329  -5.929   7.163 +0.00 -0.00    -0.307 N  
DOCKED: ATOM     38  H36 UNL     1      13.114  -5.018   7.556 +0.00 +0.00    +0.149 HD 
DOCKED: BRANCH  37  39
DOCKED: ATOM     39  C25 UNL     1      12.975  -7.088   7.972 +0.00 +0.00    +0.100 C  
DOCKED: ATOM     40  C26 UNL     1      13.272  -6.817   9.445 +0.00 +0.00    +0.033 C  
DOCKED: BRANCH  39  41
DOCKED: ATOM     41  C27 UNL     1      11.520  -7.459   7.733 +0.00 -0.00    -0.027 A  
DOCKED: ATOM     42  C28 UNL     1      10.567  -6.446   7.547 +0.00 +0.00    +0.005 A  
DOCKED: ATOM     43  C29 UNL     1       9.227  -6.760   7.313 +0.00 +0.00    +0.000 A  
DOCKED: ATOM     44  C30 UNL     1       8.813  -8.089   7.292 +0.00 +0.00    +0.000 A  
DOCKED: ATOM     45  C31 UNL     1       9.741  -9.110   7.493 +0.00 +0.00    +0.000 A  
DOCKED: ATOM     46  C32 UNL     1      11.086  -8.798   7.713 +0.00 +0.00    +0.005 A  
DOCKED: ENDBRANCH  39  41
DOCKED: ENDBRANCH  37  39
DOCKED: ENDBRANCH  34  35
DOCKED: BRANCH  34  47
DOCKED: ATOM     47  C33 UNL     1      14.132  -3.522   6.065 +0.00 +0.00    +0.012 C  
DOCKED: ATOM     48  C34 UNL     1      15.645  -3.259   6.069 +0.00 +0.00    +0.009 C  
DOCKED: ATOM     49  C35 UNL     1      13.418  -2.192   5.788 +0.00 +0.00    +0.009 C  
DOCKED: ENDBRANCH  34  47
DOCKED: ENDBRANCH  32  34
DOCKED: ENDBRANCH  29  30
DOCKED: BRANCH  29  51
DOCKED: ATOM     50  C1  UNL     1       9.305  -3.916   4.784 +0.00 +0.00    +0.004 C  
DOCKED: ATOM     51  C2  UNL     1      10.052  -3.701   3.467 +0.00 +0.00    +0.009 C  
DOCKED: ENDBRANCH  29  51
DOCKED: ENDBRANCH  28  29
DOCKED: ENDBRANCH   1  28
DOCKED: TORSDOF 19
DOCKED: TER
DOCKED: ENDMDL
________________________________________________________________________________


    FINAL DOCKED STATE:
    ________________________


Run:   5 / 20
Time taken for this run:   0.685s

DOCKED: MODEL        5
DOCKED: USER    Run = 5
DOCKED: USER
DOCKED: USER    Estimated Free Energy of Binding    =  +5.67 kcal/mol  [=(1)+(2)+(3)-(4)]
DOCKED: USER
DOCKED: USER    (1) Final Intermolecular Energy     =  +0.00 kcal/mol
DOCKED: USER        vdW + Hbond + desolv Energy     =  +0.00 kcal/mol
DOCKED: USER        Electrostatic Energy            =  +0.00 kcal/mol
DOCKED: USER        Moving Ligand-Fixed Receptor    =  +0.00 kcal/mol
DOCKED: USER        Moving Ligand-Moving Receptor   =  +0.00 kcal/mol
DOCKED: USER    (2) Final Total Internal Energy     = -13.23 kcal/mol
DOCKED: USER    (3) Torsional Free Energy           =  +5.67 kcal/mol
DOCKED: USER    (4) Unbound System's Energy         = -13.23 kcal/mol
DOCKED: USER
DOCKED: USER
DOCKED: REMARK  Name = ligands/ligand_18.pdb
DOCKED: REMARK  26 active torsions:
DOCKED: REMARK  status: ('A' for Active; 'I' for Inactive)
DOCKED: REMARK    1  A    between atoms: C1_1  and  C2_2
DOCKED: REMARK    2  A    between atoms: C2_2  and  C3_3
DOCKED: REMARK    3  A    between atoms: C3_3  and  C4_4
DOCKED: REMARK    4  A    between atoms: C3_3  and  C22_28
DOCKED: REMARK    5  A    between atoms: C4_4  and  C5_5
DOCKED: REMARK    6  A    between atoms: C5_5  and  O1_6
DOCKED: REMARK    7  A    between atoms: C5_5  and  C6_7
DOCKED: REMARK    8  A    between atoms: C6_7  and  C7_8
DOCKED: REMARK    9  A    between atoms: C6_7  and  N1_15
DOCKED: REMARK   10  A    between atoms: C7_8  and  C8_9
DOCKED: REMARK   11  A    between atoms: C14_16  and  C15_18
DOCKED: REMARK   12  A    between atoms: C15_18  and  C16_19
DOCKED: REMARK   13  A    between atoms: C15_18  and  N2_20
DOCKED: REMARK   14  A    between atoms: C17_21  and  C18_23
DOCKED: REMARK   15  A    between atoms: C18_23  and  O4_24
DOCKED: REMARK   16  A    between atoms: C18_23  and  C19_25
DOCKED: REMARK   17  A    between atoms: C19_25  and  C20_26
DOCKED: REMARK   18  A    between atoms: C19_25  and  C21_27
DOCKED: REMARK   19  A    between atoms: N3_30  and  C23_31
DOCKED: REMARK   20  A    between atoms: C23_31  and  C24_32
DOCKED: REMARK   21  A    between atoms: C23_31  and  C33_43
DOCKED: REMARK   22  A    between atoms: N4_34  and  C25_35
DOCKED: REMARK   23  A    between atoms: C25_35  and  C26_36
DOCKED: REMARK   24  A    between atoms: C25_35  and  C27_37
DOCKED: REMARK   25  A    between atoms: C33_43  and  C34_44
DOCKED: REMARK   26  A    between atoms: C33_43  and  C35_45
DOCKED: REMARK                            x       y       z     vdW  Elec       q    Type
DOCKED: REMARK                         _______ _______ _______ _____ _____    ______ ____
DOCKED: USER                              x       y       z     vdW  Elec       q    Type
DOCKED: USER                           _______ _______ _______ _____ _____    ______ ____
DOCKED: ROOT
DOCKED: ATOM      1  C5  UNL     1       7.739  -3.130  -3.834 +0.00 +0.00    +0.136 C  
DOCKED: ENDROOT
DOCKED: BRANCH   1   2
DOCKED: ATOM      2  O1  UNL     1       6.536  -2.813  -4.527 +0.00 -0.00    -0.390 OA 
DOCKED: ATOM      3  H10 UNL     1       5.884  -3.500  -4.301 +0.00 +0.00    +0.210 HD 
DOCKED: ENDBRANCH   1   2
DOCKED: BRANCH   1   4
DOCKED: ATOM      4  C6  UNL     1       7.687  -4.586  -3.291 +0.00 +0.00    +0.106 C  
DOCKED: BRANCH   4   5
DOCKED: ATOM      5  N1  UNL     1       7.149  -4.622  -1.928 +0.00 -0.00    -0.308 N  
DOCKED: ATOM      6  C14 UNL     1       7.748  -5.386  -0.951 +0.00 +0.00    +0.233 C  
DOCKED: ATOM      7  O2  UNL     1       8.838  -5.941  -1.095 +0.00 -0.00    -0.274 OA 
DOCKED: ATOM      8  H19 UNL     1       6.174  -4.364  -1.762 +0.00 +0.00    +0.149 HD 
DOCKED: BRANCH   6   9
DOCKED: ATOM      9  C15 UNL     1       6.955  -5.474   0.362 +0.00 +0.00    +0.156 C  
DOCKED: ATOM     10  C16 UNL     1       7.166  -6.843   0.998 +0.00 +0.00    +0.038 C  
DOCKED: BRANCH   9  11
DOCKED: ATOM     11  N2  UNL     1       5.555  -5.252   0.040 +0.00 -0.00    -0.302 N  
DOCKED: ATOM     12  C17 UNL     1       4.541  -5.519   0.917 +0.00 +0.00    +0.242 C  
DOCKED: ATOM     13  O3  UNL     1       4.713  -6.085   1.991 +0.00 -0.00    -0.273 OA 
DOCKED: ATOM     14  H24 UNL     1       5.347  -4.665  -0.771 +0.00 +0.00    +0.150 HD 
DOCKED: BRANCH  12  15
DOCKED: ATOM     15  C18 UNL     1       3.152  -5.047   0.435 +0.00 +0.00    +0.202 C  
DOCKED: BRANCH  15  16
DOCKED: ATOM     16  C19 UNL     1       2.314  -6.148  -0.242 +0.00 +0.00    +0.020 C  
DOCKED: ATOM     17  C20 UNL     1       2.791  -7.547   0.138 +0.00 +0.00    +0.010 C  
DOCKED: ATOM     18  C21 UNL     1       2.225  -6.011  -1.764 +0.00 +0.00    +0.010 C  
DOCKED: ENDBRANCH  15  16
DOCKED: BRANCH  15  19
DOCKED: ATOM     19  O4  UNL     1       3.291  -3.957  -0.484 +0.00 -0.00    -0.382 OA 
DOCKED: ATOM     20  H26 UNL     1       4.092  -4.126  -1.016 +0.00 +0.00    +0.210 HD 
DOCKED: ENDBRANCH  15  19
DOCKED: ENDBRANCH  12  15
DOCKED: ENDBRANCH   9  11
DOCKED: ENDBRANCH   6   9
DOCKED: ENDBRANCH   4   5
DOCKED: BRANCH   4  21
DOCKED: ATOM     21  C7  UNL     1       7.037  -5.625  -4.225 +0.00 +0.00    +0.060 C  
DOCKED: BRANCH  21  22
DOCKED: ATOM     22  C8  UNL     1       6.650  -6.904  -3.512 +0.00 -0.00    -0.046 A  
DOCKED: ATOM     23  C9  UNL     1       7.603  -7.900  -3.270 +0.00 +0.00    +0.004 A  
DOCKED: ATOM     24  C10 UNL     1       7.257  -9.055  -2.564 +0.00 +0.00    +0.000 A  
DOCKED: ATOM     25  C11 UNL     1       5.955  -9.225  -2.091 +0.00 +0.00    +0.000 A  
DOCKED: ATOM     26  C12 UNL     1       4.998  -8.240  -2.330 +0.00 +0.00    +0.000 A  
DOCKED: ATOM     27  C13 UNL     1       5.342  -7.089  -3.037 +0.00 +0.00    +0.004 A  
DOCKED: ENDBRANCH  21  22
DOCKED: ENDBRANCH   4  21
DOCKED: ENDBRANCH   1   4
DOCKED: BRANCH   1  28
DOCKED: ATOM     28  C4  UNL     1       8.169  -1.978  -2.891 +0.00 +0.00    +0.046 C  
DOCKED: BRANCH  28  29
DOCKED: ATOM     29  C3  UNL     1       7.171  -1.160  -2.016 +0.00 +0.00    +0.077 C  
DOCKED: BRANCH  29  30
DOCKED: ATOM     30  C22 UNL     1       5.789  -1.824  -1.877 +0.00 +0.00    +0.217 C  
DOCKED: ATOM     31  O5  UNL     1       5.500  -2.508  -0.897 +0.00 -0.00    -0.275 OA 
DOCKED: ATOM     32  N3  UNL     1       4.877  -1.534  -2.851 +0.00 -0.00    -0.304 N  
DOCKED: ATOM     33  H34 UNL     1       5.239  -1.247  -3.752 +0.00 +0.00    +0.149 HD 
DOCKED: BRANCH  32  34
DOCKED: ATOM     34  C23 UNL     1       3.546  -2.152  -2.899 +0.00 +0.00    +0.161 C  
DOCKED: BRANCH  34  35
DOCKED: ATOM     35  C24 UNL     1       3.829  -3.612  -3.349 +0.00 +0.00    +0.234 C  
DOCKED: ATOM     36  O6  UNL     1       4.681  -4.301  -2.780 +0.00 -0.00    -0.274 OA 
DOCKED: ATOM     37  N4  UNL     1       3.068  -4.066  -4.396 +0.00 -0.00    -0.307 N  
DOCKED: ATOM     38  H36 UNL     1       2.522  -3.393  -4.925 +0.00 +0.00    +0.149 HD 
DOCKED: BRANCH  37  39
DOCKED: ATOM     39  C25 UNL     1       3.309  -5.355  -5.033 +0.00 +0.00    +0.100 C  
DOCKED: ATOM     40  C26 UNL     1       1.999  -5.939  -5.559 +0.00 +0.00    +0.033 C  
DOCKED: BRANCH  39  41
DOCKED: ATOM     41  C27 UNL     1       4.356  -5.204  -6.124 +0.00 -0.00    -0.027 A  
DOCKED: ATOM     42  C28 UNL     1       4.971  -6.348  -6.657 +0.00 +0.00    +0.005 A  
DOCKED: ATOM     43  C29 UNL     1       5.927  -6.238  -7.669 +0.00 +0.00    +0.000 A  
DOCKED: ATOM     44  C30 UNL     1       6.305  -4.985  -8.142 +0.00 +0.00    +0.000 A  
DOCKED: ATOM     45  C31 UNL     1       5.718  -3.836  -7.614 +0.00 +0.00    +0.000 A  
DOCKED: ATOM     46  C32 UNL     1       4.750  -3.944  -6.611 +0.00 +0.00    +0.005 A  
DOCKED: ENDBRANCH  39  41
DOCKED: ENDBRANCH  37  39
DOCKED: ENDBRANCH  34  35
DOCKED: BRANCH  34  47
DOCKED: ATOM     47  C33 UNL     1       2.567  -1.431  -3.870 +0.00 +0.00    +0.012 C  
DOCKED: ATOM     48  C34 UNL     1       1.902  -0.226  -3.188 +0.00 +0.00    +0.009 C  
DOCKED: ATOM     49  C35 UNL     1       3.210  -0.943  -5.176 +0.00 +0.00    +0.009 C  
DOCKED: ENDBRANCH  34  47
DOCKED: ENDBRANCH  32  34
DOCKED: ENDBRANCH  29  30
DOCKED: BRANCH  29  51
DOCKED: ATOM     50  C1  UNL     1       6.995   0.661  -3.805 +0.00 +0.00    +0.004 C  
DOCKED: ATOM     51  C2  UNL     1       7.043   0.340  -2.311 +0.00 +0.00    +0.009 C  
DOCKED: ENDBRANCH  29  51
DOCKED: ENDBRANCH  28  29
DOCKED: ENDBRANCH   1  28
DOCKED: TORSDOF 19
DOCKED: TER
DOCKED: ENDMDL
________________________________________________________________________________


    FINAL DOCKED STATE:
    ________________________


Run:   6 / 20
Time taken for this run:   0.685s

DOCKED: MODEL        6
DOCKED: USER    Run = 6
DOCKED: USER
DOCKED: USER    Estimated Free Energy of Binding    =  +5.67 kcal/mol  [=(1)+(2)+(3)-(4)]
DOCKED: USER
DOCKED: USER    (1) Final Intermolecular Energy     =  +0.00 kcal/mol
DOCKED: USER        vdW + Hbond + desolv Energy     =  +0.00 kcal/mol
DOCKED: USER        Electrostatic Energy            =  +0.00 kcal/mol
DOCKED: USER        Moving Ligand-Fixed Receptor    =  +0.00 kcal/mol
DOCKED: USER        Moving Ligand-Moving Receptor   =  +0.00 kcal/mol
DOCKED: USER    (2) Final Total Internal Energy     = -12.96 kcal/mol
DOCKED: USER    (3) Torsional Free Energy           =  +5.67 kcal/mol
DOCKED: USER    (4) Unbound System's Energy         = -12.96 kcal/mol
DOCKED: USER
DOCKED: USER
DOCKED: REMARK  Name = ligands/ligand_18.pdb
DOCKED: REMARK  26 active torsions:
DOCKED: REMARK  status: ('A' for Active; 'I' for Inactive)
DOCKED: REMARK    1  A    between atoms: C1_1  and  C2_2
DOCKED: REMARK    2  A    between atoms: C2_2  and  C3_3
DOCKED: REMARK    3  A    between atoms: C3_3  and  C4_4
DOCKED: REMARK    4  A    between atoms: C3_3  and  C22_28
DOCKED: REMARK    5  A    between atoms: C4_4  and  C5_5
DOCKED: REMARK    6  A    between atoms: C5_5  and  O1_6
DOCKED: REMARK    7  A    between atoms: C5_5  and  C6_7
DOCKED: REMARK    8  A    between atoms: C6_7  and  C7_8
DOCKED: REMARK    9  A    between atoms: C6_7  and  N1_15
DOCKED: REMARK   10  A    between atoms: C7_8  and  C8_9
DOCKED: REMARK   11  A    between atoms: C14_16  and  C15_18
DOCKED: REMARK   12  A    between atoms: C15_18  and  C16_19
DOCKED: REMARK   13  A    between atoms: C15_18  and  N2_20
DOCKED: REMARK   14  A    between atoms: C17_21  and  C18_23
DOCKED: REMARK   15  A    between atoms: C18_23  and  O4_24
DOCKED: REMARK   16  A    between atoms: C18_23  and  C19_25
DOCKED: REMARK   17  A    between atoms: C19_25  and  C20_26
DOCKED: REMARK   18  A    between atoms: C19_25  and  C21_27
DOCKED: REMARK   19  A    between atoms: N3_30  and  C23_31
DOCKED: REMARK   20  A    between atoms: C23_31  and  C24_32
DOCKED: REMARK   21  A    between atoms: C23_31  and  C33_43
DOCKED: REMARK   22  A    between atoms: N4_34  and  C25_35
DOCKED: REMARK   23  A    between atoms: C25_35  and  C26_36
DOCKED: REMARK   24  A    between atoms: C25_35  and  C27_37
DOCKED: REMARK   25  A    between atoms: C33_43  and  C34_44
DOCKED: REMARK   26  A    between atoms: C33_43  and  C35_45
DOCKED: REMARK                            x       y       z     vdW  Elec       q    Type
DOCKED: REMARK                         _______ _______ _______ _____ _____    ______ ____
DOCKED: USER                              x       y       z     vdW  Elec       q    Type
DOCKED: USER                           _______ _______ _______ _____ _____    ______ ____
DOCKED: ROOT
DOCKED: ATOM      1  C5  UNL     1      11.041  -1.214   1.089 +0.00 +0.00    +0.136 C  
DOCKED: ENDROOT
DOCKED: BRANCH   1   2
DOCKED: ATOM      2  O1  UNL     1      11.899  -2.200   1.654 +0.00 -0.00    -0.390 OA 
DOCKED: ATOM      3  H10 UNL     1      12.810  -1.973   1.393 +0.00 +0.00    +0.210 HD 
DOCKED: ENDBRANCH   1   2
DOCKED: BRANCH   1   4
DOCKED: ATOM      4  C6  UNL     1      11.529  -0.819  -0.332 +0.00 +0.00    +0.106 C  
DOCKED: BRANCH   4   5
DOCKED: ATOM      5  N1  UNL     1      12.533   0.248  -0.268 +0.00 -0.00    -0.308 N  
DOCKED: ATOM      6  C14 UNL     1      13.718   0.066   0.410 +0.00 +0.00    +0.233 C  
DOCKED: ATOM      7  O2  UNL     1      14.087  -1.023   0.853 +0.00 -0.00    -0.274 OA 
DOCKED: ATOM      8  H19 UNL     1      12.251   1.217  -0.427 +0.00 +0.00    +0.149 HD 
DOCKED: BRANCH   6   9
DOCKED: ATOM      9  C15 UNL     1      14.569   1.335   0.553 +0.00 +0.00    +0.156 C  
DOCKED: ATOM     10  C16 UNL     1      15.369   1.563  -0.724 +0.00 +0.00    +0.038 C  
DOCKED: BRANCH   9  11
DOCKED: ATOM     11  N2  UNL     1      15.446   1.145   1.698 +0.00 -0.00    -0.302 N  
DOCKED: ATOM     12  C17 UNL     1      16.030   2.186   2.365 +0.00 +0.00    +0.242 C  
DOCKED: ATOM     13  O3  UNL     1      15.970   3.349   1.981 +0.00 -0.00    -0.273 OA 
DOCKED: ATOM     14  H24 UNL     1      15.433   0.230   2.151 +0.00 +0.00    +0.150 HD 
DOCKED: BRANCH  12  15
DOCKED: ATOM     15  C18 UNL     1      16.777   1.767   3.650 +0.00 +0.00    +0.202 C  
DOCKED: BRANCH  15  16
DOCKED: ATOM     16  C19 UNL     1      18.296   1.592   3.464 +0.00 +0.00    +0.020 C  
DOCKED: ATOM     17  C20 UNL     1      18.736   1.881   2.032 +0.00 +0.00    +0.010 C  
DOCKED: ATOM     18  C21 UNL     1      18.823   0.228   3.918 +0.00 +0.00    +0.010 C  
DOCKED: ENDBRANCH  15  16
DOCKED: BRANCH  15  19
DOCKED: ATOM     19  O4  UNL     1      16.241   0.540   4.158 +0.00 -0.00    -0.382 OA 
DOCKED: ATOM     20  H26 UNL     1      15.304   0.703   4.377 +0.00 +0.00    +0.210 HD 
DOCKED: ENDBRANCH  15  19
DOCKED: ENDBRANCH  12  15
DOCKED: ENDBRANCH   9  11
DOCKED: ENDBRANCH   6   9
DOCKED: ENDBRANCH   4   5
DOCKED: BRANCH   4  21
DOCKED: ATOM     21  C7  UNL     1      11.946  -1.987  -1.246 +0.00 +0.00    +0.060 C  
DOCKED: BRANCH  21  22
DOCKED: ATOM     22  C8  UNL     1      12.835  -1.555  -2.394 +0.00 -0.00    -0.046 A  
DOCKED: ATOM     23  C9  UNL     1      12.470  -0.476  -3.209 +0.00 +0.00    +0.004 A  
DOCKED: ATOM     24  C10 UNL     1      13.318  -0.045  -4.233 +0.00 +0.00    +0.000 A  
DOCKED: ATOM     25  C11 UNL     1      14.538  -0.686  -4.451 +0.00 +0.00    +0.000 A  
DOCKED: ATOM     26  C12 UNL     1      14.908  -1.763  -3.648 +0.00 +0.00    +0.000 A  
DOCKED: ATOM     27  C13 UNL     1      14.062  -2.196  -2.627 +0.00 +0.00    +0.004 A  
DOCKED: ENDBRANCH  21  22
DOCKED: ENDBRANCH   4  21
DOCKED: ENDBRANCH   1   4
DOCKED: BRANCH   1  28
DOCKED: ATOM     28  C4  UNL     1      10.700  -0.106   2.117 +0.00 +0.00    +0.046 C  
DOCKED: BRANCH  28  29
DOCKED: ATOM     29  C3  UNL     1      11.689   1.029   2.523 +0.00 +0.00    +0.077 C  
DOCKED: BRANCH  29  30
DOCKED: ATOM     30  C22 UNL     1      12.761   0.579   3.532 +0.00 +0.00    +0.217 C  
DOCKED: ATOM     31  O5  UNL     1      13.239   1.360   4.353 +0.00 -0.00    -0.275 OA 
DOCKED: ATOM     32  N3  UNL     1      13.080  -0.748   3.525 +0.00 -0.00    -0.304 N  
DOCKED: ATOM     33  H34 UNL     1      12.909  -1.260   2.668 +0.00 +0.00    +0.149 HD 
DOCKED: BRANCH  32  34
DOCKED: ATOM     34  C23 UNL     1      14.138  -1.314   4.371 +0.00 +0.00    +0.161 C  
DOCKED: BRANCH  34  35
DOCKED: ATOM     35  C24 UNL     1      15.014  -2.125   3.378 +0.00 +0.00    +0.234 C  
DOCKED: ATOM     36  O6  UNL     1      14.503  -2.826   2.500 +0.00 -0.00    -0.274 OA 
DOCKED: ATOM     37  N4  UNL     1      16.371  -1.996   3.545 +0.00 -0.00    -0.307 N  
DOCKED: ATOM     38  H36 UNL     1      16.713  -1.552   4.390 +0.00 +0.00    +0.149 HD 
DOCKED: BRANCH  37  39
DOCKED: ATOM     39  C25 UNL     1      17.327  -2.799   2.796 +0.00 +0.00    +0.100 C  
DOCKED: ATOM     40  C26 UNL     1      17.032  -4.286   2.983 +0.00 +0.00    +0.033 C  
DOCKED: BRANCH  39  41
DOCKED: ATOM     41  C27 UNL     1      17.316  -2.386   1.333 +0.00 -0.00    -0.027 A  
DOCKED: ATOM     42  C28 UNL     1      17.760  -1.105   0.971 +0.00 +0.00    +0.005 A  
DOCKED: ATOM     43  C29 UNL     1      17.772  -0.705  -0.367 +0.00 +0.00    +0.000 A  
DOCKED: ATOM     44  C30 UNL     1      17.312  -1.567  -1.360 +0.00 +0.00    +0.000 A  
DOCKED: ATOM     45  C31 UNL     1      16.851  -2.838  -1.019 +0.00 +0.00    +0.000 A  
DOCKED: ATOM     46  C32 UNL     1      16.852  -3.246   0.319 +0.00 +0.00    +0.005 A  
DOCKED: ENDBRANCH  39  41
DOCKED: ENDBRANCH  37  39
DOCKED: ENDBRANCH  34  35
DOCKED: BRANCH  34  47
DOCKED: ATOM     47  C33 UNL     1      13.595  -2.208   5.523 +0.00 +0.00    +0.012 C  
DOCKED: ATOM     48  C34 UNL     1      12.068  -2.351   5.438 +0.00 +0.00    +0.009 C  
DOCKED: ATOM     49  C35 UNL     1      14.202  -3.617   5.574 +0.00 +0.00    +0.009 C  
DOCKED: ENDBRANCH  34  47
DOCKED: ENDBRANCH  32  34
DOCKED: ENDBRANCH  29  30
DOCKED: BRANCH  29  51
DOCKED: ATOM     50  C1  UNL     1      11.910   3.578   2.457 +0.00 +0.00    +0.004 C  
DOCKED: ATOM     51  C2  UNL     1      11.081   2.381   2.921 +0.00 +0.00    +0.009 C  
DOCKED: ENDBRANCH  29  51
DOCKED: ENDBRANCH  28  29
DOCKED: ENDBRANCH   1  28
DOCKED: TORSDOF 19
DOCKED: TER
DOCKED: ENDMDL
________________________________________________________________________________


    FINAL DOCKED STATE:
    ________________________


Run:   7 / 20
Time taken for this run:   0.685s

DOCKED: MODEL        7
DOCKED: USER    Run = 7
DOCKED: USER
DOCKED: USER    Estimated Free Energy of Binding    =  +5.67 kcal/mol  [=(1)+(2)+(3)-(4)]
DOCKED: USER
DOCKED: USER    (1) Final Intermolecular Energy     =  +0.00 kcal/mol
DOCKED: USER        vdW + Hbond + desolv Energy     =  +0.00 kcal/mol
DOCKED: USER        Electrostatic Energy            =  +0.00 kcal/mol
DOCKED: USER        Moving Ligand-Fixed Receptor    =  +0.00 kcal/mol
DOCKED: USER        Moving Ligand-Moving Receptor   =  +0.00 kcal/mol
DOCKED: USER    (2) Final Total Internal Energy     = -13.29 kcal/mol
DOCKED: USER    (3) Torsional Free Energy           =  +5.67 kcal/mol
DOCKED: USER    (4) Unbound System's Energy         = -13.29 kcal/mol
DOCKED: USER
DOCKED: USER
DOCKED: REMARK  Name = ligands/ligand_18.pdb
DOCKED: REMARK  26 active torsions:
DOCKED: REMARK  status: ('A' for Active; 'I' for Inactive)
DOCKED: REMARK    1  A    between atoms: C1_1  and  C2_2
DOCKED: REMARK    2  A    between atoms: C2_2  and  C3_3
DOCKED: REMARK    3  A    between atoms: C3_3  and  C4_4
DOCKED: REMARK    4  A    between atoms: C3_3  and  C22_28
DOCKED: REMARK    5  A    between atoms: C4_4  and  C5_5
DOCKED: REMARK    6  A    between atoms: C5_5  and  O1_6
DOCKED: REMARK    7  A    between atoms: C5_5  and  C6_7
DOCKED: REMARK    8  A    between atoms: C6_7  and  C7_8
DOCKED: REMARK    9  A    between atoms: C6_7  and  N1_15
DOCKED: REMARK   10  A    between atoms: C7_8  and  C8_9
DOCKED: REMARK   11  A    between atoms: C14_16  and  C15_18
DOCKED: REMARK   12  A    between atoms: C15_18  and  C16_19
DOCKED: REMARK   13  A    between atoms: C15_18  and  N2_20
DOCKED: REMARK   14  A    between atoms: C17_21  and  C18_23
DOCKED: REMARK   15  A    between atoms: C18_23  and  O4_24
DOCKED: REMARK   16  A    between atoms: C18_23  and  C19_25
DOCKED: REMARK   17  A    between atoms: C19_25  and  C20_26
DOCKED: REMARK   18  A    between atoms: C19_25  and  C21_27
DOCKED: REMARK   19  A    between atoms: N3_30  and  C23_31
DOCKED: REMARK   20  A    between atoms: C23_31  and  C24_32
DOCKED: REMARK   21  A    between atoms: C23_31  and  C33_43
DOCKED: REMARK   22  A    between atoms: N4_34  and  C25_35
DOCKED: REMARK   23  A    between atoms: C25_35  and  C26_36
DOCKED: REMARK   24  A    between atoms: C25_35  and  C27_37
DOCKED: REMARK   25  A    between atoms: C33_43  and  C34_44
DOCKED: REMARK   26  A    between atoms: C33_43  and  C35_45
DOCKED: REMARK                            x       y       z     vdW  Elec       q    Type
DOCKED: REMARK                         _______ _______ _______ _____ _____    ______ ____
DOCKED: USER                              x       y       z     vdW  Elec       q    Type
DOCKED: USER                           _______ _______ _______ _____ _____    ______ ____
DOCKED: ROOT
DOCKED: ATOM      1  C5  UNL     1      11.413  -3.660   2.718 +0.00 +0.00    +0.136 C  
DOCKED: ENDROOT
DOCKED: BRANCH   1   2
DOCKED: ATOM      2  O1  UNL     1      11.984  -2.850   3.741 +0.00 -0.00    -0.390 OA 
DOCKED: ATOM      3  H10 UNL     1      11.983  -1.933   3.416 +0.00 +0.00    +0.210 HD 
DOCKED: ENDBRANCH   1   2
DOCKED: BRANCH   1   4
DOCKED: ATOM      4  C6  UNL     1      11.135  -2.812   1.446 +0.00 +0.00    +0.106 C  
DOCKED: BRANCH   4   5
DOCKED: ATOM      5  N1  UNL     1       9.821  -2.167   1.518 +0.00 -0.00    -0.308 N  
DOCKED: ATOM      6  C14 UNL     1       8.975  -2.158   0.431 +0.00 +0.00    +0.233 C  
DOCKED: ATOM      7  O2  UNL     1       9.177  -2.815  -0.592 +0.00 -0.00    -0.274 OA 
DOCKED: ATOM      8  H19 UNL     1       9.648  -1.452   2.228 +0.00 +0.00    +0.149 HD 
DOCKED: BRANCH   6   9
DOCKED: ATOM      9  C15 UNL     1       7.730  -1.276   0.602 +0.00 +0.00    +0.156 C  
DOCKED: ATOM     10  C16 UNL     1       7.351  -0.658  -0.738 +0.00 +0.00    +0.038 C  
DOCKED: BRANCH   9  11
DOCKED: ATOM     11  N2  UNL     1       8.054  -0.251   1.582 +0.00 -0.00    -0.302 N  
DOCKED: ATOM     12  C17 UNL     1       7.227   0.803   1.853 +0.00 +0.00    +0.242 C  
DOCKED: ATOM     13  O3  UNL     1       6.213   1.045   1.208 +0.00 -0.00    -0.273 OA 
DOCKED: ATOM     14  H24 UNL     1       8.804  -0.457   2.245 +0.00 +0.00    +0.150 HD 
DOCKED: BRANCH  12  15
DOCKED: ATOM     15  C18 UNL     1       7.685   1.669   3.047 +0.00 +0.00    +0.202 C  
DOCKED: BRANCH  15  16
DOCKED: ATOM     16  C19 UNL     1       8.531   2.892   2.648 +0.00 +0.00    +0.020 C  
DOCKED: ATOM     17  C20 UNL     1       8.377   3.239   1.170 +0.00 +0.00    +0.010 C  
DOCKED: ATOM     18  C21 UNL     1      10.013   2.766   3.012 +0.00 +0.00    +0.010 C  
DOCKED: ENDBRANCH  15  16
DOCKED: BRANCH  15  19
DOCKED: ATOM     19  O4  UNL     1       8.441   0.879   3.972 +0.00 -0.00    -0.382 OA 
DOCKED: ATOM     20  H26 UNL     1       8.491  -0.025   3.606 +0.00 +0.00    +0.210 HD 
DOCKED: ENDBRANCH  15  19
DOCKED: ENDBRANCH  12  15
DOCKED: ENDBRANCH   9  11
DOCKED: ENDBRANCH   6   9
DOCKED: ENDBRANCH   4   5
DOCKED: BRANCH   4  21
DOCKED: ATOM     21  C7  UNL     1      12.260  -1.847   1.025 +0.00 +0.00    +0.060 C  
DOCKED: BRANCH  21  22
DOCKED: ATOM     22  C8  UNL     1      11.768  -0.699   0.169 +0.00 -0.00    -0.046 A  
DOCKED: ATOM     23  C9  UNL     1      11.583  -0.866  -1.208 +0.00 +0.00    +0.004 A  
DOCKED: ATOM     24  C10 UNL     1      11.076   0.178  -1.987 +0.00 +0.00    +0.000 A  
DOCKED: ATOM     25  C11 UNL     1      10.749   1.399  -1.396 +0.00 +0.00    +0.000 A  
DOCKED: ATOM     26  C12 UNL     1      10.934   1.577  -0.026 +0.00 +0.00    +0.000 A  
DOCKED: ATOM     27  C13 UNL     1      11.442   0.537   0.751 +0.00 +0.00    +0.004 A  
DOCKED: ENDBRANCH  21  22
DOCKED: ENDBRANCH   4  21
DOCKED: ENDBRANCH   1   4
DOCKED: BRANCH   1  28
DOCKED: ATOM     28  C4  UNL     1      10.303  -4.582   3.281 +0.00 +0.00    +0.046 C  
DOCKED: BRANCH  28  29
DOCKED: ATOM     29  C3  UNL     1       9.020  -4.054   3.993 +0.00 +0.00    +0.077 C  
DOCKED: BRANCH  29  30
DOCKED: ATOM     30  C22 UNL     1       9.100  -2.567   4.381 +0.00 +0.00    +0.217 C  
DOCKED: ATOM     31  O5  UNL     1       8.330  -1.736   3.903 +0.00 -0.00    -0.275 OA 
DOCKED: ATOM     32  N3  UNL     1      10.006  -2.241   5.349 +0.00 -0.00    -0.304 N  
DOCKED: ATOM     33  H34 UNL     1      10.795  -2.865   5.472 +0.00 +0.00    +0.149 HD 
DOCKED: BRANCH  32  34
DOCKED: ATOM     34  C23 UNL     1      10.255  -0.857   5.768 +0.00 +0.00    +0.161 C  
DOCKED: BRANCH  34  35
DOCKED: ATOM     35  C24 UNL     1      10.991  -0.227   4.554 +0.00 +0.00    +0.234 C  
DOCKED: ATOM     36  O6  UNL     1      10.617  -0.443   3.398 +0.00 -0.00    -0.274 OA 
DOCKED: ATOM     37  N4  UNL     1      12.059   0.579   4.863 +0.00 -0.00    -0.307 N  
DOCKED: ATOM     38  H36 UNL     1      12.414   0.566   5.813 +0.00 +0.00    +0.149 HD 
DOCKED: BRANCH  37  39
DOCKED: ATOM     39  C25 UNL     1      12.942   1.126   3.843 +0.00 +0.00    +0.100 C  
DOCKED: ATOM     40  C26 UNL     1      13.612   2.402   4.350 +0.00 +0.00    +0.033 C  
DOCKED: BRANCH  39  41
DOCKED: ATOM     41  C27 UNL     1      13.951   0.073   3.414 +0.00 -0.00    -0.027 A  
DOCKED: ATOM     42  C28 UNL     1      14.593   0.193   2.172 +0.00 +0.00    +0.005 A  
DOCKED: ATOM     43  C29 UNL     1      15.533  -0.754   1.760 +0.00 +0.00    +0.000 A  
DOCKED: ATOM     44  C30 UNL     1      15.823  -1.850   2.568 +0.00 +0.00    +0.000 A  
DOCKED: ATOM     45  C31 UNL     1      15.183  -1.997   3.798 +0.00 +0.00    +0.000 A  
DOCKED: ATOM     46  C32 UNL     1      14.252  -1.042   4.219 +0.00 +0.00    +0.005 A  
DOCKED: ENDBRANCH  39  41
DOCKED: ENDBRANCH  37  39
DOCKED: ENDBRANCH  34  35
DOCKED: BRANCH  34  47
DOCKED: ATOM     47  C33 UNL     1      11.098  -0.749   7.072 +0.00 +0.00    +0.012 C  
DOCKED: ATOM     48  C34 UNL     1      10.231  -1.006   8.312 +0.00 +0.00    +0.009 C  
DOCKED: ATOM     49  C35 UNL     1      12.303  -1.699   7.129 +0.00 +0.00    +0.009 C  
DOCKED: ENDBRANCH  34  47
DOCKED: ENDBRANCH  32  34
DOCKED: ENDBRANCH  29  30
DOCKED: BRANCH  29  51
DOCKED: ATOM     50  C1  UNL     1       9.508  -5.308   6.170 +0.00 +0.00    +0.004 C  
DOCKED: ATOM     51  C2  UNL     1       8.454  -4.901   5.140 +0.00 +0.00    +0.009 C  
DOCKED: ENDBRANCH  29  51
DOCKED: ENDBRANCH  28  29
DOCKED: ENDBRANCH   1  28
DOCKED: TORSDOF 19
DOCKED: TER
DOCKED: ENDMDL
________________________________________________________________________________


    FINAL DOCKED STATE:
    ________________________


Run:   8 / 20
Time taken for this run:   0.685s

DOCKED: MODEL        8
DOCKED: USER    Run = 8
DOCKED: USER
DOCKED: USER    Estimated Free Energy of Binding    =  +5.67 kcal/mol  [=(1)+(2)+(3)-(4)]
DOCKED: USER
DOCKED: USER    (1) Final Intermolecular Energy     =  +0.00 kcal/mol
DOCKED: USER        vdW + Hbond + desolv Energy     =  +0.00 kcal/mol
DOCKED: USER        Electrostatic Energy            =  +0.00 kcal/mol
DOCKED: USER        Moving Ligand-Fixed Receptor    =  +0.00 kcal/mol
DOCKED: USER        Moving Ligand-Moving Receptor   =  +0.00 kcal/mol
DOCKED: USER    (2) Final Total Internal Energy     = -13.02 kcal/mol
DOCKED: USER    (3) Torsional Free Energy           =  +5.67 kcal/mol
DOCKED: USER    (4) Unbound System's Energy         = -13.02 kcal/mol
DOCKED: USER
DOCKED: USER
DOCKED: REMARK  Name = ligands/ligand_18.pdb
DOCKED: REMARK  26 active torsions:
DOCKED: REMARK  status: ('A' for Active; 'I' for Inactive)
DOCKED: REMARK    1  A    between atoms: C1_1  and  C2_2
DOCKED: REMARK    2  A    between atoms: C2_2  and  C3_3
DOCKED: REMARK    3  A    between atoms: C3_3  and  C4_4
DOCKED: REMARK    4  A    between atoms: C3_3  and  C22_28
DOCKED: REMARK    5  A    between atoms: C4_4  and  C5_5
DOCKED: REMARK    6  A    between atoms: C5_5  and  O1_6
DOCKED: REMARK    7  A    between atoms: C5_5  and  C6_7
DOCKED: REMARK    8  A    between atoms: C6_7  and  C7_8
DOCKED: REMARK    9  A    between atoms: C6_7  and  N1_15
DOCKED: REMARK   10  A    between atoms: C7_8  and  C8_9
DOCKED: REMARK   11  A    between atoms: C14_16  and  C15_18
DOCKED: REMARK   12  A    between atoms: C15_18  and  C16_19
DOCKED: REMARK   13  A    between atoms: C15_18  and  N2_20
DOCKED: REMARK   14  A    between atoms: C17_21  and  C18_23
DOCKED: REMARK   15  A    between atoms: C18_23  and  O4_24
DOCKED: REMARK   16  A    between atoms: C18_23  and  C19_25
DOCKED: REMARK   17  A    between atoms: C19_25  and  C20_26
DOCKED: REMARK   18  A    between atoms: C19_25  and  C21_27
DOCKED: REMARK   19  A    between atoms: N3_30  and  C23_31
DOCKED: REMARK   20  A    between atoms: C23_31  and  C24_32
DOCKED: REMARK   21  A    between atoms: C23_31  and  C33_43
DOCKED: REMARK   22  A    between atoms: N4_34  and  C25_35
DOCKED: REMARK   23  A    between atoms: C25_35  and  C26_36
DOCKED: REMARK   24  A    between atoms: C25_35  and  C27_37
DOCKED: REMARK   25  A    between atoms: C33_43  and  C34_44
DOCKED: REMARK   26  A    between atoms: C33_43  and  C35_45
DOCKED: REMARK                            x       y       z     vdW  Elec       q    Type
DOCKED: REMARK                         _______ _______ _______ _____ _____    ______ ____
DOCKED: USER                              x       y       z     vdW  Elec       q    Type
DOCKED: USER                           _______ _______ _______ _____ _____    ______ ____
DOCKED: ROOT
DOCKED: ATOM      1  C5  UNL     1       9.771 -10.236   0.506 +0.00 +0.00    +0.136 C  
DOCKED: ENDROOT
DOCKED: BRANCH   1   2
DOCKED: ATOM      2  O1  UNL     1      10.588 -10.101   1.664 +0.00 -0.00    -0.390 OA 
DOCKED: ATOM      3  H10 UNL     1      10.869  -9.170   1.711 +0.00 +0.00    +0.210 HD 
DOCKED: ENDBRANCH   1   2
DOCKED: BRANCH   1   4
DOCKED: ATOM      4  C6  UNL     1      10.066  -9.092  -0.504 +0.00 +0.00    +0.106 C  
DOCKED: BRANCH   4   5
DOCKED: ATOM      5  N1  UNL     1       9.224  -7.922  -0.235 +0.00 -0.00    -0.308 N  
DOCKED: ATOM      6  C14 UNL     1       8.710  -7.167  -1.267 +0.00 +0.00    +0.233 C  
DOCKED: ATOM      7  O2  UNL     1       8.772  -7.503  -2.450 +0.00 -0.00    -0.274 OA 
DOCKED: ATOM      8  H19 UNL     1       9.275  -7.461   0.676 +0.00 +0.00    +0.149 HD 
DOCKED: BRANCH   6   9
DOCKED: ATOM      9  C15 UNL     1       8.021  -5.869  -0.822 +0.00 +0.00    +0.156 C  
DOCKED: ATOM     10  C16 UNL     1       8.147  -4.819  -1.919 +0.00 +0.00    +0.038 C  
DOCKED: BRANCH   9  11
DOCKED: ATOM     11  N2  UNL     1       8.667  -5.431   0.405 +0.00 -0.00    -0.302 N  
DOCKED: ATOM     12  C17 UNL     1       8.565  -4.154   0.882 +0.00 +0.00    +0.242 C  
DOCKED: ATOM     13  O3  UNL     1       8.033  -3.243   0.256 +0.00 -0.00    -0.273 OA 
DOCKED: ATOM     14  H24 UNL     1       9.008  -6.156   1.040 +0.00 +0.00    +0.150 HD 
DOCKED: BRANCH  12  15
DOCKED: ATOM     15  C18 UNL     1       9.183  -3.955   2.283 +0.00 +0.00    +0.202 C  
DOCKED: BRANCH  15  16
DOCKED: ATOM     16  C19 UNL     1      10.694  -3.656   2.266 +0.00 +0.00    +0.020 C  
DOCKED: ATOM     17  C20 UNL     1      11.304  -3.705   3.664 +0.00 +0.00    +0.010 C  
DOCKED: ATOM     18  C21 UNL     1      11.057  -2.339   1.573 +0.00 +0.00    +0.010 C  
DOCKED: ENDBRANCH  15  16
DOCKED: BRANCH  15  19
DOCKED: ATOM     19  O4  UNL     1       8.962  -5.116   3.091 +0.00 -0.00    -0.382 OA 
DOCKED: ATOM     20  H26 UNL     1       8.959  -5.889   2.494 +0.00 +0.00    +0.210 HD 
DOCKED: ENDBRANCH  15  19
DOCKED: ENDBRANCH  12  15
DOCKED: ENDBRANCH   9  11
DOCKED: ENDBRANCH   6   9
DOCKED: ENDBRANCH   4   5
DOCKED: BRANCH   4  21
DOCKED: ATOM     21  C7  UNL     1      11.552  -8.735  -0.697 +0.00 +0.00    +0.060 C  
DOCKED: BRANCH  21  22
DOCKED: ATOM     22  C8  UNL     1      11.767  -7.303  -1.140 +0.00 -0.00    -0.046 A  
DOCKED: ATOM     23  C9  UNL     1      11.883  -6.989  -2.500 +0.00 +0.00    +0.004 A  
DOCKED: ATOM     24  C10 UNL     1      12.026  -5.660  -2.909 +0.00 +0.00    +0.000 A  
DOCKED: ATOM     25  C11 UNL     1      12.053  -4.634  -1.965 +0.00 +0.00    +0.000 A  
DOCKED: ATOM     26  C12 UNL     1      11.942  -4.937  -0.610 +0.00 +0.00    +0.000 A  
DOCKED: ATOM     27  C13 UNL     1      11.802  -6.262  -0.199 +0.00 +0.00    +0.004 A  
DOCKED: ENDBRANCH  21  22
DOCKED: ENDBRANCH   4  21
DOCKED: ENDBRANCH   1   4
DOCKED: BRANCH   1  28
DOCKED: ATOM     28  C4  UNL     1       8.305 -10.565   0.883 +0.00 +0.00    +0.046 C  
DOCKED: BRANCH  28  29
DOCKED: ATOM     29  C3  UNL     1       7.286  -9.502   1.396 +0.00 +0.00    +0.077 C  
DOCKED: BRANCH  29  30
DOCKED: ATOM     30  C22 UNL     1       7.920  -8.427   2.297 +0.00 +0.00    +0.217 C  
DOCKED: ATOM     31  O5  UNL     1       7.647  -7.235   2.163 +0.00 -0.00    -0.275 OA 
DOCKED: ATOM     32  N3  UNL     1       8.722  -8.877   3.305 +0.00 -0.00    -0.304 N  
DOCKED: ATOM     33  H34 UNL     1       9.150  -9.787   3.183 +0.00 +0.00    +0.149 HD 
DOCKED: BRANCH  32  34
DOCKED: ATOM     34  C23 UNL     1       9.459  -7.972   4.195 +0.00 +0.00    +0.161 C  
DOCKED: BRANCH  34  35
DOCKED: ATOM     35  C24 UNL     1      10.616  -7.438   3.307 +0.00 +0.00    +0.234 C  
DOCKED: ATOM     36  O6  UNL     1      10.494  -7.351   2.082 +0.00 -0.00    -0.274 OA 
DOCKED: ATOM     37  N4  UNL     1      11.755  -7.068   3.979 +0.00 -0.00    -0.307 N  
DOCKED: ATOM     38  H36 UNL     1      11.848  -7.334   4.954 +0.00 +0.00    +0.149 HD 
DOCKED: BRANCH  37  39
DOCKED: ATOM     39  C25 UNL     1      12.979  -6.687   3.287 +0.00 +0.00    +0.100 C  
DOCKED: ATOM     40  C26 UNL     1      14.006  -6.151   4.282 +0.00 +0.00    +0.033 C  
DOCKED: BRANCH  39  41
DOCKED: ATOM     41  C27 UNL     1      13.508  -7.865   2.486 +0.00 -0.00    -0.027 A  
DOCKED: ATOM     42  C28 UNL     1      14.286  -7.633   1.342 +0.00 +0.00    +0.005 A  
DOCKED: ATOM     43  C29 UNL     1      14.795  -8.698   0.595 +0.00 +0.00    +0.000 A  
DOCKED: ATOM     44  C30 UNL     1      14.510 -10.010   0.964 +0.00 +0.00    +0.000 A  
DOCKED: ATOM     45  C31 UNL     1      13.725 -10.262   2.088 +0.00 +0.00    +0.000 A  
DOCKED: ATOM     46  C32 UNL     1      13.226  -9.197   2.845 +0.00 +0.00    +0.005 A  
DOCKED: ENDBRANCH  39  41
DOCKED: ENDBRANCH  37  39
DOCKED: ENDBRANCH  34  35
DOCKED: BRANCH  34  47
DOCKED: ATOM     47  C33 UNL     1       9.994  -8.671   5.479 +0.00 +0.00    +0.012 C  
DOCKED: ATOM     48  C34 UNL     1      11.137  -9.640   5.144 +0.00 +0.00    +0.009 C  
DOCKED: ATOM     49  C35 UNL     1      10.490  -7.708   6.567 +0.00 +0.00    +0.009 C  
DOCKED: ENDBRANCH  34  47
DOCKED: ENDBRANCH  32  34
DOCKED: ENDBRANCH  29  30
DOCKED: BRANCH  29  51
DOCKED: ATOM     50  C1  UNL     1       6.138 -10.694   3.348 +0.00 +0.00    +0.004 C  
DOCKED: ATOM     51  C2  UNL     1       5.968 -10.020   1.987 +0.00 +0.00    +0.009 C  
DOCKED: ENDBRANCH  29  51
DOCKED: ENDBRANCH  28  29
DOCKED: ENDBRANCH   1  28
DOCKED: TORSDOF 19
DOCKED: TER
DOCKED: ENDMDL
________________________________________________________________________________


    FINAL DOCKED STATE:
    ________________________


Run:   9 / 20
Time taken for this run:   0.685s

DOCKED: MODEL        9
DOCKED: USER    Run = 9
DOCKED: USER
DOCKED: USER    Estimated Free Energy of Binding    =  +5.67 kcal/mol  [=(1)+(2)+(3)-(4)]
DOCKED: USER
DOCKED: USER    (1) Final Intermolecular Energy     =  +0.00 kcal/mol
DOCKED: USER        vdW + Hbond + desolv Energy     =  +0.00 kcal/mol
DOCKED: USER        Electrostatic Energy            =  +0.00 kcal/mol
DOCKED: USER        Moving Ligand-Fixed Receptor    =  +0.00 kcal/mol
DOCKED: USER        Moving Ligand-Moving Receptor   =  +0.00 kcal/mol
DOCKED: USER    (2) Final Total Internal Energy     = -13.06 kcal/mol
DOCKED: USER    (3) Torsional Free Energy           =  +5.67 kcal/mol
DOCKED: USER    (4) Unbound System's Energy         = -13.06 kcal/mol
DOCKED: USER
DOCKED: USER
DOCKED: REMARK  Name = ligands/ligand_18.pdb
DOCKED: REMARK  26 active torsions:
DOCKED: REMARK  status: ('A' for Active; 'I' for Inactive)
DOCKED: REMARK    1  A    between atoms: C1_1  and  C2_2
DOCKED: REMARK    2  A    between atoms: C2_2  and  C3_3
DOCKED: REMARK    3  A    between atoms: C3_3  and  C4_4
DOCKED: REMARK    4  A    between atoms: C3_3  and  C22_28
DOCKED: REMARK    5  A    between atoms: C4_4  and  C5_5
DOCKED: REMARK    6  A    between atoms: C5_5  and  O1_6
DOCKED: REMARK    7  A    between atoms: C5_5  and  C6_7
DOCKED: REMARK    8  A    between atoms: C6_7  and  C7_8
DOCKED: REMARK    9  A    between atoms: C6_7  and  N1_15
DOCKED: REMARK   10  A    between atoms: C7_8  and  C8_9
DOCKED: REMARK   11  A    between atoms: C14_16  and  C15_18
DOCKED: REMARK   12  A    between atoms: C15_18  and  C16_19
DOCKED: REMARK   13  A    between atoms: C15_18  and  N2_20
DOCKED: REMARK   14  A    between atoms: C17_21  and  C18_23
DOCKED: REMARK   15  A    between atoms: C18_23  and  O4_24
DOCKED: REMARK   16  A    between atoms: C18_23  and  C19_25
DOCKED: REMARK   17  A    between atoms: C19_25  and  C20_26
DOCKED: REMARK   18  A    between atoms: C19_25  and  C21_27
DOCKED: REMARK   19  A    between atoms: N3_30  and  C23_31
DOCKED: REMARK   20  A    between atoms: C23_31  and  C24_32
DOCKED: REMARK   21  A    between atoms: C23_31  and  C33_43
DOCKED: REMARK   22  A    between atoms: N4_34  and  C25_35
DOCKED: REMARK   23  A    between atoms: C25_35  and  C26_36
DOCKED: REMARK   24  A    between atoms: C25_35  and  C27_37
DOCKED: REMARK   25  A    between atoms: C33_43  and  C34_44
DOCKED: REMARK   26  A    between atoms: C33_43  and  C35_45
DOCKED: REMARK                            x       y       z     vdW  Elec       q    Type
DOCKED: REMARK                         _______ _______ _______ _____ _____    ______ ____
DOCKED: USER                              x       y       z     vdW  Elec       q    Type
DOCKED: USER                           _______ _______ _______ _____ _____    ______ ____
DOCKED: ROOT
DOCKED: ATOM      1  C5  UNL     1       8.392  -7.844   0.050 +0.00 +0.00    +0.136 C  
DOCKED: ENDROOT
DOCKED: BRANCH   1   2
DOCKED: ATOM      2  O1  UNL     1       7.660  -7.817   1.271 +0.00 -0.00    -0.390 OA 
DOCKED: ATOM      3  H10 UNL     1       7.018  -7.088   1.206 +0.00 +0.00    +0.210 HD 
DOCKED: ENDBRANCH   1   2
DOCKED: BRANCH   1   4
DOCKED: ATOM      4  C6  UNL     1       9.002  -6.447  -0.250 +0.00 +0.00    +0.106 C  
DOCKED: BRANCH   4   5
DOCKED: ATOM      5  N1  UNL     1       8.195  -5.379   0.348 +0.00 -0.00    -0.308 N  
DOCKED: ATOM      6  C14 UNL     1       8.692  -4.100   0.471 +0.00 +0.00    +0.233 C  
DOCKED: ATOM      7  O2  UNL     1       9.745  -3.728  -0.047 +0.00 -0.00    -0.274 OA 
DOCKED: ATOM      8  H19 UNL     1       7.416  -5.620   0.964 +0.00 +0.00    +0.149 HD 
DOCKED: BRANCH   6   9
DOCKED: ATOM      9  C15 UNL     1       7.807  -3.152   1.294 +0.00 +0.00    +0.156 C  
DOCKED: ATOM     10  C16 UNL     1       8.679  -2.310   2.219 +0.00 +0.00    +0.038 C  
DOCKED: BRANCH   9  11
DOCKED: ATOM     11  N2  UNL     1       6.876  -3.973   2.052 +0.00 -0.00    -0.302 N  
DOCKED: ATOM     12  C17 UNL     1       5.571  -4.148   1.682 +0.00 +0.00    +0.242 C  
DOCKED: ATOM     13  O3  UNL     1       5.045  -3.530   0.763 +0.00 -0.00    -0.273 OA 
DOCKED: ATOM     14  H24 UNL     1       7.271  -4.617   2.740 +0.00 +0.00    +0.150 HD 
DOCKED: BRANCH  12  15
DOCKED: ATOM     15  C18 UNL     1       4.814  -5.194   2.528 +0.00 +0.00    +0.202 C  
DOCKED: BRANCH  15  16
DOCKED: ATOM     16  C19 UNL     1       4.326  -4.666   3.890 +0.00 +0.00    +0.020 C  
DOCKED: ATOM     17  C20 UNL     1       3.727  -3.267   3.783 +0.00 +0.00    +0.010 C  
DOCKED: ATOM     18  C21 UNL     1       5.393  -4.705   4.988 +0.00 +0.00    +0.010 C  
DOCKED: ENDBRANCH  15  16
DOCKED: BRANCH  15  19
DOCKED: ATOM     19  O4  UNL     1       5.642  -6.340   2.757 +0.00 -0.00    -0.382 OA 
DOCKED: ATOM     20  H26 UNL     1       5.880  -6.705   1.884 +0.00 +0.00    +0.210 HD 
DOCKED: ENDBRANCH  15  19
DOCKED: ENDBRANCH  12  15
DOCKED: ENDBRANCH   9  11
DOCKED: ENDBRANCH   6   9
DOCKED: ENDBRANCH   4   5
DOCKED: BRANCH   4  21
DOCKED: ATOM     21  C7  UNL     1      10.508  -6.298   0.036 +0.00 +0.00    +0.060 C  
DOCKED: BRANCH  21  22
DOCKED: ATOM     22  C8  UNL     1      11.376  -6.621  -1.163 +0.00 -0.00    -0.046 A  
DOCKED: ATOM     23  C9  UNL     1      11.259  -7.855  -1.814 +0.00 +0.00    +0.004 A  
DOCKED: ATOM     24  C10 UNL     1      12.020  -8.129  -2.954 +0.00 +0.00    +0.000 A  
DOCKED: ATOM     25  C11 UNL     1      12.905  -7.172  -3.453 +0.00 +0.00    +0.000 A  
DOCKED: ATOM     26  C12 UNL     1      13.031  -5.943  -2.809 +0.00 +0.00    +0.000 A  
DOCKED: ATOM     27  C13 UNL     1      12.274  -5.669  -1.671 +0.00 +0.00    +0.004 A  
DOCKED: ENDBRANCH  21  22
DOCKED: ENDBRANCH   4  21
DOCKED: ENDBRANCH   1   4
DOCKED: BRANCH   1  28
DOCKED: ATOM     28  C4  UNL     1       7.612  -8.593  -1.060 +0.00 +0.00    +0.046 C  
DOCKED: BRANCH  28  29
DOCKED: ATOM     29  C3  UNL     1       6.058  -8.729  -1.082 +0.00 +0.00    +0.077 C  
DOCKED: BRANCH  29  30
DOCKED: ATOM     30  C22 UNL     1       5.322  -7.383  -0.965 +0.00 +0.00    +0.217 C  
DOCKED: ATOM     31  O5  UNL     1       5.749  -6.477  -0.251 +0.00 -0.00    -0.275 OA 
DOCKED: ATOM     32  N3  UNL     1       4.229  -7.218  -1.766 +0.00 -0.00    -0.304 N  
DOCKED: ATOM     33  H34 UNL     1       3.754  -8.057  -2.078 +0.00 +0.00    +0.149 HD 
DOCKED: BRANCH  32  34
DOCKED: ATOM     34  C23 UNL     1       3.378  -6.024  -1.711 +0.00 +0.00    +0.161 C  
DOCKED: BRANCH  34  35
DOCKED: ATOM     35  C24 UNL     1       4.169  -4.966  -2.529 +0.00 +0.00    +0.234 C  
DOCKED: ATOM     36  O6  UNL     1       3.874  -4.712  -3.700 +0.00 -0.00    -0.274 OA 
DOCKED: ATOM     37  N4  UNL     1       5.192  -4.343  -1.857 +0.00 -0.00    -0.307 N  
DOCKED: ATOM     38  H36 UNL     1       5.489  -4.727  -0.966 +0.00 +0.00    +0.149 HD 
DOCKED: BRANCH  37  39
DOCKED: ATOM     39  C25 UNL     1       6.121  -3.437  -2.520 +0.00 +0.00    +0.100 C  
DOCKED: ATOM     40  C26 UNL     1       6.475  -2.273  -1.597 +0.00 +0.00    +0.033 C  
DOCKED: BRANCH  39  41
DOCKED: ATOM     41  C27 UNL     1       7.349  -4.204  -2.982 +0.00 -0.00    -0.027 A  
DOCKED: ATOM     42  C28 UNL     1       7.243  -5.573  -3.272 +0.00 +0.00    +0.005 A  
DOCKED: ATOM     43  C29 UNL     1       8.353  -6.299  -3.711 +0.00 +0.00    +0.000 A  
DOCKED: ATOM     44  C30 UNL     1       9.592  -5.674  -3.838 +0.00 +0.00    +0.000 A  
DOCKED: ATOM     45  C31 UNL     1       9.721  -4.319  -3.538 +0.00 +0.00    +0.000 A  
DOCKED: ATOM     46  C32 UNL     1       8.608  -3.588  -3.113 +0.00 +0.00    +0.005 A  
DOCKED: ENDBRANCH  39  41
DOCKED: ENDBRANCH  37  39
DOCKED: ENDBRANCH  34  35
DOCKED: BRANCH  34  47
DOCKED: ATOM     47  C33 UNL     1       3.094  -5.535  -0.261 +0.00 +0.00    +0.012 C  
DOCKED: ATOM     48  C34 UNL     1       2.276  -4.236  -0.267 +0.00 +0.00    +0.009 C  
DOCKED: ATOM     49  C35 UNL     1       2.359  -6.555   0.620 +0.00 +0.00    +0.009 C  
DOCKED: ENDBRANCH  34  47
DOCKED: ENDBRANCH  32  34
DOCKED: ENDBRANCH  29  30
DOCKED: BRANCH  29  51
DOCKED: ATOM     50  C1  UNL     1       4.744  -9.197   1.064 +0.00 +0.00    +0.004 C  
DOCKED: ATOM     51  C2  UNL     1       5.433  -9.789  -0.166 +0.00 +0.00    +0.009 C  
DOCKED: ENDBRANCH  29  51
DOCKED: ENDBRANCH  28  29
DOCKED: ENDBRANCH   1  28
DOCKED: TORSDOF 19
DOCKED: TER
DOCKED: ENDMDL
________________________________________________________________________________


    FINAL DOCKED STATE:
    ________________________


Run:   10 / 20
Time taken for this run:   0.685s

DOCKED: MODEL        10
DOCKED: USER    Run = 10
DOCKED: USER
DOCKED: USER    Estimated Free Energy of Binding    =  +5.67 kcal/mol  [=(1)+(2)+(3)-(4)]
DOCKED: USER
DOCKED: USER    (1) Final Intermolecular Energy     =  +0.00 kcal/mol
DOCKED: USER        vdW + Hbond + desolv Energy     =  +0.00 kcal/mol
DOCKED: USER        Electrostatic Energy            =  +0.00 kcal/mol
DOCKED: USER        Moving Ligand-Fixed Receptor    =  +0.00 kcal/mol
DOCKED: USER        Moving Ligand-Moving Receptor   =  +0.00 kcal/mol
DOCKED: USER    (2) Final Total Internal Energy     = -12.56 kcal/mol
DOCKED: USER    (3) Torsional Free Energy           =  +5.67 kcal/mol
DOCKED: USER    (4) Unbound System's Energy         = -12.56 kcal/mol
DOCKED: USER
DOCKED: USER
DOCKED: REMARK  Name = ligands/ligand_18.pdb
DOCKED: REMARK  26 active torsions:
DOCKED: REMARK  status: ('A' for Active; 'I' for Inactive)
DOCKED: REMARK    1  A    between atoms: C1_1  and  C2_2
DOCKED: REMARK    2  A    between atoms: C2_2  and  C3_3
DOCKED: REMARK    3  A    between atoms: C3_3  and  C4_4
DOCKED: REMARK    4  A    between atoms: C3_3  and  C22_28
DOCKED: REMARK    5  A    between atoms: C4_4  and  C5_5
DOCKED: REMARK    6  A    between atoms: C5_5  and  O1_6
DOCKED: REMARK    7  A    between atoms: C5_5  and  C6_7
DOCKED: REMARK    8  A    between atoms: C6_7  and  C7_8
DOCKED: REMARK    9  A    between atoms: C6_7  and  N1_15
DOCKED: REMARK   10  A    between atoms: C7_8  and  C8_9
DOCKED: REMARK   11  A    between atoms: C14_16  and  C15_18
DOCKED: REMARK   12  A    between atoms: C15_18  and  C16_19
DOCKED: REMARK   13  A    between atoms: C15_18  and  N2_20
DOCKED: REMARK   14  A    between atoms: C17_21  and  C18_23
DOCKED: REMARK   15  A    between atoms: C18_23  and  O4_24
DOCKED: REMARK   16  A    between atoms: C18_23  and  C19_25
DOCKED: REMARK   17  A    between atoms: C19_25  and  C20_26
DOCKED: REMARK   18  A    between atoms: C19_25  and  C21_27
DOCKED: REMARK   19  A    between atoms: N3_30  and  C23_31
DOCKED: REMARK   20  A    between atoms: C23_31  and  C24_32
DOCKED: REMARK   21  A    between atoms: C23_31  and  C33_43
DOCKED: REMARK   22  A    between atoms: N4_34  and  C25_35
DOCKED: REMARK   23  A    between atoms: C25_35  and  C26_36
DOCKED: REMARK   24  A    between atoms: C25_35  and  C27_37
DOCKED: REMARK   25  A    between atoms: C33_43  and  C34_44
DOCKED: REMARK   26  A    between atoms: C33_43  and  C35_45
DOCKED: REMARK                            x       y       z     vdW  Elec       q    Type
DOCKED: REMARK                         _______ _______ _______ _____ _____    ______ ____
DOCKED: USER                              x       y       z     vdW  Elec       q    Type
DOCKED: USER                           _______ _______ _______ _____ _____    ______ ____
DOCKED: ROOT
DOCKED: ATOM      1  C5  UNL     1       9.626  -4.239   3.486 +0.00 +0.00    +0.136 C  
DOCKED: ENDROOT
DOCKED: BRANCH   1   2
DOCKED: ATOM      2  O1  UNL     1      10.327  -3.227   4.201 +0.00 -0.00    -0.390 OA 
DOCKED: ATOM      3  H10 UNL     1      11.216  -3.161   3.809 +0.00 +0.00    +0.210 HD 
DOCKED: ENDBRANCH   1   2
DOCKED: BRANCH   1   4
DOCKED: ATOM      4  C6  UNL     1      10.425  -5.572   3.506 +0.00 +0.00    +0.106 C  
DOCKED: BRANCH   4   5
DOCKED: ATOM      5  N1  UNL     1      11.855  -5.333   3.290 +0.00 -0.00    -0.308 N  
DOCKED: ATOM      6  C14 UNL     1      12.525  -5.936   2.247 +0.00 +0.00    +0.233 C  
DOCKED: ATOM      7  O2  UNL     1      11.960  -6.562   1.350 +0.00 -0.00    -0.274 OA 
DOCKED: ATOM      8  H19 UNL     1      12.435  -5.000   4.063 +0.00 +0.00    +0.149 HD 
DOCKED: BRANCH   6   9
DOCKED: ATOM      9  C15 UNL     1      14.048  -5.744   2.275 +0.00 +0.00    +0.156 C  
DOCKED: ATOM     10  C16 UNL     1      14.715  -7.005   2.812 +0.00 +0.00    +0.038 C  
DOCKED: BRANCH   9  11
DOCKED: ATOM     11  N2  UNL     1      14.327  -4.597   3.125 +0.00 -0.00    -0.302 N  
DOCKED: ATOM     12  C17 UNL     1      13.592  -3.445   3.080 +0.00 +0.00    +0.242 C  
DOCKED: ATOM     13  O3  UNL     1      12.727  -3.232   2.238 +0.00 -0.00    -0.273 OA 
DOCKED: ATOM     14  H24 UNL     1      14.935  -4.749   3.932 +0.00 +0.00    +0.150 HD 
DOCKED: BRANCH  12  15
DOCKED: ATOM     15  C18 UNL     1      13.951  -2.428   4.185 +0.00 +0.00    +0.202 C  
DOCKED: BRANCH  15  16
DOCKED: ATOM     16  C19 UNL     1      14.492  -3.070   5.477 +0.00 +0.00    +0.020 C  
DOCKED: ATOM     17  C20 UNL     1      13.804  -2.519   6.723 +0.00 +0.00    +0.010 C  
DOCKED: ATOM     18  C21 UNL     1      16.014  -2.977   5.624 +0.00 +0.00    +0.010 C  
DOCKED: ENDBRANCH  15  16
DOCKED: BRANCH  15  19
DOCKED: ATOM     19  O4  UNL     1      12.805  -1.636   4.521 +0.00 -0.00    -0.382 OA 
DOCKED: ATOM     20  H26 UNL     1      12.058  -1.967   3.987 +0.00 +0.00    +0.210 HD 
DOCKED: ENDBRANCH  15  19
DOCKED: ENDBRANCH  12  15
DOCKED: ENDBRANCH   9  11
DOCKED: ENDBRANCH   6   9
DOCKED: ENDBRANCH   4   5
DOCKED: BRANCH   4  21
DOCKED: ATOM     21  C7  UNL     1      10.143  -6.504   4.700 +0.00 +0.00    +0.060 C  
DOCKED: BRANCH  21  22
DOCKED: ATOM     22  C8  UNL     1      11.348  -6.703   5.596 +0.00 -0.00    -0.046 A  
DOCKED: ATOM     23  C9  UNL     1      12.110  -7.875   5.513 +0.00 +0.00    +0.004 A  
DOCKED: ATOM     24  C10 UNL     1      13.253  -8.032   6.302 +0.00 +0.00    +0.000 A  
DOCKED: ATOM     25  C11 UNL     1      13.646  -7.021   7.179 +0.00 +0.00    +0.000 A  
DOCKED: ATOM     26  C12 UNL     1      12.891  -5.854   7.272 +0.00 +0.00    +0.000 A  
DOCKED: ATOM     27  C13 UNL     1      11.749  -5.696   6.488 +0.00 +0.00    +0.004 A  
DOCKED: ENDBRANCH  21  22
DOCKED: ENDBRANCH   4  21
DOCKED: ENDBRANCH   1   4
DOCKED: BRANCH   1  28
DOCKED: ATOM     28  C4  UNL     1       9.069  -3.701   2.144 +0.00 +0.00    +0.046 C  
DOCKED: BRANCH  28  29
DOCKED: ATOM     29  C3  UNL     1       9.962  -3.101   1.016 +0.00 +0.00    +0.077 C  
DOCKED: BRANCH  29  30
DOCKED: ATOM     30  C22 UNL     1      10.156  -1.578   1.131 +0.00 +0.00    +0.217 C  
DOCKED: ATOM     31  O5  UNL     1       9.784  -0.815   0.240 +0.00 -0.00    -0.275 OA 
DOCKED: ATOM     32  N3  UNL     1      10.672  -1.119   2.308 +0.00 -0.00    -0.304 N  
DOCKED: ATOM     33  H34 UNL     1      11.231  -1.767   2.851 +0.00 +0.00    +0.149 HD 
DOCKED: BRANCH  32  34
DOCKED: ATOM     34  C23 UNL     1      10.988   0.296   2.537 +0.00 +0.00    +0.161 C  
DOCKED: BRANCH  34  35
DOCKED: ATOM     35  C24 UNL     1      12.288   0.525   1.717 +0.00 +0.00    +0.234 C  
DOCKED: ATOM     36  O6  UNL     1      12.401   1.489   0.955 +0.00 -0.00    -0.274 OA 
DOCKED: ATOM     37  N4  UNL     1      13.280  -0.404   1.910 +0.00 -0.00    -0.307 N  
DOCKED: ATOM     38  H36 UNL     1      13.051  -1.259   2.407 +0.00 +0.00    +0.149 HD 
DOCKED: BRANCH  37  39
DOCKED: ATOM     39  C25 UNL     1      14.499  -0.419   1.113 +0.00 +0.00    +0.100 C  
DOCKED: ATOM     40  C26 UNL     1      15.713  -0.132   1.994 +0.00 +0.00    +0.033 C  
DOCKED: BRANCH  39  41
DOCKED: ATOM     41  C27 UNL     1      14.618  -1.742   0.375 +0.00 -0.00    -0.027 A  
DOCKED: ATOM     42  C28 UNL     1      13.582  -2.158  -0.476 +0.00 +0.00    +0.005 A  
DOCKED: ATOM     43  C29 UNL     1      13.672  -3.363  -1.176 +0.00 +0.00    +0.000 A  
DOCKED: ATOM     44  C30 UNL     1      14.784  -4.186  -1.012 +0.00 +0.00    +0.000 A  
DOCKED: ATOM     45  C31 UNL     1      15.816  -3.799  -0.158 +0.00 +0.00    +0.000 A  
DOCKED: ATOM     46  C32 UNL     1      15.734  -2.586   0.532 +0.00 +0.00    +0.005 A  
DOCKED: ENDBRANCH  39  41
DOCKED: ENDBRANCH  37  39
DOCKED: ENDBRANCH  34  35
DOCKED: BRANCH  34  47
DOCKED: ATOM     47  C33 UNL     1      11.186   0.648   4.039 +0.00 +0.00    +0.012 C  
DOCKED: ATOM     48  C34 UNL     1      11.067   2.161   4.271 +0.00 +0.00    +0.009 C  
DOCKED: ATOM     49  C35 UNL     1      10.210  -0.057   4.992 +0.00 +0.00    +0.009 C  
DOCKED: ENDBRANCH  34  47
DOCKED: ENDBRANCH  32  34
DOCKED: ENDBRANCH  29  30
DOCKED: BRANCH  29  51
DOCKED: ATOM     50  C1  UNL     1      10.458  -4.723  -0.900 +0.00 +0.00    +0.004 C  
DOCKED: ATOM     51  C2  UNL     1       9.647  -3.517  -0.426 +0.00 +0.00    +0.009 C  
DOCKED: ENDBRANCH  29  51
DOCKED: ENDBRANCH  28  29
DOCKED: ENDBRANCH   1  28
DOCKED: TORSDOF 19
DOCKED: TER
DOCKED: ENDMDL
________________________________________________________________________________


    FINAL DOCKED STATE:
    ________________________


Run:   11 / 20
Time taken for this run:   0.685s

DOCKED: MODEL        11
DOCKED: USER    Run = 11
DOCKED: USER
DOCKED: USER    Estimated Free Energy of Binding    =  +5.67 kcal/mol  [=(1)+(2)+(3)-(4)]
DOCKED: USER
DOCKED: USER    (1) Final Intermolecular Energy     =  +0.00 kcal/mol
DOCKED: USER        vdW + Hbond + desolv Energy     =  +0.00 kcal/mol
DOCKED: USER        Electrostatic Energy            =  +0.00 kcal/mol
DOCKED: USER        Moving Ligand-Fixed Receptor    =  +0.00 kcal/mol
DOCKED: USER        Moving Ligand-Moving Receptor   =  +0.00 kcal/mol
DOCKED: USER    (2) Final Total Internal Energy     = -13.30 kcal/mol
DOCKED: USER    (3) Torsional Free Energy           =  +5.67 kcal/mol
DOCKED: USER    (4) Unbound System's Energy         = -13.30 kcal/mol
DOCKED: USER
DOCKED: USER
DOCKED: REMARK  Name = ligands/ligand_18.pdb
DOCKED: REMARK  26 active torsions:
DOCKED: REMARK  status: ('A' for Active; 'I' for Inactive)
DOCKED: REMARK    1  A    between atoms: C1_1  and  C2_2
DOCKED: REMARK    2  A    between atoms: C2_2  and  C3_3
DOCKED: REMARK    3  A    between atoms: C3_3  and  C4_4
DOCKED: REMARK    4  A    between atoms: C3_3  and  C22_28
DOCKED: REMARK    5  A    between atoms: C4_4  and  C5_5
DOCKED: REMARK    6  A    between atoms: C5_5  and  O1_6
DOCKED: REMARK    7  A    between atoms: C5_5  and  C6_7
DOCKED: REMARK    8  A    between atoms: C6_7  and  C7_8
DOCKED: REMARK    9  A    between atoms: C6_7  and  N1_15
DOCKED: REMARK   10  A    between atoms: C7_8  and  C8_9
DOCKED: REMARK   11  A    between atoms: C14_16  and  C15_18
DOCKED: REMARK   12  A    between atoms: C15_18  and  C16_19
DOCKED: REMARK   13  A    between atoms: C15_18  and  N2_20
DOCKED: REMARK   14  A    between atoms: C17_21  and  C18_23
DOCKED: REMARK   15  A    between atoms: C18_23  and  O4_24
DOCKED: REMARK   16  A    between atoms: C18_23  and  C19_25
DOCKED: REMARK   17  A    between atoms: C19_25  and  C20_26
DOCKED: REMARK   18  A    between atoms: C19_25  and  C21_27
DOCKED: REMARK   19  A    between atoms: N3_30  and  C23_31
DOCKED: REMARK   20  A    between atoms: C23_31  and  C24_32
DOCKED: REMARK   21  A    between atoms: C23_31  and  C33_43
DOCKED: REMARK   22  A    between atoms: N4_34  and  C25_35
DOCKED: REMARK   23  A    between atoms: C25_35  and  C26_36
DOCKED: REMARK   24  A    between atoms: C25_35  and  C27_37
DOCKED: REMARK   25  A    between atoms: C33_43  and  C34_44
DOCKED: REMARK   26  A    between atoms: C33_43  and  C35_45
DOCKED: REMARK                            x       y       z     vdW  Elec       q    Type
DOCKED: REMARK                         _______ _______ _______ _____ _____    ______ ____
DOCKED: USER                              x       y       z     vdW  Elec       q    Type
DOCKED: USER                           _______ _______ _______ _____ _____    ______ ____
DOCKED: ROOT
DOCKED: ATOM      1  C5  UNL     1       9.758  -5.201   3.914 +0.00 +0.00    +0.136 C  
DOCKED: ENDROOT
DOCKED: BRANCH   1   2
DOCKED: ATOM      2  O1  UNL     1      10.797  -5.094   4.881 +0.00 -0.00    -0.390 OA 
DOCKED: ATOM      3  H10 UNL     1      11.640  -5.239   4.416 +0.00 +0.00    +0.210 HD 
DOCKED: ENDBRANCH   1   2
DOCKED: BRANCH   1   4
DOCKED: ATOM      4  C6  UNL     1      10.343  -5.581   2.526 +0.00 +0.00    +0.106 C  
DOCKED: BRANCH   4   5
DOCKED: ATOM      5  N1  UNL     1      10.881  -4.403   1.839 +0.00 -0.00    -0.308 N  
DOCKED: ATOM      6  C14 UNL     1      10.705  -4.231   0.484 +0.00 +0.00    +0.233 C  
DOCKED: ATOM      7  O2  UNL     1       9.963  -4.938  -0.200 +0.00 -0.00    -0.274 OA 
DOCKED: ATOM      8  H19 UNL     1      11.650  -3.879   2.262 +0.00 +0.00    +0.149 HD 
DOCKED: BRANCH   6   9
DOCKED: ATOM      9  C15 UNL     1      11.494  -3.058  -0.115 +0.00 +0.00    +0.156 C  
DOCKED: ATOM     10  C16 UNL     1      12.016  -3.442  -1.495 +0.00 +0.00    +0.038 C  
DOCKED: BRANCH   9  11
DOCKED: ATOM     11  N2  UNL     1      12.586  -2.757   0.796 +0.00 -0.00    -0.302 N  
DOCKED: ATOM     12  C17 UNL     1      13.721  -2.105   0.404 +0.00 +0.00    +0.242 C  
DOCKED: ATOM     13  O3  UNL     1      13.971  -1.836  -0.766 +0.00 -0.00    -0.273 OA 
DOCKED: ATOM     14  H24 UNL     1      12.393  -2.827   1.798 +0.00 +0.00    +0.150 HD 
DOCKED: BRANCH  12  15
DOCKED: ATOM     15  C18 UNL     1      14.668  -1.736   1.566 +0.00 +0.00    +0.202 C  
DOCKED: BRANCH  15  16
DOCKED: ATOM     16  C19 UNL     1      15.655  -2.854   1.951 +0.00 +0.00    +0.020 C  
DOCKED: ATOM     17  C20 UNL     1      16.322  -2.591   3.298 +0.00 +0.00    +0.010 C  
DOCKED: ATOM     18  C21 UNL     1      16.712  -3.142   0.881 +0.00 +0.00    +0.010 C  
DOCKED: ENDBRANCH  15  16
DOCKED: BRANCH  15  19
DOCKED: ATOM     19  O4  UNL     1      13.910  -1.383   2.729 +0.00 -0.00    -0.382 OA 
DOCKED: ATOM     20  H26 UNL     1      13.080  -1.895   2.701 +0.00 +0.00    +0.210 HD 
DOCKED: ENDBRANCH  15  19
DOCKED: ENDBRANCH  12  15
DOCKED: ENDBRANCH   9  11
DOCKED: ENDBRANCH   6   9
DOCKED: ENDBRANCH   4   5
DOCKED: BRANCH   4  21
DOCKED: ATOM     21  C7  UNL     1      11.309  -6.781   2.513 +0.00 +0.00    +0.060 C  
DOCKED: BRANCH  21  22
DOCKED: ATOM     22  C8  UNL     1      12.384  -6.668   1.452 +0.00 -0.00    -0.046 A  
DOCKED: ATOM     23  C9  UNL     1      12.172  -7.182   0.167 +0.00 +0.00    +0.004 A  
DOCKED: ATOM     24  C10 UNL     1      13.143  -7.026  -0.826 +0.00 +0.00    +0.000 A  
DOCKED: ATOM     25  C11 UNL     1      14.334  -6.356  -0.545 +0.00 +0.00    +0.000 A  
DOCKED: ATOM     26  C12 UNL     1      14.556  -5.845   0.733 +0.00 +0.00    +0.000 A  
DOCKED: ATOM     27  C13 UNL     1      13.589  -6.001   1.725 +0.00 +0.00    +0.004 A  
DOCKED: ENDBRANCH  21  22
DOCKED: ENDBRANCH   4  21
DOCKED: ENDBRANCH   1   4
DOCKED: BRANCH   1  28
DOCKED: ATOM     28  C4  UNL     1       8.758  -4.022   4.026 +0.00 +0.00    +0.046 C  
DOCKED: BRANCH  28  29
DOCKED: ATOM     29  C3  UNL     1       9.145  -2.534   3.765 +0.00 +0.00    +0.077 C  
DOCKED: BRANCH  29  30
DOCKED: ATOM     30  C22 UNL     1      10.657  -2.265   3.869 +0.00 +0.00    +0.217 C  
DOCKED: ATOM     31  O5  UNL     1      11.297  -1.817   2.919 +0.00 -0.00    -0.275 OA 
DOCKED: ATOM     32  N3  UNL     1      11.224  -2.460   5.095 +0.00 -0.00    -0.304 N  
DOCKED: ATOM     33  H34 UNL     1      10.754  -3.100   5.725 +0.00 +0.00    +0.149 HD 
DOCKED: BRANCH  32  34
DOCKED: ATOM     34  C23 UNL     1      12.666  -2.322   5.333 +0.00 +0.00    +0.161 C  
DOCKED: BRANCH  34  35
DOCKED: ATOM     35  C24 UNL     1      13.280  -3.559   4.621 +0.00 +0.00    +0.234 C  
DOCKED: ATOM     36  O6  UNL     1      12.924  -3.885   3.486 +0.00 -0.00    -0.274 OA 
DOCKED: ATOM     37  N4  UNL     1      14.237  -4.237   5.336 +0.00 -0.00    -0.307 N  
DOCKED: ATOM     38  H36 UNL     1      14.347  -4.022   6.321 +0.00 +0.00    +0.149 HD 
DOCKED: BRANCH  37  39
DOCKED: ATOM     39  C25 UNL     1      14.803  -5.498   4.876 +0.00 +0.00    +0.100 C  
DOCKED: ATOM     40  C26 UNL     1      16.193  -5.704   5.474 +0.00 +0.00    +0.033 C  
DOCKED: BRANCH  39  41
DOCKED: ATOM     41  C27 UNL     1      13.856  -6.640   5.204 +0.00 -0.00    -0.027 A  
DOCKED: ATOM     42  C28 UNL     1      12.973  -6.520   6.288 +0.00 +0.00    +0.005 A  
DOCKED: ATOM     43  C29 UNL     1      12.084  -7.549   6.604 +0.00 +0.00    +0.000 A  
DOCKED: ATOM     44  C30 UNL     1      12.084  -8.726   5.860 +0.00 +0.00    +0.000 A  
DOCKED: ATOM     45  C31 UNL     1      12.965  -8.873   4.790 +0.00 +0.00    +0.000 A  
DOCKED: ATOM     46  C32 UNL     1      13.847  -7.837   4.463 +0.00 +0.00    +0.005 A  
DOCKED: ENDBRANCH  39  41
DOCKED: ENDBRANCH  37  39
DOCKED: ENDBRANCH  34  35
DOCKED: BRANCH  34  47
DOCKED: ATOM     47  C33 UNL     1      13.041  -2.281   6.842 +0.00 +0.00    +0.012 C  
DOCKED: ATOM     48  C34 UNL     1      12.838  -0.874   7.423 +0.00 +0.00    +0.009 C  
DOCKED: ATOM     49  C35 UNL     1      12.264  -3.274   7.718 +0.00 +0.00    +0.009 C  
DOCKED: ENDBRANCH  34  47
DOCKED: ENDBRANCH  32  34
DOCKED: ENDBRANCH  29  30
DOCKED: BRANCH  29  51
DOCKED: ATOM     50  C1  UNL     1       8.230  -1.700   6.005 +0.00 +0.00    +0.004 C  
DOCKED: ATOM     51  C2  UNL     1       8.334  -1.458   4.499 +0.00 +0.00    +0.009 C  
DOCKED: ENDBRANCH  29  51
DOCKED: ENDBRANCH  28  29
DOCKED: ENDBRANCH   1  28
DOCKED: TORSDOF 19
DOCKED: TER
DOCKED: ENDMDL
________________________________________________________________________________


    FINAL DOCKED STATE:
    ________________________


Run:   12 / 20
Time taken for this run:   0.685s

DOCKED: MODEL        12
DOCKED: USER    Run = 12
DOCKED: USER
DOCKED: USER    Estimated Free Energy of Binding    =  +5.67 kcal/mol  [=(1)+(2)+(3)-(4)]
DOCKED: USER
DOCKED: USER    (1) Final Intermolecular Energy     =  +0.00 kcal/mol
DOCKED: USER        vdW + Hbond + desolv Energy     =  +0.00 kcal/mol
DOCKED: USER        Electrostatic Energy            =  +0.00 kcal/mol
DOCKED: USER        Moving Ligand-Fixed Receptor    =  +0.00 kcal/mol
DOCKED: USER        Moving Ligand-Moving Receptor   =  +0.00 kcal/mol
DOCKED: USER    (2) Final Total Internal Energy     = -13.29 kcal/mol
DOCKED: USER    (3) Torsional Free Energy           =  +5.67 kcal/mol
DOCKED: USER    (4) Unbound System's Energy         = -13.29 kcal/mol
DOCKED: USER
DOCKED: USER
DOCKED: REMARK  Name = ligands/ligand_18.pdb
DOCKED: REMARK  26 active torsions:
DOCKED: REMARK  status: ('A' for Active; 'I' for Inactive)
DOCKED: REMARK    1  A    between atoms: C1_1  and  C2_2
DOCKED: REMARK    2  A    between atoms: C2_2  and  C3_3
DOCKED: REMARK    3  A    between atoms: C3_3  and  C4_4
DOCKED: REMARK    4  A    between atoms: C3_3  and  C22_28
DOCKED: REMARK    5  A    between atoms: C4_4  and  C5_5
DOCKED: REMARK    6  A    between atoms: C5_5  and  O1_6
DOCKED: REMARK    7  A    between atoms: C5_5  and  C6_7
DOCKED: REMARK    8  A    between atoms: C6_7  and  C7_8
DOCKED: REMARK    9  A    between atoms: C6_7  and  N1_15
DOCKED: REMARK   10  A    between atoms: C7_8  and  C8_9
DOCKED: REMARK   11  A    between atoms: C14_16  and  C15_18
DOCKED: REMARK   12  A    between atoms: C15_18  and  C16_19
DOCKED: REMARK   13  A    between atoms: C15_18  and  N2_20
DOCKED: REMARK   14  A    between atoms: C17_21  and  C18_23
DOCKED: REMARK   15  A    between atoms: C18_23  and  O4_24
DOCKED: REMARK   16  A    between atoms: C18_23  and  C19_25
DOCKED: REMARK   17  A    between atoms: C19_25  and  C20_26
DOCKED: REMARK   18  A    between atoms: C19_25  and  C21_27
DOCKED: REMARK   19  A    between atoms: N3_30  and  C23_31
DOCKED: REMARK   20  A    between atoms: C23_31  and  C24_32
DOCKED: REMARK   21  A    between atoms: C23_31  and  C33_43
DOCKED: REMARK   22  A    between atoms: N4_34  and  C25_35
DOCKED: REMARK   23  A    between atoms: C25_35  and  C26_36
DOCKED: REMARK   24  A    between atoms: C25_35  and  C27_37
DOCKED: REMARK   25  A    between atoms: C33_43  and  C34_44
DOCKED: REMARK   26  A    between atoms: C33_43  and  C35_45
DOCKED: REMARK                            x       y       z     vdW  Elec       q    Type
DOCKED: REMARK                         _______ _______ _______ _____ _____    ______ ____
DOCKED: USER                              x       y       z     vdW  Elec       q    Type
DOCKED: USER                           _______ _______ _______ _____ _____    ______ ____
DOCKED: ROOT
DOCKED: ATOM      1  C5  UNL     1      11.499  -2.695   3.209 +0.00 +0.00    +0.136 C  
DOCKED: ENDROOT
DOCKED: BRANCH   1   2
DOCKED: ATOM      2  O1  UNL     1      10.866  -2.789   4.481 +0.00 -0.00    -0.390 OA 
DOCKED: ATOM      3  H10 UNL     1      10.050  -3.306   4.358 +0.00 +0.00    +0.210 HD 
DOCKED: ENDBRANCH   1   2
DOCKED: BRANCH   1   4
DOCKED: ATOM      4  C6  UNL     1      10.556  -3.220   2.091 +0.00 +0.00    +0.106 C  
DOCKED: BRANCH   4   5
DOCKED: ATOM      5  N1  UNL     1      10.634  -4.680   1.977 +0.00 -0.00    -0.308 N  
DOCKED: ATOM      6  C14 UNL     1      10.623  -5.296   0.745 +0.00 +0.00    +0.233 C  
DOCKED: ATOM      7  O2  UNL     1      10.717  -4.686  -0.320 +0.00 -0.00    -0.274 OA 
DOCKED: ATOM      8  H19 UNL     1      10.369  -5.264   2.774 +0.00 +0.00    +0.149 HD 
DOCKED: BRANCH   6   9
DOCKED: ATOM      9  C15 UNL     1      10.509  -6.826   0.802 +0.00 +0.00    +0.156 C  
DOCKED: ATOM     10  C16 UNL     1       9.685  -7.324  -0.380 +0.00 +0.00    +0.038 C  
DOCKED: BRANCH   9  11
DOCKED: ATOM     11  N2  UNL     1       9.878  -7.170   2.066 +0.00 -0.00    -0.302 N  
DOCKED: ATOM     12  C17 UNL     1       9.282  -8.379   2.294 +0.00 +0.00    +0.242 C  
DOCKED: ATOM     13  O3  UNL     1       9.116  -9.221   1.418 +0.00 -0.00    -0.273 OA 
DOCKED: ATOM     14  H24 UNL     1      10.095  -6.581   2.873 +0.00 +0.00    +0.150 HD 
DOCKED: BRANCH  12  15
DOCKED: ATOM     15  C18 UNL     1       8.834  -8.593   3.755 +0.00 +0.00    +0.202 C  
DOCKED: BRANCH  15  16
DOCKED: ATOM     16  C19 UNL     1       7.422  -8.060   4.063 +0.00 +0.00    +0.020 C  
DOCKED: ATOM     17  C20 UNL     1       7.198  -7.859   5.559 +0.00 +0.00    +0.010 C  
DOCKED: ATOM     18  C21 UNL     1       6.295  -8.909   3.466 +0.00 +0.00    +0.010 C  
DOCKED: ENDBRANCH  15  16
DOCKED: BRANCH  15  19
DOCKED: ATOM     19  O4  UNL     1       9.757  -7.969   4.654 +0.00 -0.00    -0.382 OA 
DOCKED: ATOM     20  H26 UNL     1      10.259  -7.307   4.141 +0.00 +0.00    +0.210 HD 
DOCKED: ENDBRANCH  15  19
DOCKED: ENDBRANCH  12  15
DOCKED: ENDBRANCH   9  11
DOCKED: ENDBRANCH   6   9
DOCKED: ENDBRANCH   4   5
DOCKED: BRANCH   4  21
DOCKED: ATOM     21  C7  UNL     1       9.109  -2.694   2.135 +0.00 +0.00    +0.060 C  
DOCKED: BRANCH  21  22
DOCKED: ATOM     22  C8  UNL     1       8.098  -3.689   1.602 +0.00 -0.00    -0.046 A  
DOCKED: ATOM     23  C9  UNL     1       7.763  -3.703   0.242 +0.00 +0.00    +0.004 A  
DOCKED: ATOM     24  C10 UNL     1       6.873  -4.658  -0.257 +0.00 +0.00    +0.000 A  
DOCKED: ATOM     25  C11 UNL     1       6.310  -5.607   0.597 +0.00 +0.00    +0.000 A  
DOCKED: ATOM     26  C12 UNL     1       6.634  -5.598   1.952 +0.00 +0.00    +0.000 A  
DOCKED: ATOM     27  C13 UNL     1       7.521  -4.645   2.452 +0.00 +0.00    +0.004 A  
DOCKED: ENDBRANCH  21  22
DOCKED: ENDBRANCH   4  21
DOCKED: ENDBRANCH   1   4
DOCKED: BRANCH   1  28
DOCKED: ATOM     28  C4  UNL     1      12.966  -3.193   3.269 +0.00 +0.00    +0.046 C  
DOCKED: BRANCH  28  29
DOCKED: ATOM     29  C3  UNL     1      13.363  -4.684   3.496 +0.00 +0.00    +0.077 C  
DOCKED: BRANCH  29  30
DOCKED: ATOM     30  C22 UNL     1      12.297  -5.495   4.253 +0.00 +0.00    +0.217 C  
DOCKED: ATOM     31  O5  UNL     1      11.836  -6.539   3.792 +0.00 -0.00    -0.275 OA 
DOCKED: ATOM     32  N3  UNL     1      11.962  -5.045   5.498 +0.00 -0.00    -0.304 N  
DOCKED: ATOM     33  H34 UNL     1      12.117  -4.063   5.691 +0.00 +0.00    +0.149 HD 
DOCKED: BRANCH  32  34
DOCKED: ATOM     34  C23 UNL     1      10.907  -5.665   6.308 +0.00 +0.00    +0.161 C  
DOCKED: BRANCH  34  35
DOCKED: ATOM     35  C24 UNL     1       9.594  -5.251   5.589 +0.00 +0.00    +0.234 C  
DOCKED: ATOM     36  O6  UNL     1       9.493  -5.308   4.360 +0.00 -0.00    -0.274 OA 
DOCKED: ATOM     37  N4  UNL     1       8.576  -4.835   6.411 +0.00 -0.00    -0.307 N  
DOCKED: ATOM     38  H36 UNL     1       8.788  -4.644   7.384 +0.00 +0.00    +0.149 HD 
DOCKED: BRANCH  37  39
DOCKED: ATOM     39  C25 UNL     1       7.335  -4.275   5.891 +0.00 +0.00    +0.100 C  
DOCKED: ATOM     40  C26 UNL     1       6.205  -4.465   6.900 +0.00 +0.00    +0.033 C  
DOCKED: BRANCH  39  41
DOCKED: ATOM     41  C27 UNL     1       7.542  -2.816   5.521 +0.00 -0.00    -0.027 A  
DOCKED: ATOM     42  C28 UNL     1       6.736  -2.229   4.533 +0.00 +0.00    +0.005 A  
DOCKED: ATOM     43  C29 UNL     1       6.897  -0.887   4.183 +0.00 +0.00    +0.000 A  
DOCKED: ATOM     44  C30 UNL     1       7.885  -0.119   4.792 +0.00 +0.00    +0.000 A  
DOCKED: ATOM     45  C31 UNL     1       8.709  -0.687   5.763 +0.00 +0.00    +0.000 A  
DOCKED: ATOM     46  C32 UNL     1       8.539  -2.027   6.125 +0.00 +0.00    +0.005 A  
DOCKED: ENDBRANCH  39  41
DOCKED: ENDBRANCH  37  39
DOCKED: ENDBRANCH  34  35
DOCKED: BRANCH  34  47
DOCKED: ATOM     47  C33 UNL     1      10.920  -5.205   7.794 +0.00 +0.00    +0.012 C  
DOCKED: ATOM     48  C34 UNL     1      11.986  -5.963   8.598 +0.00 +0.00    +0.009 C  
DOCKED: ATOM     49  C35 UNL     1      11.156  -3.700   7.992 +0.00 +0.00    +0.009 C  
DOCKED: ENDBRANCH  34  47
DOCKED: ENDBRANCH  32  34
DOCKED: ENDBRANCH  29  30
DOCKED: BRANCH  29  51
DOCKED: ATOM     50  C1  UNL     1      15.075  -4.202   5.337 +0.00 +0.00    +0.004 C  
DOCKED: ATOM     51  C2  UNL     1      14.769  -4.960   4.045 +0.00 +0.00    +0.009 C  
DOCKED: ENDBRANCH  29  51
DOCKED: ENDBRANCH  28  29
DOCKED: ENDBRANCH   1  28
DOCKED: TORSDOF 19
DOCKED: TER
DOCKED: ENDMDL
________________________________________________________________________________


    FINAL DOCKED STATE:
    ________________________


Run:   13 / 20
Time taken for this run:   0.685s

DOCKED: MODEL        13
DOCKED: USER    Run = 13
DOCKED: USER
DOCKED: USER    Estimated Free Energy of Binding    =  +5.67 kcal/mol  [=(1)+(2)+(3)-(4)]
DOCKED: USER
DOCKED: USER    (1) Final Intermolecular Energy     =  +0.00 kcal/mol
DOCKED: USER        vdW + Hbond + desolv Energy     =  +0.00 kcal/mol
DOCKED: USER        Electrostatic Energy            =  +0.00 kcal/mol
DOCKED: USER        Moving Ligand-Fixed Receptor    =  +0.00 kcal/mol
DOCKED: USER        Moving Ligand-Moving Receptor   =  +0.00 kcal/mol
DOCKED: USER    (2) Final Total Internal Energy     = -13.36 kcal/mol
DOCKED: USER    (3) Torsional Free Energy           =  +5.67 kcal/mol
DOCKED: USER    (4) Unbound System's Energy         = -13.36 kcal/mol
DOCKED: USER
DOCKED: USER
DOCKED: REMARK  Name = ligands/ligand_18.pdb
DOCKED: REMARK  26 active torsions:
DOCKED: REMARK  status: ('A' for Active; 'I' for Inactive)
DOCKED: REMARK    1  A    between atoms: C1_1  and  C2_2
DOCKED: REMARK    2  A    between atoms: C2_2  and  C3_3
DOCKED: REMARK    3  A    between atoms: C3_3  and  C4_4
DOCKED: REMARK    4  A    between atoms: C3_3  and  C22_28
DOCKED: REMARK    5  A    between atoms: C4_4  and  C5_5
DOCKED: REMARK    6  A    between atoms: C5_5  and  O1_6
DOCKED: REMARK    7  A    between atoms: C5_5  and  C6_7
DOCKED: REMARK    8  A    between atoms: C6_7  and  C7_8
DOCKED: REMARK    9  A    between atoms: C6_7  and  N1_15
DOCKED: REMARK   10  A    between atoms: C7_8  and  C8_9
DOCKED: REMARK   11  A    between atoms: C14_16  and  C15_18
DOCKED: REMARK   12  A    between atoms: C15_18  and  C16_19
DOCKED: REMARK   13  A    between atoms: C15_18  and  N2_20
DOCKED: REMARK   14  A    between atoms: C17_21  and  C18_23
DOCKED: REMARK   15  A    between atoms: C18_23  and  O4_24
DOCKED: REMARK   16  A    between atoms: C18_23  and  C19_25
DOCKED: REMARK   17  A    between atoms: C19_25  and  C20_26
DOCKED: REMARK   18  A    between atoms: C19_25  and  C21_27
DOCKED: REMARK   19  A    between atoms: N3_30  and  C23_31
DOCKED: REMARK   20  A    between atoms: C23_31  and  C24_32
DOCKED: REMARK   21  A    between atoms: C23_31  and  C33_43
DOCKED: REMARK   22  A    between atoms: N4_34  and  C25_35
DOCKED: REMARK   23  A    between atoms: C25_35  and  C26_36
DOCKED: REMARK   24  A    between atoms: C25_35  and  C27_37
DOCKED: REMARK   25  A    between atoms: C33_43  and  C34_44
DOCKED: REMARK   26  A    between atoms: C33_43  and  C35_45
DOCKED: REMARK                            x       y       z     vdW  Elec       q    Type
DOCKED: REMARK                         _______ _______ _______ _____ _____    ______ ____
DOCKED: USER                              x       y       z     vdW  Elec       q    Type
DOCKED: USER                           _______ _______ _______ _____ _____    ______ ____
DOCKED: ROOT
DOCKED: ATOM      1  C5  UNL     1      11.026  -5.263   1.415 +0.00 +0.00    +0.136 C  
DOCKED: ENDROOT
DOCKED: BRANCH   1   2
DOCKED: ATOM      2  O1  UNL     1      11.836  -6.432   1.335 +0.00 -0.00    -0.390 OA 
DOCKED: ATOM      3  H10 UNL     1      12.764  -6.143   1.383 +0.00 +0.00    +0.210 HD 
DOCKED: ENDBRANCH   1   2
DOCKED: BRANCH   1   4
DOCKED: ATOM      4  C6  UNL     1      11.806  -4.024   0.892 +0.00 +0.00    +0.106 C  
DOCKED: BRANCH   4   5
DOCKED: ATOM      5  N1  UNL     1      12.444  -3.299   1.995 +0.00 -0.00    -0.308 N  
DOCKED: ATOM      6  C14 UNL     1      12.395  -1.924   2.061 +0.00 +0.00    +0.233 C  
DOCKED: ATOM      7  O2  UNL     1      11.692  -1.233   1.322 +0.00 -0.00    -0.274 OA 
DOCKED: ATOM      8  H19 UNL     1      13.191  -3.748   2.530 +0.00 +0.00    +0.149 HD 
DOCKED: BRANCH   6   9
DOCKED: ATOM      9  C15 UNL     1      13.275  -1.309   3.158 +0.00 +0.00    +0.156 C  
DOCKED: ATOM     10  C16 UNL     1      13.724   0.085   2.736 +0.00 +0.00    +0.038 C  
DOCKED: BRANCH   9  11
DOCKED: ATOM     11  N2  UNL     1      14.413  -2.193   3.351 +0.00 -0.00    -0.302 N  
DOCKED: ATOM     12  C17 UNL     1      15.493  -1.856   4.118 +0.00 +0.00    +0.242 C  
DOCKED: ATOM     13  O3  UNL     1      15.652  -0.740   4.601 +0.00 -0.00    -0.273 OA 
DOCKED: ATOM     14  H24 UNL     1      14.292  -3.175   3.096 +0.00 +0.00    +0.150 HD 
DOCKED: BRANCH  12  15
DOCKED: ATOM     15  C18 UNL     1      16.500  -3.007   4.325 +0.00 +0.00    +0.202 C  
DOCKED: BRANCH  15  16
DOCKED: ATOM     16  C19 UNL     1      17.677  -2.998   3.332 +0.00 +0.00    +0.020 C  
DOCKED: ATOM     17  C20 UNL     1      17.831  -1.649   2.637 +0.00 +0.00    +0.010 C  
DOCKED: ATOM     18  C21 UNL     1      17.625  -4.126   2.298 +0.00 +0.00    +0.010 C  
DOCKED: ENDBRANCH  15  16
DOCKED: BRANCH  15  19
DOCKED: ATOM     19  O4  UNL     1      15.835  -4.272   4.226 +0.00 -0.00    -0.382 OA 
DOCKED: ATOM     20  H26 UNL     1      14.889  -4.090   4.071 +0.00 +0.00    +0.210 HD 
DOCKED: ENDBRANCH  15  19
DOCKED: ENDBRANCH  12  15
DOCKED: ENDBRANCH   9  11
DOCKED: ENDBRANCH   6   9
DOCKED: ENDBRANCH   4   5
DOCKED: BRANCH   4  21
DOCKED: ATOM     21  C7  UNL     1      12.757  -4.283  -0.291 +0.00 +0.00    +0.060 C  
DOCKED: BRANCH  21  22
DOCKED: ATOM     22  C8  UNL     1      13.786  -3.187  -0.478 +0.00 -0.00    -0.046 A  
DOCKED: ATOM     23  C9  UNL     1      13.464  -2.022  -1.185 +0.00 +0.00    +0.004 A  
DOCKED: ATOM     24  C10 UNL     1      14.396  -0.988  -1.308 +0.00 +0.00    +0.000 A  
DOCKED: ATOM     25  C11 UNL     1      15.658  -1.108  -0.725 +0.00 +0.00    +0.000 A  
DOCKED: ATOM     26  C12 UNL     1      15.989  -2.265  -0.023 +0.00 +0.00    +0.000 A  
DOCKED: ATOM     27  C13 UNL     1      15.061  -3.298   0.099 +0.00 +0.00    +0.004 A  
DOCKED: ENDBRANCH  21  22
DOCKED: ENDBRANCH   4  21
DOCKED: ENDBRANCH   1   4
DOCKED: BRANCH   1  28
DOCKED: ATOM     28  C4  UNL     1      10.283  -5.182   2.772 +0.00 +0.00    +0.046 C  
DOCKED: BRANCH  28  29
DOCKED: ATOM     29  C3  UNL     1      10.958  -4.726   4.101 +0.00 +0.00    +0.077 C  
DOCKED: BRANCH  29  30
DOCKED: ATOM     30  C22 UNL     1      12.440  -5.127   4.207 +0.00 +0.00    +0.217 C  
DOCKED: ATOM     31  O5  UNL     1      13.290  -4.340   4.621 +0.00 -0.00    -0.275 OA 
DOCKED: ATOM     32  N3  UNL     1      12.741  -6.424   3.905 +0.00 -0.00    -0.304 N  
DOCKED: ATOM     33  H34 UNL     1      12.100  -6.916   3.294 +0.00 +0.00    +0.149 HD 
DOCKED: BRANCH  32  34
DOCKED: ATOM     34  C23 UNL     1      14.117  -6.934   3.883 +0.00 +0.00    +0.161 C  
DOCKED: BRANCH  34  35
DOCKED: ATOM     35  C24 UNL     1      14.731  -6.290   2.609 +0.00 +0.00    +0.234 C  
DOCKED: ATOM     36  O6  UNL     1      14.412  -5.153   2.251 +0.00 -0.00    -0.274 OA 
DOCKED: ATOM     37  N4  UNL     1      15.644  -7.064   1.937 +0.00 -0.00    -0.307 N  
DOCKED: ATOM     38  H36 UNL     1      15.720  -8.045   2.184 +0.00 +0.00    +0.149 HD 
DOCKED: BRANCH  37  39
DOCKED: ATOM     39  C25 UNL     1      16.200  -6.670   0.649 +0.00 +0.00    +0.100 C  
DOCKED: ATOM     40  C26 UNL     1      17.471  -7.465   0.356 +0.00 +0.00    +0.033 C  
DOCKED: BRANCH  39  41
DOCKED: ATOM     41  C27 UNL     1      15.152  -6.833  -0.438 +0.00 -0.00    -0.027 A  
DOCKED: ATOM     42  C28 UNL     1      14.073  -7.708  -0.237 +0.00 +0.00    +0.005 A  
DOCKED: ATOM     43  C29 UNL     1      13.089  -7.866  -1.215 +0.00 +0.00    +0.000 A  
DOCKED: ATOM     44  C30 UNL     1      13.183  -7.176  -2.421 +0.00 +0.00    +0.000 A  
DOCKED: ATOM     45  C31 UNL     1      14.256  -6.315  -2.647 +0.00 +0.00    +0.000 A  
DOCKED: ATOM     46  C32 UNL     1      15.235  -6.144  -1.663 +0.00 +0.00    +0.005 A  
DOCKED: ENDBRANCH  39  41
DOCKED: ENDBRANCH  37  39
DOCKED: ENDBRANCH  34  35
DOCKED: BRANCH  34  47
DOCKED: ATOM     47  C33 UNL     1      14.198  -8.487   3.838 +0.00 +0.00    +0.012 C  
DOCKED: ATOM     48  C34 UNL     1      13.887  -9.095   5.213 +0.00 +0.00    +0.009 C  
DOCKED: ATOM     49  C35 UNL     1      13.268  -9.143   2.807 +0.00 +0.00    +0.009 C  
DOCKED: ENDBRANCH  34  47
DOCKED: ENDBRANCH  32  34
DOCKED: ENDBRANCH  29  30
DOCKED: BRANCH  29  51
DOCKED: ATOM     50  C1  UNL     1      10.193  -6.499   5.780 +0.00 +0.00    +0.004 C  
DOCKED: ATOM     51  C2  UNL     1      10.206  -5.017   5.407 +0.00 +0.00    +0.009 C  
DOCKED: ENDBRANCH  29  51
DOCKED: ENDBRANCH  28  29
DOCKED: ENDBRANCH   1  28
DOCKED: TORSDOF 19
DOCKED: TER
DOCKED: ENDMDL
________________________________________________________________________________


    FINAL DOCKED STATE:
    ________________________


Run:   14 / 20
Time taken for this run:   0.685s

DOCKED: MODEL        14
DOCKED: USER    Run = 14
DOCKED: USER
DOCKED: USER    Estimated Free Energy of Binding    =  +5.67 kcal/mol  [=(1)+(2)+(3)-(4)]
DOCKED: USER
DOCKED: USER    (1) Final Intermolecular Energy     =  +0.00 kcal/mol
DOCKED: USER        vdW + Hbond + desolv Energy     =  +0.00 kcal/mol
DOCKED: USER        Electrostatic Energy            =  +0.00 kcal/mol
DOCKED: USER        Moving Ligand-Fixed Receptor    =  +0.00 kcal/mol
DOCKED: USER        Moving Ligand-Moving Receptor   =  +0.00 kcal/mol
DOCKED: USER    (2) Final Total Internal Energy     = -13.35 kcal/mol
DOCKED: USER    (3) Torsional Free Energy           =  +5.67 kcal/mol
DOCKED: USER    (4) Unbound System's Energy         = -13.35 kcal/mol
DOCKED: USER
DOCKED: USER
DOCKED: REMARK  Name = ligands/ligand_18.pdb
DOCKED: REMARK  26 active torsions:
DOCKED: REMARK  status: ('A' for Active; 'I' for Inactive)
DOCKED: REMARK    1  A    between atoms: C1_1  and  C2_2
DOCKED: REMARK    2  A    between atoms: C2_2  and  C3_3
DOCKED: REMARK    3  A    between atoms: C3_3  and  C4_4
DOCKED: REMARK    4  A    between atoms: C3_3  and  C22_28
DOCKED: REMARK    5  A    between atoms: C4_4  and  C5_5
DOCKED: REMARK    6  A    between atoms: C5_5  and  O1_6
DOCKED: REMARK    7  A    between atoms: C5_5  and  C6_7
DOCKED: REMARK    8  A    between atoms: C6_7  and  C7_8
DOCKED: REMARK    9  A    between atoms: C6_7  and  N1_15
DOCKED: REMARK   10  A    between atoms: C7_8  and  C8_9
DOCKED: REMARK   11  A    between atoms: C14_16  and  C15_18
DOCKED: REMARK   12  A    between atoms: C15_18  and  C16_19
DOCKED: REMARK   13  A    between atoms: C15_18  and  N2_20
DOCKED: REMARK   14  A    between atoms: C17_21  and  C18_23
DOCKED: REMARK   15  A    between atoms: C18_23  and  O4_24
DOCKED: REMARK   16  A    between atoms: C18_23  and  C19_25
DOCKED: REMARK   17  A    between atoms: C19_25  and  C20_26
DOCKED: REMARK   18  A    between atoms: C19_25  and  C21_27
DOCKED: REMARK   19  A    between atoms: N3_30  and  C23_31
DOCKED: REMARK   20  A    between atoms: C23_31  and  C24_32
DOCKED: REMARK   21  A    between atoms: C23_31  and  C33_43
DOCKED: REMARK   22  A    between atoms: N4_34  and  C25_35
DOCKED: REMARK   23  A    between atoms: C25_35  and  C26_36
DOCKED: REMARK   24  A    between atoms: C25_35  and  C27_37
DOCKED: REMARK   25  A    between atoms: C33_43  and  C34_44
DOCKED: REMARK   26  A    between atoms: C33_43  and  C35_45
DOCKED: REMARK                            x       y       z     vdW  Elec       q    Type
DOCKED: REMARK                         _______ _______ _______ _____ _____    ______ ____
DOCKED: USER                              x       y       z     vdW  Elec       q    Type
DOCKED: USER                           _______ _______ _______ _____ _____    ______ ____
DOCKED: ROOT
DOCKED: ATOM      1  C5  UNL     1       8.991  -6.142   1.303 +0.00 +0.00    +0.136 C  
DOCKED: ENDROOT
DOCKED: BRANCH   1   2
DOCKED: ATOM      2  O1  UNL     1       9.561  -5.688   2.527 +0.00 -0.00    -0.390 OA 
DOCKED: ATOM      3  H10 UNL     1      10.454  -5.358   2.324 +0.00 +0.00    +0.210 HD 
DOCKED: ENDBRANCH   1   2
DOCKED: BRANCH   1   4
DOCKED: ATOM      4  C6  UNL     1      10.095  -6.321   0.223 +0.00 +0.00    +0.106 C  
DOCKED: BRANCH   4   5
DOCKED: ATOM      5  N1  UNL     1      10.275  -5.092  -0.555 +0.00 -0.00    -0.308 N  
DOCKED: ATOM      6  C14 UNL     1      10.426  -5.136  -1.924 +0.00 +0.00    +0.233 C  
DOCKED: ATOM      7  O2  UNL     1      10.254  -6.155  -2.594 +0.00 -0.00    -0.274 OA 
DOCKED: ATOM      8  H19 UNL     1      10.616  -4.246  -0.093 +0.00 +0.00    +0.149 HD 
DOCKED: BRANCH   6   9
DOCKED: ATOM      9  C15 UNL     1      10.803  -3.792  -2.564 +0.00 +0.00    +0.156 C  
DOCKED: ATOM     10  C16 UNL     1      11.644  -4.036  -3.812 +0.00 +0.00    +0.038 C  
DOCKED: BRANCH   9  11
DOCKED: ATOM     11  N2  UNL     1      11.543  -3.029  -1.572 +0.00 -0.00    -0.302 N  
DOCKED: ATOM     12  C17 UNL     1      12.186  -1.858  -1.865 +0.00 +0.00    +0.242 C  
DOCKED: ATOM     13  O3  UNL     1      12.303  -1.423  -3.005 +0.00 -0.00    -0.273 OA 
DOCKED: ATOM     14  H24 UNL     1      11.377  -3.254  -0.589 +0.00 +0.00    +0.150 HD 
DOCKED: BRANCH  12  15
DOCKED: ATOM     15  C18 UNL     1      12.757  -1.130  -0.629 +0.00 +0.00    +0.202 C  
DOCKED: BRANCH  15  16
DOCKED: ATOM     16  C19 UNL     1      14.230  -1.461  -0.330 +0.00 +0.00    +0.020 C  
DOCKED: ATOM     17  C20 UNL     1      14.941  -2.063  -1.539 +0.00 +0.00    +0.010 C  
DOCKED: ATOM     18  C21 UNL     1      14.428  -2.352   0.901 +0.00 +0.00    +0.010 C  
DOCKED: ENDBRANCH  15  16
DOCKED: BRANCH  15  19
DOCKED: ATOM     19  O4  UNL     1      11.979  -1.440   0.533 +0.00 -0.00    -0.382 OA 
DOCKED: ATOM     20  H26 UNL     1      11.306  -2.094   0.265 +0.00 +0.00    +0.210 HD 
DOCKED: ENDBRANCH  15  19
DOCKED: ENDBRANCH  12  15
DOCKED: ENDBRANCH   9  11
DOCKED: ENDBRANCH   6   9
DOCKED: ENDBRANCH   4   5
DOCKED: BRANCH   4  21
DOCKED: ATOM     21  C7  UNL     1      11.423  -6.924   0.717 +0.00 +0.00    +0.060 C  
DOCKED: BRANCH  21  22
DOCKED: ATOM     22  C8  UNL     1      12.585  -6.646  -0.214 +0.00 -0.00    -0.046 A  
DOCKED: ATOM     23  C9  UNL     1      12.827  -7.474  -1.317 +0.00 +0.00    +0.004 A  
DOCKED: ATOM     24  C10 UNL     1      13.866  -7.182  -2.206 +0.00 +0.00    +0.000 A  
DOCKED: ATOM     25  C11 UNL     1      14.671  -6.061  -2.002 +0.00 +0.00    +0.000 A  
DOCKED: ATOM     26  C12 UNL     1      14.440  -5.234  -0.905 +0.00 +0.00    +0.000 A  
DOCKED: ATOM     27  C13 UNL     1      13.406  -5.524  -0.016 +0.00 +0.00    +0.004 A  
DOCKED: ENDBRANCH  21  22
DOCKED: ENDBRANCH   4  21
DOCKED: ENDBRANCH   1   4
DOCKED: BRANCH   1  28
DOCKED: ATOM     28  C4  UNL     1       7.700  -5.358   0.956 +0.00 +0.00    +0.046 C  
DOCKED: BRANCH  28  29
DOCKED: ATOM     29  C3  UNL     1       7.691  -3.867   0.500 +0.00 +0.00    +0.077 C  
DOCKED: BRANCH  29  30
DOCKED: ATOM     30  C22 UNL     1       8.901  -3.062   1.007 +0.00 +0.00    +0.217 C  
DOCKED: ATOM     31  O5  UNL     1       9.586  -2.383   0.244 +0.00 -0.00    -0.275 OA 
DOCKED: ATOM     32  N3  UNL     1       9.113  -3.070   2.356 +0.00 -0.00    -0.304 N  
DOCKED: ATOM     33  H34 UNL     1       8.742  -3.857   2.876 +0.00 +0.00    +0.149 HD 
DOCKED: BRANCH  32  34
DOCKED: ATOM     34  C23 UNL     1      10.269  -2.417   2.981 +0.00 +0.00    +0.161 C  
DOCKED: BRANCH  34  35
DOCKED: ATOM     35  C24 UNL     1      11.467  -3.325   2.588 +0.00 +0.00    +0.234 C  
DOCKED: ATOM     36  O6  UNL     1      11.519  -3.871   1.482 +0.00 -0.00    -0.274 OA 
DOCKED: ATOM     37  N4  UNL     1      12.444  -3.459   3.542 +0.00 -0.00    -0.307 N  
DOCKED: ATOM     38  H36 UNL     1      12.250  -3.132   4.483 +0.00 +0.00    +0.149 HD 
DOCKED: BRANCH  37  39
DOCKED: ATOM     39  C25 UNL     1      13.557  -4.387   3.391 +0.00 +0.00    +0.100 C  
DOCKED: ATOM     40  C26 UNL     1      14.692  -4.014   4.342 +0.00 +0.00    +0.033 C  
DOCKED: BRANCH  39  41
DOCKED: ATOM     41  C27 UNL     1      13.073  -5.813   3.599 +0.00 -0.00    -0.027 A  
DOCKED: ATOM     42  C28 UNL     1      13.799  -6.880   3.047 +0.00 +0.00    +0.005 A  
DOCKED: ATOM     43  C29 UNL     1      13.383  -8.200   3.234 +0.00 +0.00    +0.000 A  
DOCKED: ATOM     44  C30 UNL     1      12.220  -8.472   3.948 +0.00 +0.00    +0.000 A  
DOCKED: ATOM     45  C31 UNL     1      11.474  -7.426   4.490 +0.00 +0.00    +0.000 A  
DOCKED: ATOM     46  C32 UNL     1      11.897  -6.104   4.316 +0.00 +0.00    +0.005 A  
DOCKED: ENDBRANCH  39  41
DOCKED: ENDBRANCH  37  39
DOCKED: ENDBRANCH  34  35
DOCKED: BRANCH  34  47
DOCKED: ATOM     47  C33 UNL     1      10.136  -2.275   4.525 +0.00 +0.00    +0.012 C  
DOCKED: ATOM     48  C34 UNL     1       9.152  -1.155   4.893 +0.00 +0.00    +0.009 C  
DOCKED: ATOM     49  C35 UNL     1       9.691  -3.556   5.245 +0.00 +0.00    +0.009 C  
DOCKED: ENDBRANCH  34  47
DOCKED: ENDBRANCH  32  34
DOCKED: ENDBRANCH  29  30
DOCKED: BRANCH  29  51
DOCKED: ATOM     50  C1  UNL     1       5.924  -3.005   2.138 +0.00 +0.00    +0.004 C  
DOCKED: ATOM     51  C2  UNL     1       6.384  -3.085   0.682 +0.00 +0.00    +0.009 C  
DOCKED: ENDBRANCH  29  51
DOCKED: ENDBRANCH  28  29
DOCKED: ENDBRANCH   1  28
DOCKED: TORSDOF 19
DOCKED: TER
DOCKED: ENDMDL
________________________________________________________________________________


    FINAL DOCKED STATE:
    ________________________


Run:   15 / 20
Time taken for this run:   0.685s

DOCKED: MODEL        15
DOCKED: USER    Run = 15
DOCKED: USER
DOCKED: USER    Estimated Free Energy of Binding    =  +5.67 kcal/mol  [=(1)+(2)+(3)-(4)]
DOCKED: USER
DOCKED: USER    (1) Final Intermolecular Energy     =  +0.00 kcal/mol
DOCKED: USER        vdW + Hbond + desolv Energy     =  +0.00 kcal/mol
DOCKED: USER        Electrostatic Energy            =  +0.00 kcal/mol
DOCKED: USER        Moving Ligand-Fixed Receptor    =  +0.00 kcal/mol
DOCKED: USER        Moving Ligand-Moving Receptor   =  +0.00 kcal/mol
DOCKED: USER    (2) Final Total Internal Energy     = -13.07 kcal/mol
DOCKED: USER    (3) Torsional Free Energy           =  +5.67 kcal/mol
DOCKED: USER    (4) Unbound System's Energy         = -13.07 kcal/mol
DOCKED: USER
DOCKED: USER
DOCKED: REMARK  Name = ligands/ligand_18.pdb
DOCKED: REMARK  26 active torsions:
DOCKED: REMARK  status: ('A' for Active; 'I' for Inactive)
DOCKED: REMARK    1  A    between atoms: C1_1  and  C2_2
DOCKED: REMARK    2  A    between atoms: C2_2  and  C3_3
DOCKED: REMARK    3  A    between atoms: C3_3  and  C4_4
DOCKED: REMARK    4  A    between atoms: C3_3  and  C22_28
DOCKED: REMARK    5  A    between atoms: C4_4  and  C5_5
DOCKED: REMARK    6  A    between atoms: C5_5  and  O1_6
DOCKED: REMARK    7  A    between atoms: C5_5  and  C6_7
DOCKED: REMARK    8  A    between atoms: C6_7  and  C7_8
DOCKED: REMARK    9  A    between atoms: C6_7  and  N1_15
DOCKED: REMARK   10  A    between atoms: C7_8  and  C8_9
DOCKED: REMARK   11  A    between atoms: C14_16  and  C15_18
DOCKED: REMARK   12  A    between atoms: C15_18  and  C16_19
DOCKED: REMARK   13  A    between atoms: C15_18  and  N2_20
DOCKED: REMARK   14  A    between atoms: C17_21  and  C18_23
DOCKED: REMARK   15  A    between atoms: C18_23  and  O4_24
DOCKED: REMARK   16  A    between atoms: C18_23  and  C19_25
DOCKED: REMARK   17  A    between atoms: C19_25  and  C20_26
DOCKED: REMARK   18  A    between atoms: C19_25  and  C21_27
DOCKED: REMARK   19  A    between atoms: N3_30  and  C23_31
DOCKED: REMARK   20  A    between atoms: C23_31  and  C24_32
DOCKED: REMARK   21  A    between atoms: C23_31  and  C33_43
DOCKED: REMARK   22  A    between atoms: N4_34  and  C25_35
DOCKED: REMARK   23  A    between atoms: C25_35  and  C26_36
DOCKED: REMARK   24  A    between atoms: C25_35  and  C27_37
DOCKED: REMARK   25  A    between atoms: C33_43  and  C34_44
DOCKED: REMARK   26  A    between atoms: C33_43  and  C35_45
DOCKED: REMARK                            x       y       z     vdW  Elec       q    Type
DOCKED: REMARK                         _______ _______ _______ _____ _____    ______ ____
DOCKED: USER                              x       y       z     vdW  Elec       q    Type
DOCKED: USER                           _______ _______ _______ _____ _____    ______ ____
DOCKED: ROOT
DOCKED: ATOM      1  C5  UNL     1      13.305  -3.899  -3.665 +0.00 +0.00    +0.136 C  
DOCKED: ENDROOT
DOCKED: BRANCH   1   2
DOCKED: ATOM      2  O1  UNL     1      14.507  -3.266  -3.238 +0.00 -0.00    -0.390 OA 
DOCKED: ATOM      3  H10 UNL     1      14.779  -2.658  -3.947 +0.00 +0.00    +0.210 HD 
DOCKED: ENDBRANCH   1   2
DOCKED: BRANCH   1   4
DOCKED: ATOM      4  C6  UNL     1      13.540  -4.675  -4.990 +0.00 +0.00    +0.106 C  
DOCKED: BRANCH   4   5
DOCKED: ATOM      5  N1  UNL     1      14.708  -4.154  -5.707 +0.00 -0.00    -0.308 N  
DOCKED: ATOM      6  C14 UNL     1      15.337  -4.903  -6.677 +0.00 +0.00    +0.233 C  
DOCKED: ATOM      7  O2  UNL     1      14.883  -5.958  -7.121 +0.00 -0.00    -0.274 OA 
DOCKED: ATOM      8  H19 UNL     1      15.261  -3.401  -5.292 +0.00 +0.00    +0.149 HD 
DOCKED: BRANCH   6   9
DOCKED: ATOM      9  C15 UNL     1      16.654  -4.302  -7.189 +0.00 +0.00    +0.156 C  
DOCKED: ATOM     10  C16 UNL     1      17.538  -5.408  -7.752 +0.00 +0.00    +0.038 C  
DOCKED: BRANCH   9  11
DOCKED: ATOM     11  N2  UNL     1      17.294  -3.635  -6.066 +0.00 -0.00    -0.302 N  
DOCKED: ATOM     12  C17 UNL     1      16.954  -2.375  -5.660 +0.00 +0.00    +0.242 C  
DOCKED: ATOM     13  O3  UNL     1      16.179  -1.655  -6.281 +0.00 -0.00    -0.273 OA 
DOCKED: ATOM     14  H24 UNL     1      17.842  -4.215  -5.428 +0.00 +0.00    +0.150 HD 
DOCKED: BRANCH  12  15
DOCKED: ATOM     15  C18 UNL     1      17.634  -1.934  -4.346 +0.00 +0.00    +0.202 C  
DOCKED: BRANCH  15  16
DOCKED: ATOM     16  C19 UNL     1      18.529  -3.013  -3.709 +0.00 +0.00    +0.020 C  
DOCKED: ATOM     17  C20 UNL     1      17.723  -4.017  -2.890 +0.00 +0.00    +0.010 C  
DOCKED: ATOM     18  C21 UNL     1      19.682  -2.449  -2.873 +0.00 +0.00    +0.010 C  
DOCKED: ENDBRANCH  15  16
DOCKED: BRANCH  15  19
DOCKED: ATOM     19  O4  UNL     1      16.648  -1.540  -3.385 +0.00 -0.00    -0.382 OA 
DOCKED: ATOM     20  H26 UNL     1      15.779  -1.590  -3.825 +0.00 +0.00    +0.210 HD 
DOCKED: ENDBRANCH  15  19
DOCKED: ENDBRANCH  12  15
DOCKED: ENDBRANCH   9  11
DOCKED: ENDBRANCH   6   9
DOCKED: ENDBRANCH   4   5
DOCKED: BRANCH   4  21
DOCKED: ATOM     21  C7  UNL     1      13.539  -6.212  -4.876 +0.00 +0.00    +0.060 C  
DOCKED: BRANCH  21  22
DOCKED: ATOM     22  C8  UNL     1      14.571  -6.735  -3.899 +0.00 -0.00    -0.046 A  
DOCKED: ATOM     23  C9  UNL     1      15.874  -7.020  -4.324 +0.00 +0.00    +0.004 A  
DOCKED: ATOM     24  C10 UNL     1      16.839  -7.450  -3.410 +0.00 +0.00    +0.000 A  
DOCKED: ATOM     25  C11 UNL     1      16.512  -7.599  -2.062 +0.00 +0.00    +0.000 A  
DOCKED: ATOM     26  C12 UNL     1      15.217  -7.322  -1.629 +0.00 +0.00    +0.000 A  
DOCKED: ATOM     27  C13 UNL     1      14.252  -6.895  -2.541 +0.00 +0.00    +0.004 A  
DOCKED: ENDBRANCH  21  22
DOCKED: ENDBRANCH   4  21
DOCKED: ENDBRANCH   1   4
DOCKED: BRANCH   1  28
DOCKED: ATOM     28  C4  UNL     1      12.090  -2.945  -3.542 +0.00 +0.00    +0.046 C  
DOCKED: BRANCH  28  29
DOCKED: ATOM     29  C3  UNL     1      12.207  -1.391  -3.554 +0.00 +0.00    +0.077 C  
DOCKED: BRANCH  29  30
DOCKED: ATOM     30  C22 UNL     1      13.144  -0.853  -4.650 +0.00 +0.00    +0.217 C  
DOCKED: ATOM     31  O5  UNL     1      14.062  -1.536  -5.102 +0.00 -0.00    -0.275 OA 
DOCKED: ATOM     32  N3  UNL     1      12.844   0.379  -5.154 +0.00 -0.00    -0.304 N  
DOCKED: ATOM     33  H34 UNL     1      12.308   1.002  -4.562 +0.00 +0.00    +0.149 HD 
DOCKED: BRANCH  32  34
DOCKED: ATOM     34  C23 UNL     1      13.687   1.058  -6.145 +0.00 +0.00    +0.161 C  
DOCKED: BRANCH  34  35
DOCKED: ATOM     35  C24 UNL     1      13.368   0.319  -7.474 +0.00 +0.00    +0.234 C  
DOCKED: ATOM     36  O6  UNL     1      12.565   0.786  -8.287 +0.00 -0.00    -0.274 OA 
DOCKED: ATOM     37  N4  UNL     1      14.041  -0.861  -7.671 +0.00 -0.00    -0.307 N  
DOCKED: ATOM     38  H36 UNL     1      14.542  -1.268  -6.888 +0.00 +0.00    +0.149 HD 
DOCKED: BRANCH  37  39
DOCKED: ATOM     39  C25 UNL     1      13.749  -1.746  -8.790 +0.00 +0.00    +0.100 C  
DOCKED: ATOM     40  C26 UNL     1      15.046  -2.262  -9.411 +0.00 +0.00    +0.033 C  
DOCKED: BRANCH  39  41
DOCKED: ATOM     41  C27 UNL     1      12.837  -2.873  -8.334 +0.00 -0.00    -0.027 A  
DOCKED: ATOM     42  C28 UNL     1      11.877  -2.629  -7.340 +0.00 +0.00    +0.005 A  
DOCKED: ATOM     43  C29 UNL     1      11.019  -3.643  -6.911 +0.00 +0.00    +0.000 A  
DOCKED: ATOM     44  C30 UNL     1      11.126  -4.924  -7.447 +0.00 +0.00    +0.000 A  
DOCKED: ATOM     45  C31 UNL     1      12.084  -5.192  -8.423 +0.00 +0.00    +0.000 A  
DOCKED: ATOM     46  C32 UNL     1      12.936  -4.173  -8.864 +0.00 +0.00    +0.005 A  
DOCKED: ENDBRANCH  39  41
DOCKED: ENDBRANCH  37  39
DOCKED: ENDBRANCH  34  35
DOCKED: BRANCH  34  47
DOCKED: ATOM     47  C33 UNL     1      15.205   1.001  -5.805 +0.00 +0.00    +0.012 C  
DOCKED: ATOM     48  C34 UNL     1      16.045   1.620  -6.931 +0.00 +0.00    +0.009 C  
DOCKED: ATOM     49  C35 UNL     1      15.588   1.693  -4.489 +0.00 +0.00    +0.009 C  
DOCKED: ENDBRANCH  34  47
DOCKED: ENDBRANCH  32  34
DOCKED: ENDBRANCH  29  30
DOCKED: BRANCH  29  51
DOCKED: ATOM     50  C1  UNL     1      13.942  -0.412  -1.946 +0.00 +0.00    +0.004 C  
DOCKED: ATOM     51  C2  UNL     1      12.463  -0.696  -2.210 +0.00 +0.00    +0.009 C  
DOCKED: ENDBRANCH  29  51
DOCKED: ENDBRANCH  28  29
DOCKED: ENDBRANCH   1  28
DOCKED: TORSDOF 19
DOCKED: TER
DOCKED: ENDMDL
________________________________________________________________________________


    FINAL DOCKED STATE:
    ________________________


Run:   16 / 20
Time taken for this run:   0.685s

DOCKED: MODEL        16
DOCKED: USER    Run = 16
DOCKED: USER
DOCKED: USER    Estimated Free Energy of Binding    =  +5.67 kcal/mol  [=(1)+(2)+(3)-(4)]
DOCKED: USER
DOCKED: USER    (1) Final Intermolecular Energy     =  +0.00 kcal/mol
DOCKED: USER        vdW + Hbond + desolv Energy     =  +0.00 kcal/mol
DOCKED: USER        Electrostatic Energy            =  +0.00 kcal/mol
DOCKED: USER        Moving Ligand-Fixed Receptor    =  +0.00 kcal/mol
DOCKED: USER        Moving Ligand-Moving Receptor   =  +0.00 kcal/mol
DOCKED: USER    (2) Final Total Internal Energy     = -13.34 kcal/mol
DOCKED: USER    (3) Torsional Free Energy           =  +5.67 kcal/mol
DOCKED: USER    (4) Unbound System's Energy         = -13.34 kcal/mol
DOCKED: USER
DOCKED: USER
DOCKED: REMARK  Name = ligands/ligand_18.pdb
DOCKED: REMARK  26 active torsions:
DOCKED: REMARK  status: ('A' for Active; 'I' for Inactive)
DOCKED: REMARK    1  A    between atoms: C1_1  and  C2_2
DOCKED: REMARK    2  A    between atoms: C2_2  and  C3_3
DOCKED: REMARK    3  A    between atoms: C3_3  and  C4_4
DOCKED: REMARK    4  A    between atoms: C3_3  and  C22_28
DOCKED: REMARK    5  A    between atoms: C4_4  and  C5_5
DOCKED: REMARK    6  A    between atoms: C5_5  and  O1_6
DOCKED: REMARK    7  A    between atoms: C5_5  and  C6_7
DOCKED: REMARK    8  A    between atoms: C6_7  and  C7_8
DOCKED: REMARK    9  A    between atoms: C6_7  and  N1_15
DOCKED: REMARK   10  A    between atoms: C7_8  and  C8_9
DOCKED: REMARK   11  A    between atoms: C14_16  and  C15_18
DOCKED: REMARK   12  A    between atoms: C15_18  and  C16_19
DOCKED: REMARK   13  A    between atoms: C15_18  and  N2_20
DOCKED: REMARK   14  A    between atoms: C17_21  and  C18_23
DOCKED: REMARK   15  A    between atoms: C18_23  and  O4_24
DOCKED: REMARK   16  A    between atoms: C18_23  and  C19_25
DOCKED: REMARK   17  A    between atoms: C19_25  and  C20_26
DOCKED: REMARK   18  A    between atoms: C19_25  and  C21_27
DOCKED: REMARK   19  A    between atoms: N3_30  and  C23_31
DOCKED: REMARK   20  A    between atoms: C23_31  and  C24_32
DOCKED: REMARK   21  A    between atoms: C23_31  and  C33_43
DOCKED: REMARK   22  A    between atoms: N4_34  and  C25_35
DOCKED: REMARK   23  A    between atoms: C25_35  and  C26_36
DOCKED: REMARK   24  A    between atoms: C25_35  and  C27_37
DOCKED: REMARK   25  A    between atoms: C33_43  and  C34_44
DOCKED: REMARK   26  A    between atoms: C33_43  and  C35_45
DOCKED: REMARK                            x       y       z     vdW  Elec       q    Type
DOCKED: REMARK                         _______ _______ _______ _____ _____    ______ ____
DOCKED: USER                              x       y       z     vdW  Elec       q    Type
DOCKED: USER                           _______ _______ _______ _____ _____    ______ ____
DOCKED: ROOT
DOCKED: ATOM      1  C5  UNL     1       9.253  -1.608   1.776 +0.00 +0.00    +0.136 C  
DOCKED: ENDROOT
DOCKED: BRANCH   1   2
DOCKED: ATOM      2  O1  UNL     1       8.477  -1.286   2.925 +0.00 -0.00    -0.390 OA 
DOCKED: ATOM      3  H10 UNL     1       7.649  -1.795   2.866 +0.00 +0.00    +0.210 HD 
DOCKED: ENDBRANCH   1   2
DOCKED: BRANCH   1   4
DOCKED: ATOM      4  C6  UNL     1       8.368  -2.290   0.696 +0.00 +0.00    +0.106 C  
DOCKED: BRANCH   4   5
DOCKED: ATOM      5  N1  UNL     1       8.382  -3.749   0.847 +0.00 -0.00    -0.308 N  
DOCKED: ATOM      6  C14 UNL     1       8.481  -4.573  -0.252 +0.00 +0.00    +0.233 C  
DOCKED: ATOM      7  O2  UNL     1       8.729  -4.166  -1.388 +0.00 -0.00    -0.274 OA 
DOCKED: ATOM      8  H19 UNL     1       7.997  -4.173   1.693 +0.00 +0.00    +0.149 HD 
DOCKED: BRANCH   6   9
DOCKED: ATOM      9  C15 UNL     1       8.282  -6.065   0.053 +0.00 +0.00    +0.156 C  
DOCKED: ATOM     10  C16 UNL     1       7.677  -6.762  -1.160 +0.00 +0.00    +0.038 C  
DOCKED: BRANCH   9  11
DOCKED: ATOM     11  N2  UNL     1       7.402  -6.159   1.208 +0.00 -0.00    -0.302 N  
DOCKED: ATOM     12  C17 UNL     1       6.869  -7.342   1.639 +0.00 +0.00    +0.242 C  
DOCKED: ATOM     13  O3  UNL     1       6.980  -8.395   1.020 +0.00 -0.00    -0.273 OA 
DOCKED: ATOM     14  H24 UNL     1       7.376  -5.360   1.843 +0.00 +0.00    +0.150 HD 
DOCKED: BRANCH  12  15
DOCKED: ATOM     15  C18 UNL     1       6.109  -7.237   2.979 +0.00 +0.00    +0.202 C  
DOCKED: BRANCH  15  16
DOCKED: ATOM     16  C19 UNL     1       4.591  -7.026   2.825 +0.00 +0.00    +0.020 C  
DOCKED: ATOM     17  C20 UNL     1       4.098  -7.402   1.431 +0.00 +0.00    +0.010 C  
DOCKED: ATOM     18  C21 UNL     1       4.120  -5.616   3.193 +0.00 +0.00    +0.010 C  
DOCKED: ENDBRANCH  15  16
DOCKED: BRANCH  15  19
DOCKED: ATOM     19  O4  UNL     1       6.637  -6.162   3.765 +0.00 -0.00    -0.382 OA 
DOCKED: ATOM     20  H26 UNL     1       7.360  -5.755   3.251 +0.00 +0.00    +0.210 HD 
DOCKED: ENDBRANCH  15  19
DOCKED: ENDBRANCH  12  15
DOCKED: ENDBRANCH   9  11
DOCKED: ENDBRANCH   6   9
DOCKED: ENDBRANCH   4   5
DOCKED: BRANCH   4  21
DOCKED: ATOM     21  C7  UNL     1       6.949  -1.714   0.531 +0.00 +0.00    +0.060 C  
DOCKED: BRANCH  21  22
DOCKED: ATOM     22  C8  UNL     1       5.990  -2.676  -0.139 +0.00 -0.00    -0.046 A  
DOCKED: ATOM     23  C9  UNL     1       5.946  -2.780  -1.535 +0.00 +0.00    +0.004 A  
DOCKED: ATOM     24  C10 UNL     1       5.101  -3.708  -2.149 +0.00 +0.00    +0.000 A  
DOCKED: ATOM     25  C11 UNL     1       4.293  -4.542  -1.375 +0.00 +0.00    +0.000 A  
DOCKED: ATOM     26  C12 UNL     1       4.328  -4.444   0.014 +0.00 +0.00    +0.000 A  
DOCKED: ATOM     27  C13 UNL     1       5.169  -3.517   0.628 +0.00 +0.00    +0.004 A  
DOCKED: ENDBRANCH  21  22
DOCKED: ENDBRANCH   4  21
DOCKED: ENDBRANCH   1   4
DOCKED: BRANCH   1  28
DOCKED: ATOM     28  C4  UNL     1      10.608  -2.247   2.170 +0.00 +0.00    +0.046 C  
DOCKED: BRANCH  28  29
DOCKED: ATOM     29  C3  UNL     1      10.749  -3.689   2.745 +0.00 +0.00    +0.077 C  
DOCKED: BRANCH  29  30
DOCKED: ATOM     30  C22 UNL     1       9.499  -4.174   3.500 +0.00 +0.00    +0.217 C  
DOCKED: ATOM     31  O5  UNL     1       8.992  -5.271   3.266 +0.00 -0.00    -0.275 OA 
DOCKED: ATOM     32  N3  UNL     1       9.043  -3.366   4.501 +0.00 -0.00    -0.304 N  
DOCKED: ATOM     33  H34 UNL     1       9.281  -2.383   4.445 +0.00 +0.00    +0.149 HD 
DOCKED: BRANCH  32  34
DOCKED: ATOM     34  C23 UNL     1       7.818  -3.653   5.256 +0.00 +0.00    +0.161 C  
DOCKED: BRANCH  34  35
DOCKED: ATOM     35  C24 UNL     1       6.679  -3.370   4.239 +0.00 +0.00    +0.234 C  
DOCKED: ATOM     36  O6  UNL     1       6.798  -3.665   3.047 +0.00 -0.00    -0.274 OA 
DOCKED: ATOM     37  N4  UNL     1       5.551  -2.787   4.763 +0.00 -0.00    -0.307 N  
DOCKED: ATOM     38  H36 UNL     1       5.593  -2.412   5.704 +0.00 +0.00    +0.149 HD 
DOCKED: BRANCH  37  39
DOCKED: ATOM     39  C25 UNL     1       4.454  -2.323   3.924 +0.00 +0.00    +0.100 C  
DOCKED: ATOM     40  C26 UNL     1       3.174  -2.198   4.747 +0.00 +0.00    +0.033 C  
DOCKED: BRANCH  39  41
DOCKED: ATOM     41  C27 UNL     1       4.838  -1.017   3.247 +0.00 -0.00    -0.027 A  
DOCKED: ATOM     42  C28 UNL     1       5.835  -0.209   3.814 +0.00 +0.00    +0.005 A  
DOCKED: ATOM     43  C29 UNL     1       6.215   0.989   3.206 +0.00 +0.00    +0.000 A  
DOCKED: ATOM     44  C30 UNL     1       5.585   1.412   2.038 +0.00 +0.00    +0.000 A  
DOCKED: ATOM     45  C31 UNL     1       4.580   0.632   1.468 +0.00 +0.00    +0.000 A  
DOCKED: ATOM     46  C32 UNL     1       4.207  -0.575   2.068 +0.00 +0.00    +0.005 A  
DOCKED: ENDBRANCH  39  41
DOCKED: ENDBRANCH  37  39
DOCKED: ENDBRANCH  34  35
DOCKED: BRANCH  34  47
DOCKED: ATOM     47  C33 UNL     1       7.670  -2.790   6.543 +0.00 +0.00    +0.012 C  
DOCKED: ATOM     48  C34 UNL     1       8.573  -3.316   7.667 +0.00 +0.00    +0.009 C  
DOCKED: ATOM     49  C35 UNL     1       7.975  -1.298   6.346 +0.00 +0.00    +0.009 C  
DOCKED: ENDBRANCH  34  47
DOCKED: ENDBRANCH  32  34
DOCKED: ENDBRANCH  29  30
DOCKED: BRANCH  29  51
DOCKED: ATOM     50  C1  UNL     1      12.208  -3.165   4.780 +0.00 +0.00    +0.004 C  
DOCKED: ATOM     51  C2  UNL     1      12.032  -4.013   3.522 +0.00 +0.00    +0.009 C  
DOCKED: ENDBRANCH  29  51
DOCKED: ENDBRANCH  28  29
DOCKED: ENDBRANCH   1  28
DOCKED: TORSDOF 19
DOCKED: TER
DOCKED: ENDMDL
________________________________________________________________________________


    FINAL DOCKED STATE:
    ________________________


Run:   17 / 20
Time taken for this run:   0.685s

DOCKED: MODEL        17
DOCKED: USER    Run = 17
DOCKED: USER
DOCKED: USER    Estimated Free Energy of Binding    =  +5.67 kcal/mol  [=(1)+(2)+(3)-(4)]
DOCKED: USER
DOCKED: USER    (1) Final Intermolecular Energy     =  +0.00 kcal/mol
DOCKED: USER        vdW + Hbond + desolv Energy     =  +0.00 kcal/mol
DOCKED: USER        Electrostatic Energy            =  +0.00 kcal/mol
DOCKED: USER        Moving Ligand-Fixed Receptor    =  +0.00 kcal/mol
DOCKED: USER        Moving Ligand-Moving Receptor   =  +0.00 kcal/mol
DOCKED: USER    (2) Final Total Internal Energy     = -13.06 kcal/mol
DOCKED: USER    (3) Torsional Free Energy           =  +5.67 kcal/mol
DOCKED: USER    (4) Unbound System's Energy         = -13.06 kcal/mol
DOCKED: USER
DOCKED: USER
DOCKED: REMARK  Name = ligands/ligand_18.pdb
DOCKED: REMARK  26 active torsions:
DOCKED: REMARK  status: ('A' for Active; 'I' for Inactive)
DOCKED: REMARK    1  A    between atoms: C1_1  and  C2_2
DOCKED: REMARK    2  A    between atoms: C2_2  and  C3_3
DOCKED: REMARK    3  A    between atoms: C3_3  and  C4_4
DOCKED: REMARK    4  A    between atoms: C3_3  and  C22_28
DOCKED: REMARK    5  A    between atoms: C4_4  and  C5_5
DOCKED: REMARK    6  A    between atoms: C5_5  and  O1_6
DOCKED: REMARK    7  A    between atoms: C5_5  and  C6_7
DOCKED: REMARK    8  A    between atoms: C6_7  and  C7_8
DOCKED: REMARK    9  A    between atoms: C6_7  and  N1_15
DOCKED: REMARK   10  A    between atoms: C7_8  and  C8_9
DOCKED: REMARK   11  A    between atoms: C14_16  and  C15_18
DOCKED: REMARK   12  A    between atoms: C15_18  and  C16_19
DOCKED: REMARK   13  A    between atoms: C15_18  and  N2_20
DOCKED: REMARK   14  A    between atoms: C17_21  and  C18_23
DOCKED: REMARK   15  A    between atoms: C18_23  and  O4_24
DOCKED: REMARK   16  A    between atoms: C18_23  and  C19_25
DOCKED: REMARK   17  A    between atoms: C19_25  and  C20_26
DOCKED: REMARK   18  A    between atoms: C19_25  and  C21_27
DOCKED: REMARK   19  A    between atoms: N3_30  and  C23_31
DOCKED: REMARK   20  A    between atoms: C23_31  and  C24_32
DOCKED: REMARK   21  A    between atoms: C23_31  and  C33_43
DOCKED: REMARK   22  A    between atoms: N4_34  and  C25_35
DOCKED: REMARK   23  A    between atoms: C25_35  and  C26_36
DOCKED: REMARK   24  A    between atoms: C25_35  and  C27_37
DOCKED: REMARK   25  A    between atoms: C33_43  and  C34_44
DOCKED: REMARK   26  A    between atoms: C33_43  and  C35_45
DOCKED: REMARK                            x       y       z     vdW  Elec       q    Type
DOCKED: REMARK                         _______ _______ _______ _____ _____    ______ ____
DOCKED: USER                              x       y       z     vdW  Elec       q    Type
DOCKED: USER                           _______ _______ _______ _____ _____    ______ ____
DOCKED: ROOT
DOCKED: ATOM      1  C5  UNL     1       9.729  -9.973  -0.919 +0.00 +0.00    +0.136 C  
DOCKED: ENDROOT
DOCKED: BRANCH   1   2
DOCKED: ATOM      2  O1  UNL     1      10.474  -9.577   0.228 +0.00 -0.00    -0.390 OA 
DOCKED: ATOM      3  H10 UNL     1      10.108  -8.726   0.529 +0.00 +0.00    +0.210 HD 
DOCKED: ENDBRANCH   1   2
DOCKED: BRANCH   1   4
DOCKED: ATOM      4  C6  UNL     1       9.652  -8.809  -1.947 +0.00 +0.00    +0.106 C  
DOCKED: BRANCH   4   5
DOCKED: ATOM      5  N1  UNL     1       9.718  -7.507  -1.276 +0.00 -0.00    -0.308 N  
DOCKED: ATOM      6  C14 UNL     1       9.800  -6.340  -2.002 +0.00 +0.00    +0.233 C  
DOCKED: ATOM      7  O2  UNL     1       9.658  -6.288  -3.224 +0.00 -0.00    -0.274 OA 
DOCKED: ATOM      8  H19 UNL     1      10.029  -7.455  -0.304 +0.00 +0.00    +0.149 HD 
DOCKED: BRANCH   6   9
DOCKED: ATOM      9  C15 UNL     1      10.061  -5.084  -1.157 +0.00 +0.00    +0.156 C  
DOCKED: ATOM     10  C16 UNL     1      11.211  -4.288  -1.763 +0.00 +0.00    +0.038 C  
DOCKED: BRANCH   9  11
DOCKED: ATOM     11  N2  UNL     1      10.379  -5.525   0.192 +0.00 -0.00    -0.302 N  
DOCKED: ATOM     12  C17 UNL     1       9.499  -5.419   1.233 +0.00 +0.00    +0.242 C  
DOCKED: ATOM     13  O3  UNL     1       8.427  -4.830   1.149 +0.00 -0.00    -0.273 OA 
DOCKED: ATOM     14  H24 UNL     1      11.187  -6.140   0.306 +0.00 +0.00    +0.150 HD 
DOCKED: BRANCH  12  15
DOCKED: ATOM     15  C18 UNL     1       9.976  -6.106   2.531 +0.00 +0.00    +0.202 C  
DOCKED: BRANCH  15  16
DOCKED: ATOM     16  C19 UNL     1      10.849  -5.211   3.431 +0.00 +0.00    +0.020 C  
DOCKED: ATOM     17  C20 UNL     1      12.090  -4.702   2.703 +0.00 +0.00    +0.010 C  
DOCKED: ATOM     18  C21 UNL     1      11.242  -5.864   4.759 +0.00 +0.00    +0.010 C  
DOCKED: ENDBRANCH  15  16
DOCKED: BRANCH  15  19
DOCKED: ATOM     19  O4  UNL     1      10.715  -7.293   2.221 +0.00 -0.00    -0.382 OA 
DOCKED: ATOM     20  H26 UNL     1      10.195  -7.795   1.565 +0.00 +0.00    +0.210 HD 
DOCKED: ENDBRANCH  15  19
DOCKED: ENDBRANCH  12  15
DOCKED: ENDBRANCH   9  11
DOCKED: ENDBRANCH   6   9
DOCKED: ENDBRANCH   4   5
DOCKED: BRANCH   4  21
DOCKED: ATOM     21  C7  UNL     1      10.607  -8.916  -3.151 +0.00 +0.00    +0.060 C  
DOCKED: BRANCH  21  22
DOCKED: ATOM     22  C8  UNL     1      12.068  -8.841  -2.761 +0.00 -0.00    -0.046 A  
DOCKED: ATOM     23  C9  UNL     1      12.753  -7.621  -2.798 +0.00 +0.00    +0.004 A  
DOCKED: ATOM     24  C10 UNL     1      14.086  -7.544  -2.384 +0.00 +0.00    +0.000 A  
DOCKED: ATOM     25  C11 UNL     1      14.746  -8.685  -1.928 +0.00 +0.00    +0.000 A  
DOCKED: ATOM     26  C12 UNL     1      14.074  -9.906  -1.891 +0.00 +0.00    +0.000 A  
DOCKED: ATOM     27  C13 UNL     1      12.745  -9.984  -2.306 +0.00 +0.00    +0.004 A  
DOCKED: ENDBRANCH  21  22
DOCKED: ENDBRANCH   4  21
DOCKED: ENDBRANCH   1   4
DOCKED: BRANCH   1  28
DOCKED: ATOM     28  C4  UNL     1       8.436 -10.727  -0.520 +0.00 +0.00    +0.046 C  
DOCKED: BRANCH  28  29
DOCKED: ATOM     29  C3  UNL     1       7.408 -10.189   0.521 +0.00 +0.00    +0.077 C  
DOCKED: BRANCH  29  30
DOCKED: ATOM     30  C22 UNL     1       8.023  -9.220   1.547 +0.00 +0.00    +0.217 C  
DOCKED: ATOM     31  O5  UNL     1       8.601  -8.194   1.194 +0.00 -0.00    -0.275 OA 
DOCKED: ATOM     32  N3  UNL     1       7.809  -9.514   2.863 +0.00 -0.00    -0.304 N  
DOCKED: ATOM     33  H34 UNL     1       7.619 -10.482   3.095 +0.00 +0.00    +0.149 HD 
DOCKED: BRANCH  32  34
DOCKED: ATOM     34  C23 UNL     1       8.397  -8.731   3.956 +0.00 +0.00    +0.161 C  
DOCKED: BRANCH  34  35
DOCKED: ATOM     35  C24 UNL     1       9.772  -9.410   4.202 +0.00 +0.00    +0.234 C  
DOCKED: ATOM     36  O6  UNL     1      10.176  -9.638   5.346 +0.00 -0.00    -0.274 OA 
DOCKED: ATOM     37  N4  UNL     1      10.480  -9.739   3.073 +0.00 -0.00    -0.307 N  
DOCKED: ATOM     38  H36 UNL     1      10.172  -9.363   2.183 +0.00 +0.00    +0.149 HD 
DOCKED: BRANCH  37  39
DOCKED: ATOM     39  C25 UNL     1      11.845 -10.245   3.129 +0.00 +0.00    +0.100 C  
DOCKED: ATOM     40  C26 UNL     1      11.991 -11.476   2.238 +0.00 +0.00    +0.033 C  
DOCKED: BRANCH  39  41
DOCKED: ATOM     41  C27 UNL     1      12.821  -9.142   2.758 +0.00 -0.00    -0.027 A  
DOCKED: ATOM     42  C28 UNL     1      13.466  -8.416   3.771 +0.00 +0.00    +0.005 A  
DOCKED: ATOM     43  C29 UNL     1      14.378  -7.405   3.457 +0.00 +0.00    +0.000 A  
DOCKED: ATOM     44  C30 UNL     1      14.636  -7.084   2.127 +0.00 +0.00    +0.000 A  
DOCKED: ATOM     45  C31 UNL     1      13.992  -7.782   1.106 +0.00 +0.00    +0.000 A  
DOCKED: ATOM     46  C32 UNL     1      13.090  -8.804   1.418 +0.00 +0.00    +0.005 A  
DOCKED: ENDBRANCH  39  41
DOCKED: ENDBRANCH  37  39
DOCKED: ENDBRANCH  34  35
DOCKED: BRANCH  34  47
DOCKED: ATOM     47  C33 UNL     1       7.523  -8.716   5.243 +0.00 +0.00    +0.012 C  
DOCKED: ATOM     48  C34 UNL     1       7.353  -7.286   5.778 +0.00 +0.00    +0.009 C  
DOCKED: ATOM     49  C35 UNL     1       6.126  -9.328   5.071 +0.00 +0.00    +0.009 C  
DOCKED: ENDBRANCH  34  47
DOCKED: ENDBRANCH  32  34
DOCKED: ENDBRANCH  29  30
DOCKED: BRANCH  29  51
DOCKED: ATOM     50  C1  UNL     1       7.234 -12.469   1.672 +0.00 +0.00    +0.004 C  
DOCKED: ATOM     51  C2  UNL     1       6.494 -11.217   1.202 +0.00 +0.00    +0.009 C  
DOCKED: ENDBRANCH  29  51
DOCKED: ENDBRANCH  28  29
DOCKED: ENDBRANCH   1  28
DOCKED: TORSDOF 19
DOCKED: TER
DOCKED: ENDMDL
________________________________________________________________________________


    FINAL DOCKED STATE:
    ________________________


Run:   18 / 20
Time taken for this run:   0.685s

DOCKED: MODEL        18
DOCKED: USER    Run = 18
DOCKED: USER
DOCKED: USER    Estimated Free Energy of Binding    =  +5.67 kcal/mol  [=(1)+(2)+(3)-(4)]
DOCKED: USER
DOCKED: USER    (1) Final Intermolecular Energy     =  +0.00 kcal/mol
DOCKED: USER        vdW + Hbond + desolv Energy     =  +0.00 kcal/mol
DOCKED: USER        Electrostatic Energy            =  +0.00 kcal/mol
DOCKED: USER        Moving Ligand-Fixed Receptor    =  +0.00 kcal/mol
DOCKED: USER        Moving Ligand-Moving Receptor   =  +0.00 kcal/mol
DOCKED: USER    (2) Final Total Internal Energy     = -13.32 kcal/mol
DOCKED: USER    (3) Torsional Free Energy           =  +5.67 kcal/mol
DOCKED: USER    (4) Unbound System's Energy         = -13.32 kcal/mol
DOCKED: USER
DOCKED: USER
DOCKED: REMARK  Name = ligands/ligand_18.pdb
DOCKED: REMARK  26 active torsions:
DOCKED: REMARK  status: ('A' for Active; 'I' for Inactive)
DOCKED: REMARK    1  A    between atoms: C1_1  and  C2_2
DOCKED: REMARK    2  A    between atoms: C2_2  and  C3_3
DOCKED: REMARK    3  A    between atoms: C3_3  and  C4_4
DOCKED: REMARK    4  A    between atoms: C3_3  and  C22_28
DOCKED: REMARK    5  A    between atoms: C4_4  and  C5_5
DOCKED: REMARK    6  A    between atoms: C5_5  and  O1_6
DOCKED: REMARK    7  A    between atoms: C5_5  and  C6_7
DOCKED: REMARK    8  A    between atoms: C6_7  and  C7_8
DOCKED: REMARK    9  A    between atoms: C6_7  and  N1_15
DOCKED: REMARK   10  A    between atoms: C7_8  and  C8_9
DOCKED: REMARK   11  A    between atoms: C14_16  and  C15_18
DOCKED: REMARK   12  A    between atoms: C15_18  and  C16_19
DOCKED: REMARK   13  A    between atoms: C15_18  and  N2_20
DOCKED: REMARK   14  A    between atoms: C17_21  and  C18_23
DOCKED: REMARK   15  A    between atoms: C18_23  and  O4_24
DOCKED: REMARK   16  A    between atoms: C18_23  and  C19_25
DOCKED: REMARK   17  A    between atoms: C19_25  and  C20_26
DOCKED: REMARK   18  A    between atoms: C19_25  and  C21_27
DOCKED: REMARK   19  A    between atoms: N3_30  and  C23_31
DOCKED: REMARK   20  A    between atoms: C23_31  and  C24_32
DOCKED: REMARK   21  A    between atoms: C23_31  and  C33_43
DOCKED: REMARK   22  A    between atoms: N4_34  and  C25_35
DOCKED: REMARK   23  A    between atoms: C25_35  and  C26_36
DOCKED: REMARK   24  A    between atoms: C25_35  and  C27_37
DOCKED: REMARK   25  A    between atoms: C33_43  and  C34_44
DOCKED: REMARK   26  A    between atoms: C33_43  and  C35_45
DOCKED: REMARK                            x       y       z     vdW  Elec       q    Type
DOCKED: REMARK                         _______ _______ _______ _____ _____    ______ ____
DOCKED: USER                              x       y       z     vdW  Elec       q    Type
DOCKED: USER                           _______ _______ _______ _____ _____    ______ ____
DOCKED: ROOT
DOCKED: ATOM      1  C5  UNL     1       7.618  -4.273  -1.524 +0.00 +0.00    +0.136 C  
DOCKED: ENDROOT
DOCKED: BRANCH   1   2
DOCKED: ATOM      2  O1  UNL     1       8.368  -4.003  -0.345 +0.00 -0.00    -0.390 OA 
DOCKED: ATOM      3  H10 UNL     1       8.662  -3.076  -0.396 +0.00 +0.00    +0.210 HD 
DOCKED: ENDBRANCH   1   2
DOCKED: BRANCH   1   4
DOCKED: ATOM      4  C6  UNL     1       7.862  -3.167  -2.589 +0.00 +0.00    +0.106 C  
DOCKED: BRANCH   4   5
DOCKED: ATOM      5  N1  UNL     1       6.889  -2.078  -2.451 +0.00 -0.00    -0.308 N  
DOCKED: ATOM      6  C14 UNL     1       6.289  -1.520  -3.558 +0.00 +0.00    +0.233 C  
DOCKED: ATOM      7  O2  UNL     1       6.388  -1.989  -4.693 +0.00 -0.00    -0.274 OA 
DOCKED: ATOM      8  H19 UNL     1       6.887  -1.508  -1.603 +0.00 +0.00    +0.149 HD 
DOCKED: BRANCH   6   9
DOCKED: ATOM      9  C15 UNL     1       5.453  -0.267  -3.263 +0.00 +0.00    +0.156 C  
DOCKED: ATOM     10  C16 UNL     1       5.484   0.667  -4.467 +0.00 +0.00    +0.038 C  
DOCKED: BRANCH   9  11
DOCKED: ATOM     11  N2  UNL     1       6.025   0.371  -2.087 +0.00 -0.00    -0.302 N  
DOCKED: ATOM     12  C17 UNL     1       5.638   1.608  -1.653 +0.00 +0.00    +0.242 C  
DOCKED: ATOM     13  O3  UNL     1       4.877   2.334  -2.283 +0.00 -0.00    -0.273 OA 
DOCKED: ATOM     14  H24 UNL     1       6.555  -0.220  -1.445 +0.00 +0.00    +0.150 HD 
DOCKED: BRANCH  12  15
DOCKED: ATOM     15  C18 UNL     1       6.246   2.015  -0.293 +0.00 +0.00    +0.202 C  
DOCKED: BRANCH  15  16
DOCKED: ATOM     16  C19 UNL     1       7.524   2.866  -0.406 +0.00 +0.00    +0.020 C  
DOCKED: ATOM     17  C20 UNL     1       7.709   3.440  -1.808 +0.00 +0.00    +0.010 C  
DOCKED: ATOM     18  C21 UNL     1       8.795   2.140   0.043 +0.00 +0.00    +0.010 C  
DOCKED: ENDBRANCH  15  16
DOCKED: BRANCH  15  19
DOCKED: ATOM     19  O4  UNL     1       6.547   0.850   0.484 +0.00 -0.00    -0.382 OA 
DOCKED: ATOM     20  H26 UNL     1       6.241   0.075  -0.026 +0.00 +0.00    +0.210 HD 
DOCKED: ENDBRANCH  15  19
DOCKED: ENDBRANCH  12  15
DOCKED: ENDBRANCH   9  11
DOCKED: ENDBRANCH   6   9
DOCKED: ENDBRANCH   4   5
DOCKED: BRANCH   4  21
DOCKED: ATOM     21  C7  UNL     1       9.313  -2.668  -2.715 +0.00 +0.00    +0.060 C  
DOCKED: BRANCH  21  22
DOCKED: ATOM     22  C8  UNL     1       9.415  -1.284  -3.322 +0.00 -0.00    -0.046 A  
DOCKED: ATOM     23  C9  UNL     1       9.513  -0.153  -2.503 +0.00 +0.00    +0.004 A  
DOCKED: ATOM     24  C10 UNL     1       9.663   1.118  -3.065 +0.00 +0.00    +0.000 A  
DOCKED: ATOM     25  C11 UNL     1       9.718   1.270  -4.451 +0.00 +0.00    +0.000 A  
DOCKED: ATOM     26  C12 UNL     1       9.617   0.151  -5.275 +0.00 +0.00    +0.000 A  
DOCKED: ATOM     27  C13 UNL     1       9.465  -1.117  -4.715 +0.00 +0.00    +0.004 A  
DOCKED: ENDBRANCH  21  22
DOCKED: ENDBRANCH   4  21
DOCKED: ENDBRANCH   1   4
DOCKED: BRANCH   1  28
DOCKED: ATOM     28  C4  UNL     1       6.168  -4.703  -1.186 +0.00 +0.00    +0.046 C  
DOCKED: BRANCH  28  29
DOCKED: ATOM     29  C3  UNL     1       5.074  -3.721  -0.667 +0.00 +0.00    +0.077 C  
DOCKED: BRANCH  29  30
DOCKED: ATOM     30  C22 UNL     1       5.643  -2.531   0.128 +0.00 +0.00    +0.217 C  
DOCKED: ATOM     31  O5  UNL     1       5.307  -1.374  -0.120 +0.00 -0.00    -0.275 OA 
DOCKED: ATOM     32  N3  UNL     1       6.463  -2.838   1.175 +0.00 -0.00    -0.304 N  
DOCKED: ATOM     33  H34 UNL     1       6.941  -3.731   1.141 +0.00 +0.00    +0.149 HD 
DOCKED: BRANCH  32  34
DOCKED: ATOM     34  C23 UNL     1       7.144  -1.814   1.975 +0.00 +0.00    +0.161 C  
DOCKED: BRANCH  34  35
DOCKED: ATOM     35  C24 UNL     1       8.260  -1.286   1.032 +0.00 +0.00    +0.234 C  
DOCKED: ATOM     36  O6  UNL     1       8.053  -1.121  -0.174 +0.00 -0.00    -0.274 OA 
DOCKED: ATOM     37  N4  UNL     1       9.464  -1.015   1.634 +0.00 -0.00    -0.307 N  
DOCKED: ATOM     38  H36 UNL     1       9.614  -1.342   2.583 +0.00 +0.00    +0.149 HD 
DOCKED: BRANCH  37  39
DOCKED: ATOM     39  C25 UNL     1      10.652  -0.655   0.872 +0.00 +0.00    +0.100 C  
DOCKED: ATOM     40  C26 UNL     1      11.663   0.055   1.770 +0.00 +0.00    +0.033 C  
DOCKED: BRANCH  39  41
DOCKED: ATOM     41  C27 UNL     1      11.235  -1.892   0.209 +0.00 -0.00    -0.027 A  
DOCKED: ATOM     42  C28 UNL     1      11.014  -3.155   0.780 +0.00 +0.00    +0.005 A  
DOCKED: ATOM     43  C29 UNL     1      11.527  -4.309   0.184 +0.00 +0.00    +0.000 A  
DOCKED: ATOM     44  C30 UNL     1      12.294  -4.216  -0.975 +0.00 +0.00    +0.000 A  
DOCKED: ATOM     45  C31 UNL     1      12.540  -2.969  -1.548 +0.00 +0.00    +0.000 A  
DOCKED: ATOM     46  C32 UNL     1      12.015  -1.814  -0.961 +0.00 +0.00    +0.005 A  
DOCKED: ENDBRANCH  39  41
DOCKED: ENDBRANCH  37  39
DOCKED: ENDBRANCH  34  35
DOCKED: BRANCH  34  47
DOCKED: ATOM     47  C33 UNL     1       7.729  -2.362   3.309 +0.00 +0.00    +0.012 C  
DOCKED: ATOM     48  C34 UNL     1       6.624  -2.561   4.355 +0.00 +0.00    +0.009 C  
DOCKED: ATOM     49  C35 UNL     1       8.497  -3.684   3.171 +0.00 +0.00    +0.009 C  
DOCKED: ENDBRANCH  34  47
DOCKED: ENDBRANCH  32  34
DOCKED: ENDBRANCH  29  30
DOCKED: BRANCH  29  51
DOCKED: ATOM     50  C1  UNL     1       3.243  -3.414   1.094 +0.00 +0.00    +0.004 C  
DOCKED: ATOM     51  C2  UNL     1       3.858  -4.333   0.039 +0.00 +0.00    +0.009 C  
DOCKED: ENDBRANCH  29  51
DOCKED: ENDBRANCH  28  29
DOCKED: ENDBRANCH   1  28
DOCKED: TORSDOF 19
DOCKED: TER
DOCKED: ENDMDL
________________________________________________________________________________


    FINAL DOCKED STATE:
    ________________________


Run:   19 / 20
Time taken for this run:   0.685s

DOCKED: MODEL        19
DOCKED: USER    Run = 19
DOCKED: USER
DOCKED: USER    Estimated Free Energy of Binding    =  +5.67 kcal/mol  [=(1)+(2)+(3)-(4)]
DOCKED: USER
DOCKED: USER    (1) Final Intermolecular Energy     =  +0.00 kcal/mol
DOCKED: USER        vdW + Hbond + desolv Energy     =  +0.00 kcal/mol
DOCKED: USER        Electrostatic Energy            =  +0.00 kcal/mol
DOCKED: USER        Moving Ligand-Fixed Receptor    =  +0.00 kcal/mol
DOCKED: USER        Moving Ligand-Moving Receptor   =  +0.00 kcal/mol
DOCKED: USER    (2) Final Total Internal Energy     = -13.08 kcal/mol
DOCKED: USER    (3) Torsional Free Energy           =  +5.67 kcal/mol
DOCKED: USER    (4) Unbound System's Energy         = -13.08 kcal/mol
DOCKED: USER
DOCKED: USER
DOCKED: REMARK  Name = ligands/ligand_18.pdb
DOCKED: REMARK  26 active torsions:
DOCKED: REMARK  status: ('A' for Active; 'I' for Inactive)
DOCKED: REMARK    1  A    between atoms: C1_1  and  C2_2
DOCKED: REMARK    2  A    between atoms: C2_2  and  C3_3
DOCKED: REMARK    3  A    between atoms: C3_3  and  C4_4
DOCKED: REMARK    4  A    between atoms: C3_3  and  C22_28
DOCKED: REMARK    5  A    between atoms: C4_4  and  C5_5
DOCKED: REMARK    6  A    between atoms: C5_5  and  O1_6
DOCKED: REMARK    7  A    between atoms: C5_5  and  C6_7
DOCKED: REMARK    8  A    between atoms: C6_7  and  C7_8
DOCKED: REMARK    9  A    between atoms: C6_7  and  N1_15
DOCKED: REMARK   10  A    between atoms: C7_8  and  C8_9
DOCKED: REMARK   11  A    between atoms: C14_16  and  C15_18
DOCKED: REMARK   12  A    between atoms: C15_18  and  C16_19
DOCKED: REMARK   13  A    between atoms: C15_18  and  N2_20
DOCKED: REMARK   14  A    between atoms: C17_21  and  C18_23
DOCKED: REMARK   15  A    between atoms: C18_23  and  O4_24
DOCKED: REMARK   16  A    between atoms: C18_23  and  C19_25
DOCKED: REMARK   17  A    between atoms: C19_25  and  C20_26
DOCKED: REMARK   18  A    between atoms: C19_25  and  C21_27
DOCKED: REMARK   19  A    between atoms: N3_30  and  C23_31
DOCKED: REMARK   20  A    between atoms: C23_31  and  C24_32
DOCKED: REMARK   21  A    between atoms: C23_31  and  C33_43
DOCKED: REMARK   22  A    between atoms: N4_34  and  C25_35
DOCKED: REMARK   23  A    between atoms: C25_35  and  C26_36
DOCKED: REMARK   24  A    between atoms: C25_35  and  C27_37
DOCKED: REMARK   25  A    between atoms: C33_43  and  C34_44
DOCKED: REMARK   26  A    between atoms: C33_43  and  C35_45
DOCKED: REMARK                            x       y       z     vdW  Elec       q    Type
DOCKED: REMARK                         _______ _______ _______ _____ _____    ______ ____
DOCKED: USER                              x       y       z     vdW  Elec       q    Type
DOCKED: USER                           _______ _______ _______ _____ _____    ______ ____
DOCKED: ROOT
DOCKED: ATOM      1  C5  UNL     1      10.611  -2.471   2.014 +0.00 +0.00    +0.136 C  
DOCKED: ENDROOT
DOCKED: BRANCH   1   2
DOCKED: ATOM      2  O1  UNL     1       9.940  -3.460   1.240 +0.00 -0.00    -0.390 OA 
DOCKED: ATOM      3  H10 UNL     1      10.070  -3.229   0.303 +0.00 +0.00    +0.210 HD 
DOCKED: ENDBRANCH   1   2
DOCKED: BRANCH   1   4
DOCKED: ATOM      4  C6  UNL     1      10.028  -1.061   1.719 +0.00 +0.00    +0.106 C  
DOCKED: BRANCH   4   5
DOCKED: ATOM      5  N1  UNL     1       9.374  -1.024   0.408 +0.00 -0.00    -0.308 N  
DOCKED: ATOM      6  C14 UNL     1       8.463  -0.038   0.097 +0.00 +0.00    +0.233 C  
DOCKED: ATOM      7  O2  UNL     1       8.263   0.949   0.806 +0.00 -0.00    -0.274 OA 
DOCKED: ATOM      8  H19 UNL     1       9.323  -1.876  -0.156 +0.00 +0.00    +0.149 HD 
DOCKED: BRANCH   6   9
DOCKED: ATOM      9  C15 UNL     1       7.723  -0.253  -1.231 +0.00 +0.00    +0.156 C  
DOCKED: ATOM     10  C16 UNL     1       6.396   0.498  -1.207 +0.00 +0.00    +0.038 C  
DOCKED: BRANCH   9  11
DOCKED: ATOM     11  N2  UNL     1       7.516  -1.684  -1.388 +0.00 -0.00    -0.302 N  
DOCKED: ATOM     12  C17 UNL     1       8.480  -2.523  -1.872 +0.00 +0.00    +0.242 C  
DOCKED: ATOM     13  O3  UNL     1       9.546  -2.128  -2.332 +0.00 -0.00    -0.273 OA 
DOCKED: ATOM     14  H24 UNL     1       6.716  -2.097  -0.906 +0.00 +0.00    +0.150 HD 
DOCKED: BRANCH  12  15
DOCKED: ATOM     15  C18 UNL     1       8.108  -4.019  -1.791 +0.00 +0.00    +0.202 C  
DOCKED: BRANCH  15  16
DOCKED: ATOM     16  C19 UNL     1       6.741  -4.292  -1.136 +0.00 +0.00    +0.020 C  
DOCKED: ATOM     17  C20 UNL     1       6.823  -4.287   0.388 +0.00 +0.00    +0.010 C  
DOCKED: ATOM     18  C21 UNL     1       6.063  -5.574  -1.628 +0.00 +0.00    +0.010 C  
DOCKED: ENDBRANCH  15  16
DOCKED: BRANCH  15  19
DOCKED: ATOM     19  O4  UNL     1       9.109  -4.740  -1.062 +0.00 -0.00    -0.382 OA 
DOCKED: ATOM     20  H26 UNL     1       9.818  -4.107  -0.840 +0.00 +0.00    +0.210 HD 
DOCKED: ENDBRANCH  15  19
DOCKED: ENDBRANCH  12  15
DOCKED: ENDBRANCH   9  11
DOCKED: ENDBRANCH   6   9
DOCKED: ENDBRANCH   4   5
DOCKED: BRANCH   4  21
DOCKED: ATOM     21  C7  UNL     1       9.169  -0.444   2.839 +0.00 +0.00    +0.060 C  
DOCKED: BRANCH  21  22
DOCKED: ATOM     22  C8  UNL     1       7.989  -1.309   3.230 +0.00 -0.00    -0.046 A  
DOCKED: ATOM     23  C9  UNL     1       6.763  -1.182   2.565 +0.00 +0.00    +0.004 A  
DOCKED: ATOM     24  C10 UNL     1       5.693  -2.020   2.890 +0.00 +0.00    +0.000 A  
DOCKED: ATOM     25  C11 UNL     1       5.837  -2.993   3.879 +0.00 +0.00    +0.000 A  
DOCKED: ATOM     26  C12 UNL     1       7.052  -3.124   4.549 +0.00 +0.00    +0.000 A  
DOCKED: ATOM     27  C13 UNL     1       8.121  -2.287   4.228 +0.00 +0.00    +0.004 A  
DOCKED: ENDBRANCH  21  22
DOCKED: ENDBRANCH   4  21
DOCKED: ENDBRANCH   1   4
DOCKED: BRANCH   1  28
DOCKED: ATOM     28  C4  UNL     1      12.145  -2.684   1.995 +0.00 +0.00    +0.046 C  
DOCKED: BRANCH  28  29
DOCKED: ATOM     29  C3  UNL     1      12.897  -3.454   0.868 +0.00 +0.00    +0.077 C  
DOCKED: BRANCH  29  30
DOCKED: ATOM     30  C22 UNL     1      12.464  -3.044  -0.551 +0.00 +0.00    +0.217 C  
DOCKED: ATOM     31  O5  UNL     1      11.339  -2.600  -0.776 +0.00 -0.00    -0.275 OA 
DOCKED: ATOM     32  N3  UNL     1      13.421  -3.113  -1.521 +0.00 -0.00    -0.304 N  
DOCKED: ATOM     33  H34 UNL     1      14.191  -3.753  -1.366 +0.00 +0.00    +0.149 HD 
DOCKED: BRANCH  32  34
DOCKED: ATOM     34  C23 UNL     1      13.140  -2.831  -2.934 +0.00 +0.00    +0.161 C  
DOCKED: BRANCH  34  35
DOCKED: ATOM     35  C24 UNL     1      13.034  -1.282  -2.991 +0.00 +0.00    +0.234 C  
DOCKED: ATOM     36  O6  UNL     1      14.004  -0.586  -3.305 +0.00 -0.00    -0.274 OA 
DOCKED: ATOM     37  N4  UNL     1      11.802  -0.762  -2.680 +0.00 -0.00    -0.307 N  
DOCKED: ATOM     38  H36 UNL     1      11.111  -1.375  -2.260 +0.00 +0.00    +0.149 HD 
DOCKED: BRANCH  37  39
DOCKED: ATOM     39  C25 UNL     1      11.573   0.670  -2.543 +0.00 +0.00    +0.100 C  
DOCKED: ATOM     40  C26 UNL     1      10.220   1.050  -3.139 +0.00 +0.00    +0.033 C  
DOCKED: BRANCH  39  41
DOCKED: ATOM     41  C27 UNL     1      11.698   1.076  -1.084 +0.00 -0.00    -0.027 A  
DOCKED: ATOM     42  C28 UNL     1      10.921   2.134  -0.588 +0.00 +0.00    +0.005 A  
DOCKED: ATOM     43  C29 UNL     1      11.007   2.518   0.751 +0.00 +0.00    +0.000 A  
DOCKED: ATOM     44  C30 UNL     1      11.893   1.872   1.609 +0.00 +0.00    +0.000 A  
DOCKED: ATOM     45  C31 UNL     1      12.687   0.829   1.133 +0.00 +0.00    +0.000 A  
DOCKED: ATOM     46  C32 UNL     1      12.591   0.433  -0.205 +0.00 +0.00    +0.005 A  
DOCKED: ENDBRANCH  39  41
DOCKED: ENDBRANCH  37  39
DOCKED: ENDBRANCH  34  35
DOCKED: BRANCH  34  47
DOCKED: ATOM     47  C33 UNL     1      11.843  -3.516  -3.453 +0.00 +0.00    +0.012 C  
DOCKED: ATOM     48  C34 UNL     1      11.545  -3.106  -4.903 +0.00 +0.00    +0.009 C  
DOCKED: ATOM     49  C35 UNL     1      11.864  -5.050  -3.388 +0.00 +0.00    +0.009 C  
DOCKED: ENDBRANCH  34  47
DOCKED: ENDBRANCH  32  34
DOCKED: ENDBRANCH  29  30
DOCKED: BRANCH  29  51
DOCKED: ATOM     50  C1  UNL     1      11.930  -5.728   0.200 +0.00 +0.00    +0.004 C  
DOCKED: ATOM     51  C2  UNL     1      12.993  -4.980   1.003 +0.00 +0.00    +0.009 C  
DOCKED: ENDBRANCH  29  51
DOCKED: ENDBRANCH  28  29
DOCKED: ENDBRANCH   1  28
DOCKED: TORSDOF 19
DOCKED: TER
DOCKED: ENDMDL
________________________________________________________________________________


    FINAL DOCKED STATE:
    ________________________


Run:   20 / 20
Time taken for this run:   0.685s

DOCKED: MODEL        20
DOCKED: USER    Run = 20
DOCKED: USER
DOCKED: USER    Estimated Free Energy of Binding    =  +5.67 kcal/mol  [=(1)+(2)+(3)-(4)]
DOCKED: USER
DOCKED: USER    (1) Final Intermolecular Energy     =  +0.00 kcal/mol
DOCKED: USER        vdW + Hbond + desolv Energy     =  +0.00 kcal/mol
DOCKED: USER        Electrostatic Energy            =  +0.00 kcal/mol
DOCKED: USER        Moving Ligand-Fixed Receptor    =  +0.00 kcal/mol
DOCKED: USER        Moving Ligand-Moving Receptor   =  +0.00 kcal/mol
DOCKED: USER    (2) Final Total Internal Energy     = -13.33 kcal/mol
DOCKED: USER    (3) Torsional Free Energy           =  +5.67 kcal/mol
DOCKED: USER    (4) Unbound System's Energy         = -13.33 kcal/mol
DOCKED: USER
DOCKED: USER
DOCKED: REMARK  Name = ligands/ligand_18.pdb
DOCKED: REMARK  26 active torsions:
DOCKED: REMARK  status: ('A' for Active; 'I' for Inactive)
DOCKED: REMARK    1  A    between atoms: C1_1  and  C2_2
DOCKED: REMARK    2  A    between atoms: C2_2  and  C3_3
DOCKED: REMARK    3  A    between atoms: C3_3  and  C4_4
DOCKED: REMARK    4  A    between atoms: C3_3  and  C22_28
DOCKED: REMARK    5  A    between atoms: C4_4  and  C5_5
DOCKED: REMARK    6  A    between atoms: C5_5  and  O1_6
DOCKED: REMARK    7  A    between atoms: C5_5  and  C6_7
DOCKED: REMARK    8  A    between atoms: C6_7  and  C7_8
DOCKED: REMARK    9  A    between atoms: C6_7  and  N1_15
DOCKED: REMARK   10  A    between atoms: C7_8  and  C8_9
DOCKED: REMARK   11  A    between atoms: C14_16  and  C15_18
DOCKED: REMARK   12  A    between atoms: C15_18  and  C16_19
DOCKED: REMARK   13  A    between atoms: C15_18  and  N2_20
DOCKED: REMARK   14  A    between atoms: C17_21  and  C18_23
DOCKED: REMARK   15  A    between atoms: C18_23  and  O4_24
DOCKED: REMARK   16  A    between atoms: C18_23  and  C19_25
DOCKED: REMARK   17  A    between atoms: C19_25  and  C20_26
DOCKED: REMARK   18  A    between atoms: C19_25  and  C21_27
DOCKED: REMARK   19  A    between atoms: N3_30  and  C23_31
DOCKED: REMARK   20  A    between atoms: C23_31  and  C24_32
DOCKED: REMARK   21  A    between atoms: C23_31  and  C33_43
DOCKED: REMARK   22  A    between atoms: N4_34  and  C25_35
DOCKED: REMARK   23  A    between atoms: C25_35  and  C26_36
DOCKED: REMARK   24  A    between atoms: C25_35  and  C27_37
DOCKED: REMARK   25  A    between atoms: C33_43  and  C34_44
DOCKED: REMARK   26  A    between atoms: C33_43  and  C35_45
DOCKED: REMARK                            x       y       z     vdW  Elec       q    Type
DOCKED: REMARK                         _______ _______ _______ _____ _____    ______ ____
DOCKED: USER                              x       y       z     vdW  Elec       q    Type
DOCKED: USER                           _______ _______ _______ _____ _____    ______ ____
DOCKED: ROOT
DOCKED: ATOM      1  C5  UNL     1       5.887  -1.492  -1.405 +0.00 +0.00    +0.136 C  
DOCKED: ENDROOT
DOCKED: BRANCH   1   2
DOCKED: ATOM      2  O1  UNL     1       5.475  -2.170  -0.224 +0.00 -0.00    -0.390 OA 
DOCKED: ATOM      3  H10 UNL     1       5.756  -3.098  -0.312 +0.00 +0.00    +0.210 HD 
DOCKED: ENDBRANCH   1   2
DOCKED: BRANCH   1   4
DOCKED: ATOM      4  C6  UNL     1       6.345  -2.510  -2.486 +0.00 +0.00    +0.106 C  
DOCKED: BRANCH   4   5
DOCKED: ATOM      5  N1  UNL     1       7.776  -2.802  -2.364 +0.00 -0.00    -0.308 N  
DOCKED: ATOM      6  C14 UNL     1       8.578  -2.896  -3.481 +0.00 +0.00    +0.233 C  
DOCKED: ATOM      7  O2  UNL     1       8.205  -2.585  -4.612 +0.00 -0.00    -0.274 OA 
DOCKED: ATOM      8  H19 UNL     1       8.129  -3.254  -1.518 +0.00 +0.00    +0.149 HD 
DOCKED: BRANCH   6   9
DOCKED: ATOM      9  C15 UNL     1      10.001  -3.401  -3.200 +0.00 +0.00    +0.156 C  
DOCKED: ATOM     10  C16 UNL     1      10.520  -4.171  -4.408 +0.00 +0.00    +0.038 C  
DOCKED: BRANCH   9  11
DOCKED: ATOM     11  N2  UNL     1       9.937  -4.250  -2.021 +0.00 -0.00    -0.302 N  
DOCKED: ATOM     12  C17 UNL     1      10.988  -5.018  -1.602 +0.00 +0.00    +0.242 C  
DOCKED: ATOM     13  O3  UNL     1      12.020  -5.155  -2.250 +0.00 -0.00    -0.273 OA 
DOCKED: ATOM     14  H24 UNL     1       9.170  -4.085  -1.366 +0.00 +0.00    +0.150 HD 
DOCKED: BRANCH  12  15
DOCKED: ATOM     15  C18 UNL     1      10.761  -5.702  -0.237 +0.00 +0.00    +0.202 C  
DOCKED: BRANCH  15  16
DOCKED: ATOM     16  C19 UNL     1      10.204  -7.134  -0.337 +0.00 +0.00    +0.020 C  
DOCKED: ATOM     17  C20 UNL     1      10.384  -7.724  -1.734 +0.00 +0.00    +0.010 C  
DOCKED: ATOM     18  C21 UNL     1       8.746  -7.265   0.111 +0.00 +0.00    +0.010 C  
DOCKED: ENDBRANCH  15  16
DOCKED: BRANCH  15  19
DOCKED: ATOM     19  O4  UNL     1       9.864  -4.924   0.564 +0.00 -0.00    -0.382 OA 
DOCKED: ATOM     20  H26 UNL     1       9.609  -4.143   0.038 +0.00 +0.00    +0.210 HD 
DOCKED: ENDBRANCH  15  19
DOCKED: ENDBRANCH  12  15
DOCKED: ENDBRANCH   9  11
DOCKED: ENDBRANCH   6   9
DOCKED: ENDBRANCH   4   5
DOCKED: BRANCH   4  21
DOCKED: ATOM     21  C7  UNL     1       5.480  -3.778  -2.621 +0.00 +0.00    +0.060 C  
DOCKED: BRANCH  21  22
DOCKED: ATOM     22  C8  UNL     1       6.225  -4.943  -3.237 +0.00 -0.00    -0.046 A  
DOCKED: ATOM     23  C9  UNL     1       6.806  -5.926  -2.426 +0.00 +0.00    +0.004 A  
DOCKED: ATOM     24  C10 UNL     1       7.445  -7.029  -2.999 +0.00 +0.00    +0.000 A  
DOCKED: ATOM     25  C11 UNL     1       7.508  -7.162  -4.386 +0.00 +0.00    +0.000 A  
DOCKED: ATOM     26  C12 UNL     1       6.936  -6.187  -5.202 +0.00 +0.00    +0.000 A  
DOCKED: ATOM     27  C13 UNL     1       6.300  -5.085  -4.632 +0.00 +0.00    +0.004 A  
DOCKED: ENDBRANCH  21  22
DOCKED: ENDBRANCH   4  21
DOCKED: ENDBRANCH   1   4
DOCKED: BRANCH   1  28
DOCKED: ATOM     28  C4  UNL     1       6.784  -0.273  -1.074 +0.00 +0.00    +0.046 C  
DOCKED: BRANCH  28  29
DOCKED: ATOM     29  C3  UNL     1       8.247  -0.395  -0.547 +0.00 +0.00    +0.077 C  
DOCKED: BRANCH  29  30
DOCKED: ATOM     30  C22 UNL     1       8.515  -1.699   0.226 +0.00 +0.00    +0.217 C  
DOCKED: ATOM     31  O5  UNL     1       9.475  -2.419  -0.043 +0.00 -0.00    -0.275 OA 
DOCKED: ATOM     32  N3  UNL     1       7.687  -1.961   1.279 +0.00 -0.00    -0.304 N  
DOCKED: ATOM     33  H34 UNL     1       6.769  -1.533   1.262 +0.00 +0.00    +0.149 HD 
DOCKED: BRANCH  32  34
DOCKED: ATOM     34  C23 UNL     1       7.766  -3.201   2.061 +0.00 +0.00    +0.161 C  
DOCKED: BRANCH  34  35
DOCKED: ATOM     35  C24 UNL     1       7.171  -4.277   1.112 +0.00 +0.00    +0.234 C  
DOCKED: ATOM     36  O6  UNL     1       7.436  -4.283  -0.094 +0.00 -0.00    -0.274 OA 
DOCKED: ATOM     37  N4  UNL     1       6.356  -5.207   1.709 +0.00 -0.00    -0.307 N  
DOCKED: ATOM     38  H36 UNL     1       6.043  -5.035   2.659 +0.00 +0.00    +0.149 HD 
DOCKED: BRANCH  37  39
DOCKED: ATOM     39  C25 UNL     1       5.605  -6.191   0.942 +0.00 +0.00    +0.100 C  
DOCKED: ATOM     40  C26 UNL     1       5.226  -7.376   1.827 +0.00 +0.00    +0.033 C  
DOCKED: BRANCH  39  41
DOCKED: ATOM     41  C27 UNL     1       4.393  -5.533   0.304 +0.00 -0.00    -0.027 A  
DOCKED: ATOM     42  C28 UNL     1       3.827  -4.395   0.900 +0.00 +0.00    +0.005 A  
DOCKED: ATOM     43  C29 UNL     1       2.720  -3.764   0.328 +0.00 +0.00    +0.000 A  
DOCKED: ATOM     44  C30 UNL     1       2.144  -4.276  -0.831 +0.00 +0.00    +0.000 A  
DOCKED: ATOM     45  C31 UNL     1       2.681  -5.415  -1.430 +0.00 +0.00    +0.000 A  
DOCKED: ATOM     46  C32 UNL     1       3.797  -6.041  -0.866 +0.00 +0.00    +0.005 A  
DOCKED: ENDBRANCH  39  41
DOCKED: ENDBRANCH  37  39
DOCKED: ENDBRANCH  34  35
DOCKED: BRANCH  34  47
DOCKED: ATOM     47  C33 UNL     1       6.992  -3.130   3.409 +0.00 +0.00    +0.012 C  
DOCKED: ATOM     48  C34 UNL     1       7.789  -2.348   4.462 +0.00 +0.00    +0.009 C  
DOCKED: ATOM     49  C35 UNL     1       5.594  -2.503   3.307 +0.00 +0.00    +0.009 C  
DOCKED: ENDBRANCH  34  47
DOCKED: ENDBRANCH  32  34
DOCKED: ENDBRANCH  29  30
DOCKED: BRANCH  29  51
DOCKED: ATOM     50  C1  UNL     1       8.040   1.217   1.430 +0.00 +0.00    +0.004 C  
DOCKED: ATOM     51  C2  UNL     1       8.833   0.819   0.186 +0.00 +0.00    +0.009 C  
DOCKED: ENDBRANCH  29  51
DOCKED: ENDBRANCH  28  29
DOCKED: ENDBRANCH   1  28
DOCKED: TORSDOF 19
DOCKED: TER
DOCKED: ENDMDL
________________________________________________________________________________


    CLUSTERING HISTOGRAM
    ____________________


________________________________________________________________________________
     |           |     |           |     |
Clus | Lowest    | Run | Mean      | Num | Histogram
-ter | Binding   |     | Binding   | in  |
Rank | Energy    |     | Energy    | Clus|    5    10   15   20   25   30   35
_____|___________|_____|___________|_____|____:____|____:____|____:____|____:___
   1 |     +5.67 |   1 |     +5.67 |   1 |#
   2 |     +5.67 |   2 |     +5.67 |   1 |#
   3 |     +5.67 |   3 |     +5.67 |   1 |#
   4 |     +5.67 |   4 |     +5.67 |   1 |#
   5 |     +5.67 |   5 |     +5.67 |   1 |#
   6 |     +5.67 |   6 |     +5.67 |   1 |#
   7 |     +5.67 |   7 |     +5.67 |   1 |#
   8 |     +5.67 |   8 |     +5.67 |   2 |##
   9 |     +5.67 |   9 |     +5.67 |   1 |#
  10 |     +5.67 |  10 |     +5.67 |   1 |#
  11 |     +5.67 |  11 |     +5.67 |   1 |#
  12 |     +5.67 |  12 |     +5.67 |   1 |#
  13 |     +5.67 |  13 |     +5.67 |   1 |#
  14 |     +5.67 |  14 |     +5.67 |   1 |#
  15 |     +5.67 |  15 |     +5.67 |   1 |#
  16 |     +5.67 |  16 |     +5.67 |   1 |#
  17 |     +5.67 |  18 |     +5.67 |   1 |#
  18 |     +5.67 |  19 |     +5.67 |   1 |#
  19 |     +5.67 |  20 |     +5.67 |   1 |#
_____|___________|_____|___________|_____|______________________________________


    RMSD TABLE
    __________


_______________________________________________________________________
     |      |      |           |         |                 |
Rank | Sub- | Run  | Binding   | Cluster | Reference       | Grep
     | Rank |      | Energy    | RMSD    | RMSD            | Pattern
_____|______|______|___________|_________|_________________|___________
   1      1      1       +5.67      0.00     10.63           RANKING
   2      1      2       +5.67      0.00      7.76           RANKING
   3      1      3       +5.67      0.00      8.04           RANKING
   4      1      4       +5.67      0.00     13.09           RANKING
   5      1      5       +5.67      0.00      6.26           RANKING
   6      1      6       +5.67      0.00     12.76           RANKING
   7      1      7       +5.67      0.00      9.05           RANKING
   8      1      8       +5.67      0.00     10.51           RANKING
   8      2     17       +5.67      1.88     11.00           RANKING
   9      1      9       +5.67      0.00      7.40           RANKING
  10      1     10       +5.67      0.00     11.26           RANKING
  11      1     11       +5.67      0.00     11.53           RANKING
  12      1     12       +5.67      0.00      9.12           RANKING
  13      1     13       +5.67      0.00     12.66           RANKING
  14      1     14       +5.67      0.00     10.14           RANKING
  15      1     15       +5.67      0.00     12.73           RANKING
  16      1     16       +5.67      0.00      6.39           RANKING
  17      1     18       +5.67      0.00      6.49           RANKING
  18      1     19       +5.67      0.00      7.93           RANKING
  19      1     20       +5.67      0.00      6.87           RANKING

Run time 13.844 sec
Idle time 0.306 sec
