AutoDock-GPU version: v1.6

**********************************************************
**    AutoDock-GPU AUTODOCKTOOLS-COMPATIBLE DLG FILE    **
**********************************************************


    DOCKING PARAMETERS
    ________________________


Ligand file:                               ligands/ligand_17.pdbqt
Grid fld file:                             protein.maps.fld

Random seed:                               1770972540, 27376
Number of runs:                            20
Number of energy evaluations:              11021374
Number of generations:                     42000
Size of population:                        150
Rate of crossover:                         80.000000%
Tournament selection probability limit:    60.000000%
Rate of mutation:                          2.000000%
Maximal allowed delta movement:            +/- 6.000000A
Maximal allowed delta angle:               +/- 90.000000

Rate of local search:                      100.000000%
Maximal number of local search iterations: 300
Rho lower bound:                           0.010000
Spread of local search delta movement:     2.000000A
Spread of local search delta angle:        74.999999
Limit of consecutive successes/failures:   4

Handle symmetry during clustering:         YES
RMSD tolerance:                            2.000000A

Program call in command line was:          ./autodock-gpu --ffile protein.maps.fld --lfile ligands/ligand_17.pdbqt --nrun 20 


    GRID PARAMETERS
    ________________________


Receptor name:                             #MACROMOLECULE
Number of grid points (x, y, z):           61, 61, 61
Grid center (x, y, z):                     10.261000, -3.492000, -0.127000A
Grid size (x, y, z):                       22.500000, 22.500000, 22.500000A
Grid spacing:                              0.375000A


    LIGAND PARAMETERS
    ________________________


Ligand name:                               ligands/ligand_17
Number of atoms:                           65
Number of rotatable bonds:                 25
Number of atom types:                      5


    DUMMY DATA (only for ADT-compatibility)
    ________________________


DPF> outlev 1
DPF> ga_run 20
DPF> fld protein.maps.fld
DPF> move ligands/ligand_17.pdbqt


    COUNTER STATES
    ________________________


Number of energy evaluations performed:    9407519
Number of generations used:                355


    INPUT LIGAND PDBQT FILE:
    ________________________


INPUT-LIGAND-PDBQT: REMARK  Name = ligands/ligand_17.pdb
INPUT-LIGAND-PDBQT: REMARK  30 active torsions:
INPUT-LIGAND-PDBQT: REMARK  status: ('A' for Active; 'I' for Inactive)
INPUT-LIGAND-PDBQT: REMARK    1  A    between atoms: C1_1  and  C2_2
INPUT-LIGAND-PDBQT: REMARK    2  A    between atoms: N1_4  and  C3_5
INPUT-LIGAND-PDBQT: REMARK    3  A    between atoms: C3_5  and  C4_6
INPUT-LIGAND-PDBQT: REMARK    4  A    between atoms: C3_5  and  C8_10
INPUT-LIGAND-PDBQT: REMARK    5  A    between atoms: C4_6  and  C5_7
INPUT-LIGAND-PDBQT: REMARK    6  A    between atoms: C5_7  and  C6_8
INPUT-LIGAND-PDBQT: REMARK    7  A    between atoms: C5_7  and  C7_9
INPUT-LIGAND-PDBQT: REMARK    8  A    between atoms: N2_12  and  C9_13
INPUT-LIGAND-PDBQT: REMARK    9  A    between atoms: C9_13  and  C10_14
INPUT-LIGAND-PDBQT: REMARK   10  A    between atoms: C9_13  and  C17_21
INPUT-LIGAND-PDBQT: REMARK   11  A    between atoms: C10_14  and  C11_15
INPUT-LIGAND-PDBQT: REMARK   12  A    between atoms: C17_21  and  O3_22
INPUT-LIGAND-PDBQT: REMARK   13  A    between atoms: C17_21  and  C18_23
INPUT-LIGAND-PDBQT: REMARK   14  A    between atoms: C18_23  and  C19_24
INPUT-LIGAND-PDBQT: REMARK   15  A    between atoms: N3_26  and  C20_27
INPUT-LIGAND-PDBQT: REMARK   16  A    between atoms: C20_27  and  C21_28
INPUT-LIGAND-PDBQT: REMARK   17  A    between atoms: C20_27  and  C28_35
INPUT-LIGAND-PDBQT: REMARK   18  A    between atoms: C21_28  and  C22_29
INPUT-LIGAND-PDBQT: REMARK   19  A    between atoms: C28_35  and  O5_36
INPUT-LIGAND-PDBQT: REMARK   20  A    between atoms: C28_35  and  C29_37
INPUT-LIGAND-PDBQT: REMARK   21  A    between atoms: C29_37  and  C30_38
INPUT-LIGAND-PDBQT: REMARK   22  A    between atoms: N4_40  and  C31_41
INPUT-LIGAND-PDBQT: REMARK   23  A    between atoms: C31_41  and  C32_42
INPUT-LIGAND-PDBQT: REMARK   24  A    between atoms: C31_41  and  C41_55
INPUT-LIGAND-PDBQT: REMARK   25  A    between atoms: N5_44  and  C33_45
INPUT-LIGAND-PDBQT: REMARK   26  A    between atoms: C33_45  and  C34_46
INPUT-LIGAND-PDBQT: REMARK   27  A    between atoms: C37_49  and  C38_50
INPUT-LIGAND-PDBQT: REMARK   28  A    between atoms: C38_50  and  O9_52
INPUT-LIGAND-PDBQT: REMARK   29  A    between atoms: C41_55  and  C42_56
INPUT-LIGAND-PDBQT: REMARK   30  A    between atoms: C41_55  and  C43_57
INPUT-LIGAND-PDBQT: REMARK                            x       y       z     vdW  Elec       q    Type
INPUT-LIGAND-PDBQT: REMARK                         _______ _______ _______ _____ _____    ______ ____
INPUT-LIGAND-PDBQT: ROOT
INPUT-LIGAND-PDBQT: ATOM      1  C20 UNL     1       0.124  -1.604  -1.263  0.00  0.00    +0.102 C 
INPUT-LIGAND-PDBQT: ENDROOT
INPUT-LIGAND-PDBQT: BRANCH   1   4
INPUT-LIGAND-PDBQT: ATOM      2  C19 UNL     1       1.272   0.601  -0.812  0.00  0.00    +0.216 C 
INPUT-LIGAND-PDBQT: ATOM      3  O4  UNL     1       2.417   0.182  -0.698  0.00  0.00    -0.276 OA
INPUT-LIGAND-PDBQT: ATOM      4  N3  UNL     1       0.190  -0.140  -1.264  0.00  0.00    -0.310 N 
INPUT-LIGAND-PDBQT: ATOM      5  H28 UNL     1      -0.709   0.291  -1.064  0.00  0.00    +0.149 HD
INPUT-LIGAND-PDBQT: BRANCH   2   6
INPUT-LIGAND-PDBQT: ATOM      6  C18 UNL     1       0.918   2.048  -0.544  0.00  0.00    +0.129 C 
INPUT-LIGAND-PDBQT: BRANCH   6   7
INPUT-LIGAND-PDBQT: ATOM      7  C17 UNL     1       1.584   2.605   0.708  0.00  0.00    +0.144 C 
INPUT-LIGAND-PDBQT: BRANCH   7   8
INPUT-LIGAND-PDBQT: ATOM      8  O3  UNL     1       0.868   3.810   1.058  0.00  0.00    -0.389 OA
INPUT-LIGAND-PDBQT: ATOM      9  H25 UNL     1       0.103   3.532   1.595  0.00  0.00    +0.210 HD
INPUT-LIGAND-PDBQT: ENDBRANCH   7   8
INPUT-LIGAND-PDBQT: BRANCH   7  10
INPUT-LIGAND-PDBQT: ATOM     10  C9  UNL     1       3.095   2.960   0.652  0.00  0.00    +0.106 C 
INPUT-LIGAND-PDBQT: BRANCH  10  13
INPUT-LIGAND-PDBQT: ATOM     11  C8  UNL     1       4.244   1.314   2.107  0.00  0.00    +0.234 C 
INPUT-LIGAND-PDBQT: ATOM     12  O2  UNL     1       3.630   1.684   3.110  0.00  0.00    -0.274 OA
INPUT-LIGAND-PDBQT: ATOM     13  N2  UNL     1       3.984   1.816   0.849  0.00  0.00    -0.308 N 
INPUT-LIGAND-PDBQT: ATOM     14  H15 UNL     1       3.962   1.124   0.097  0.00  0.00    +0.149 HD
INPUT-LIGAND-PDBQT: BRANCH  11  15
INPUT-LIGAND-PDBQT: ATOM     15  C3  UNL     1       5.478   0.381   2.214  0.00  0.00    +0.159 C 
INPUT-LIGAND-PDBQT: BRANCH  15  19
INPUT-LIGAND-PDBQT: ATOM     16  C1  UNL     1       6.666  -0.772   5.635  0.00  0.00    +0.109 C 
INPUT-LIGAND-PDBQT: ATOM     17  C2  UNL     1       6.771  -0.434   4.172  0.00  0.00    +0.211 C 
INPUT-LIGAND-PDBQT: ATOM     18  O1  UNL     1       7.839  -0.476   3.569  0.00  0.00    -0.276 OA
INPUT-LIGAND-PDBQT: ATOM     19  N1  UNL     1       5.578  -0.079   3.597  0.00  0.00    -0.304 N 
INPUT-LIGAND-PDBQT: ATOM     20  H4  UNL     1       4.801   0.182   4.199  0.00  0.00    +0.149 HD
INPUT-LIGAND-PDBQT: ENDBRANCH  15  19
INPUT-LIGAND-PDBQT: BRANCH  15  21
INPUT-LIGAND-PDBQT: ATOM     21  C4  UNL     1       5.576  -0.754   1.186  0.00  0.00    +0.034 C 
INPUT-LIGAND-PDBQT: BRANCH  21  22
INPUT-LIGAND-PDBQT: ATOM     22  C5  UNL     1       4.467  -1.824   1.203  0.00  0.00    -0.015 C 
INPUT-LIGAND-PDBQT: ATOM     23  C6  UNL     1       4.551  -2.763   2.405  0.00  0.00    +0.007 C 
INPUT-LIGAND-PDBQT: ATOM     24  C7  UNL     1       4.575  -2.658  -0.078  0.00  0.00    +0.007 C 
INPUT-LIGAND-PDBQT: ENDBRANCH  21  22
INPUT-LIGAND-PDBQT: ENDBRANCH  15  21
INPUT-LIGAND-PDBQT: ENDBRANCH  11  15
INPUT-LIGAND-PDBQT: ENDBRANCH  10  13
INPUT-LIGAND-PDBQT: BRANCH  10  25
INPUT-LIGAND-PDBQT: ATOM     25  C10 UNL     1       3.547   3.890  -0.505  0.00  0.00    +0.060 C 
INPUT-LIGAND-PDBQT: BRANCH  25  26
INPUT-LIGAND-PDBQT: ATOM     26  C11 UNL     1       3.821   3.295  -1.868  0.00  0.00    -0.046 A 
INPUT-LIGAND-PDBQT: ATOM     27  C12 UNL     1       4.916   2.444  -2.080  0.00  0.00    +0.004 A 
INPUT-LIGAND-PDBQT: ATOM     28  C13 UNL     1       5.173   1.917  -3.346  0.00  0.00    +0.000 A 
INPUT-LIGAND-PDBQT: ATOM     29  C14 UNL     1       4.355   2.250  -4.423  0.00  0.00    +0.000 A 
INPUT-LIGAND-PDBQT: ATOM     30  C15 UNL     1       3.284   3.116  -4.235  0.00  0.00    +0.000 A 
INPUT-LIGAND-PDBQT: ATOM     31  C16 UNL     1       3.025   3.642  -2.969  0.00  0.00    +0.004 A 
INPUT-LIGAND-PDBQT: ENDBRANCH  25  26
INPUT-LIGAND-PDBQT: ENDBRANCH  10  25
INPUT-LIGAND-PDBQT: ENDBRANCH   7  10
INPUT-LIGAND-PDBQT: ENDBRANCH   6   7
INPUT-LIGAND-PDBQT: ENDBRANCH   2   6
INPUT-LIGAND-PDBQT: ENDBRANCH   1   4
INPUT-LIGAND-PDBQT: BRANCH   1  32
INPUT-LIGAND-PDBQT: ATOM     32  C21 UNL     1       1.309  -2.319  -1.951  0.00  0.00    +0.028 C 
INPUT-LIGAND-PDBQT: BRANCH  32  33
INPUT-LIGAND-PDBQT: ATOM     33  C22 UNL     1       1.465  -2.200  -3.482  0.00  0.00    -0.009 C 
INPUT-LIGAND-PDBQT: ATOM     34  C23 UNL     1       0.252  -2.735  -4.257  0.00  0.00    +0.003 C 
INPUT-LIGAND-PDBQT: ATOM     35  C24 UNL     1       0.533  -2.760  -5.759  0.00  0.00    +0.000 C 
INPUT-LIGAND-PDBQT: ATOM     36  C25 UNL     1       0.953  -1.389  -6.278  0.00  0.00    +0.000 C 
INPUT-LIGAND-PDBQT: ATOM     37  C26 UNL     1       2.111  -0.803  -5.480  0.00  0.00    +0.000 C 
INPUT-LIGAND-PDBQT: ATOM     38  C27 UNL     1       1.829  -0.795  -3.977  0.00  0.00    +0.003 C 
INPUT-LIGAND-PDBQT: ENDBRANCH  32  33
INPUT-LIGAND-PDBQT: ENDBRANCH   1  32
INPUT-LIGAND-PDBQT: BRANCH   1  39
INPUT-LIGAND-PDBQT: ATOM     39  C28 UNL     1      -0.110  -2.179   0.177  0.00  0.00    +0.143 C 
INPUT-LIGAND-PDBQT: BRANCH  39  40
INPUT-LIGAND-PDBQT: ATOM     40  O5  UNL     1       0.643  -1.502   1.176  0.00  0.00    -0.389 OA
INPUT-LIGAND-PDBQT: ATOM     41  H44 UNL     1       0.086  -0.812   1.590  0.00  0.00    +0.210 HD
INPUT-LIGAND-PDBQT: ENDBRANCH  39  40
INPUT-LIGAND-PDBQT: BRANCH  39  42
INPUT-LIGAND-PDBQT: ATOM     42  C29 UNL     1      -1.591  -2.290   0.571  0.00  0.00    +0.129 C 
INPUT-LIGAND-PDBQT: BRANCH  42  43
INPUT-LIGAND-PDBQT: ATOM     43  C30 UNL     1      -2.372  -0.989   0.564  0.00  0.00    +0.216 C 
INPUT-LIGAND-PDBQT: ATOM     44  O6  UNL     1      -1.853   0.118   0.437  0.00  0.00    -0.276 OA
INPUT-LIGAND-PDBQT: ATOM     45  N4  UNL     1      -3.725  -1.169   0.716  0.00  0.00    -0.304 N 
INPUT-LIGAND-PDBQT: ATOM     46  H47 UNL     1      -4.056  -2.052   1.111  0.00  0.00    +0.149 HD
INPUT-LIGAND-PDBQT: BRANCH  45  47
INPUT-LIGAND-PDBQT: ATOM     47  C31 UNL     1      -4.665  -0.054   0.823  0.00  0.00    +0.161 C 
INPUT-LIGAND-PDBQT: BRANCH  47  48
INPUT-LIGAND-PDBQT: ATOM     48  C32 UNL     1      -5.548  -0.307   2.068  0.00  0.00    +0.234 C 
INPUT-LIGAND-PDBQT: ATOM     49  O7  UNL     1      -5.438  -1.336   2.737  0.00  0.00    -0.274 OA
INPUT-LIGAND-PDBQT: ATOM     50  N5  UNL     1      -6.440   0.699   2.370  0.00  0.00    -0.310 N 
INPUT-LIGAND-PDBQT: ATOM     51  H49 UNL     1      -6.532   1.494   1.751  0.00  0.00    +0.149 HD
INPUT-LIGAND-PDBQT: BRANCH  50  52
INPUT-LIGAND-PDBQT: ATOM     52  C33 UNL     1      -7.414   0.558   3.430  0.00  0.00    +0.139 C 
INPUT-LIGAND-PDBQT: BRANCH  52  53
INPUT-LIGAND-PDBQT: ATOM     53  C34 UNL     1      -8.574  -0.303   2.997  0.00  0.00    -0.030 A 
INPUT-LIGAND-PDBQT: ATOM     54  C35 UNL     1      -8.699  -1.609   3.490  0.00  0.00    +0.006 A 
INPUT-LIGAND-PDBQT: ATOM     55  C36 UNL     1      -9.740  -2.433   3.057  0.00  0.00    +0.015 A 
INPUT-LIGAND-PDBQT: ATOM     56  C37 UNL     1     -10.661  -1.968   2.110  0.00  0.00    +0.059 A 
INPUT-LIGAND-PDBQT: ATOM     57  C39 UNL     1     -10.545  -0.664   1.615  0.00  0.00    +0.015 A 
INPUT-LIGAND-PDBQT: ATOM     58  C40 UNL     1      -9.507   0.164   2.055  0.00  0.00    +0.006 A 
INPUT-LIGAND-PDBQT: BRANCH  56  59
INPUT-LIGAND-PDBQT: ATOM     59  C38 UNL     1     -11.738  -2.890   1.674  0.00  0.00    +0.337 C 
INPUT-LIGAND-PDBQT: ATOM     60  O8  UNL     1     -11.928  -4.012   2.103  0.00  0.00    -0.245 OA
INPUT-LIGAND-PDBQT: BRANCH  59  61
INPUT-LIGAND-PDBQT: ATOM     61  O9  UNL     1     -12.520  -2.363   0.716  0.00  0.00    -0.477 OA
INPUT-LIGAND-PDBQT: ATOM     62  H54 UNL     1     -13.175  -3.073   0.539  0.00  0.00    +0.295 HD
INPUT-LIGAND-PDBQT: ENDBRANCH  59  61
INPUT-LIGAND-PDBQT: ENDBRANCH  56  59
INPUT-LIGAND-PDBQT: ENDBRANCH  52  53
INPUT-LIGAND-PDBQT: ENDBRANCH  50  52
INPUT-LIGAND-PDBQT: ENDBRANCH  47  48
INPUT-LIGAND-PDBQT: BRANCH  47  63
INPUT-LIGAND-PDBQT: ATOM     63  C41 UNL     1      -5.495   0.127  -0.470  0.00  0.00    +0.012 C 
INPUT-LIGAND-PDBQT: ATOM     64  C42 UNL     1      -4.603   0.547  -1.644  0.00  0.00    +0.009 C 
INPUT-LIGAND-PDBQT: ATOM     65  C43 UNL     1      -6.296  -1.129  -0.842  0.00  0.00    +0.009 C 
INPUT-LIGAND-PDBQT: ENDBRANCH  47  63
INPUT-LIGAND-PDBQT: ENDBRANCH  45  47
INPUT-LIGAND-PDBQT: ENDBRANCH  42  43
INPUT-LIGAND-PDBQT: ENDBRANCH  39  42
INPUT-LIGAND-PDBQT: ENDBRANCH   1  39
INPUT-LIGAND-PDBQT: TORSDOF 25


    FINAL DOCKED STATE:
    ________________________


Run:   1 / 20
Time taken for this run:   3.634s

DOCKED: MODEL        1
DOCKED: USER    Run = 1
DOCKED: USER
DOCKED: USER    Estimated Free Energy of Binding    =  +7.46 kcal/mol  [=(1)+(2)+(3)-(4)]
DOCKED: USER
DOCKED: USER    (1) Final Intermolecular Energy     =  +0.00 kcal/mol
DOCKED: USER        vdW + Hbond + desolv Energy     =  +0.00 kcal/mol
DOCKED: USER        Electrostatic Energy            =  +0.00 kcal/mol
DOCKED: USER        Moving Ligand-Fixed Receptor    =  +0.00 kcal/mol
DOCKED: USER        Moving Ligand-Moving Receptor   =  +0.00 kcal/mol
DOCKED: USER    (2) Final Total Internal Energy     = -17.99 kcal/mol
DOCKED: USER    (3) Torsional Free Energy           =  +7.46 kcal/mol
DOCKED: USER    (4) Unbound System's Energy         = -17.99 kcal/mol
DOCKED: USER
DOCKED: USER
DOCKED: REMARK  Name = ligands/ligand_17.pdb
DOCKED: REMARK  30 active torsions:
DOCKED: REMARK  status: ('A' for Active; 'I' for Inactive)
DOCKED: REMARK    1  A    between atoms: C1_1  and  C2_2
DOCKED: REMARK    2  A    between atoms: N1_4  and  C3_5
DOCKED: REMARK    3  A    between atoms: C3_5  and  C4_6
DOCKED: REMARK    4  A    between atoms: C3_5  and  C8_10
DOCKED: REMARK    5  A    between atoms: C4_6  and  C5_7
DOCKED: REMARK    6  A    between atoms: C5_7  and  C6_8
DOCKED: REMARK    7  A    between atoms: C5_7  and  C7_9
DOCKED: REMARK    8  A    between atoms: N2_12  and  C9_13
DOCKED: REMARK    9  A    between atoms: C9_13  and  C10_14
DOCKED: REMARK   10  A    between atoms: C9_13  and  C17_21
DOCKED: REMARK   11  A    between atoms: C10_14  and  C11_15
DOCKED: REMARK   12  A    between atoms: C17_21  and  O3_22
DOCKED: REMARK   13  A    between atoms: C17_21  and  C18_23
DOCKED: REMARK   14  A    between atoms: C18_23  and  C19_24
DOCKED: REMARK   15  A    between atoms: N3_26  and  C20_27
DOCKED: REMARK   16  A    between atoms: C20_27  and  C21_28
DOCKED: REMARK   17  A    between atoms: C20_27  and  C28_35
DOCKED: REMARK   18  A    between atoms: C21_28  and  C22_29
DOCKED: REMARK   19  A    between atoms: C28_35  and  O5_36
DOCKED: REMARK   20  A    between atoms: C28_35  and  C29_37
DOCKED: REMARK   21  A    between atoms: C29_37  and  C30_38
DOCKED: REMARK   22  A    between atoms: N4_40  and  C31_41
DOCKED: REMARK   23  A    between atoms: C31_41  and  C32_42
DOCKED: REMARK   24  A    between atoms: C31_41  and  C41_55
DOCKED: REMARK   25  A    between atoms: N5_44  and  C33_45
DOCKED: REMARK   26  A    between atoms: C33_45  and  C34_46
DOCKED: REMARK   27  A    between atoms: C37_49  and  C38_50
DOCKED: REMARK   28  A    between atoms: C38_50  and  O9_52
DOCKED: REMARK   29  A    between atoms: C41_55  and  C42_56
DOCKED: REMARK   30  A    between atoms: C41_55  and  C43_57
DOCKED: REMARK                            x       y       z     vdW  Elec       q    Type
DOCKED: REMARK                         _______ _______ _______ _____ _____    ______ ____
DOCKED: USER                              x       y       z     vdW  Elec       q    Type
DOCKED: USER                           _______ _______ _______ _____ _____    ______ ____
DOCKED: ROOT
DOCKED: ATOM      1  C20 UNL     1       8.066  -2.055  -2.587 +0.00 +0.00    +0.102 C  
DOCKED: ENDROOT
DOCKED: BRANCH   1   4
DOCKED: ATOM      2  C19 UNL     1       6.425  -0.477  -3.682 +0.00 +0.00    +0.216 C  
DOCKED: ATOM      3  O4  UNL     1       6.966   0.578  -3.376 +0.00 -0.00    -0.276 OA 
DOCKED: ATOM      4  N3  UNL     1       6.979  -1.738  -3.517 +0.00 -0.00    -0.310 N  
DOCKED: ATOM      5  H28 UNL     1       6.303  -2.492  -3.598 +0.00 +0.00    +0.149 HD 
DOCKED: BRANCH   2   6
DOCKED: ATOM      6  C18 UNL     1       5.081  -0.516  -4.376 +0.00 +0.00    +0.129 C  
DOCKED: BRANCH   6   7
DOCKED: ATOM      7  C17 UNL     1       4.455  -1.905  -4.391 +0.00 +0.00    +0.144 C  
DOCKED: BRANCH   7   8
DOCKED: ATOM      8  O3  UNL     1       4.539  -2.412  -3.041 +0.00 -0.00    -0.389 OA 
DOCKED: ATOM      9  H25 UNL     1       5.141  -3.179  -3.069 +0.00 +0.00    +0.210 HD 
DOCKED: ENDBRANCH   7   8
DOCKED: BRANCH   7  10
DOCKED: ATOM     10  C9  UNL     1       5.058  -2.983  -5.332 +0.00 +0.00    +0.106 C  
DOCKED: BRANCH  10  13
DOCKED: ATOM     11  C8  UNL     1       6.045  -5.010  -4.301 +0.00 +0.00    +0.234 C  
DOCKED: ATOM     12  O2  UNL     1       7.121  -4.449  -4.088 +0.00 -0.00    -0.274 OA 
DOCKED: ATOM     13  N2  UNL     1       4.952  -4.348  -4.821 +0.00 -0.00    -0.308 N  
DOCKED: ATOM     14  H15 UNL     1       4.056  -4.571  -4.383 +0.00 +0.00    +0.149 HD 
DOCKED: BRANCH  11  15
DOCKED: ATOM     15  C3  UNL     1       5.894  -6.548  -4.164 +0.00 +0.00    +0.159 C  
DOCKED: BRANCH  15  19
DOCKED: ATOM     16  C1  UNL     1       2.515  -6.417  -2.429 +0.00 +0.00    +0.109 C  
DOCKED: ATOM     17  C2  UNL     1       3.928  -6.006  -2.745 +0.00 +0.00    +0.211 C  
DOCKED: ATOM     18  O1  UNL     1       4.450  -5.021  -2.232 +0.00 -0.00    -0.276 OA 
DOCKED: ATOM     19  N1  UNL     1       4.556  -6.826  -3.647 +0.00 -0.00    -0.304 N  
DOCKED: ATOM     20  H4  UNL     1       3.992  -7.453  -4.216 +0.00 +0.00    +0.149 HD 
DOCKED: ENDBRANCH  15  19
DOCKED: BRANCH  15  21
DOCKED: ATOM     21  C4  UNL     1       6.259  -7.389  -5.394 +0.00 +0.00    +0.034 C  
DOCKED: BRANCH  21  22
DOCKED: ATOM     22  C5  UNL     1       6.625  -6.634  -6.687 +0.00 -0.00    -0.015 C  
DOCKED: ATOM     23  C6  UNL     1       5.441  -6.448  -7.634 +0.00 +0.00    +0.007 C  
DOCKED: ATOM     24  C7  UNL     1       7.718  -7.421  -7.418 +0.00 +0.00    +0.007 C  
DOCKED: ENDBRANCH  21  22
DOCKED: ENDBRANCH  15  21
DOCKED: ENDBRANCH  11  15
DOCKED: ENDBRANCH  10  13
DOCKED: BRANCH  10  25
DOCKED: ATOM     25  C10 UNL     1       4.702  -2.867  -6.838 +0.00 +0.00    +0.060 C  
DOCKED: BRANCH  25  26
DOCKED: ATOM     26  C11 UNL     1       5.771  -2.449  -7.821 +0.00 -0.00    -0.046 A  
DOCKED: ATOM     27  C12 UNL     1       6.588  -3.399  -8.451 +0.00 +0.00    +0.004 A  
DOCKED: ATOM     28  C13 UNL     1       7.587  -3.002  -9.341 +0.00 +0.00    +0.000 A  
DOCKED: ATOM     29  C14 UNL     1       7.800  -1.649  -9.597 +0.00 +0.00    +0.000 A  
DOCKED: ATOM     30  C15 UNL     1       7.018  -0.694  -8.957 +0.00 +0.00    +0.000 A  
DOCKED: ATOM     31  C16 UNL     1       6.018  -1.091  -8.069 +0.00 +0.00    +0.004 A  
DOCKED: ENDBRANCH  25  26
DOCKED: ENDBRANCH  10  25
DOCKED: ENDBRANCH   7  10
DOCKED: ENDBRANCH   6   7
DOCKED: ENDBRANCH   2   6
DOCKED: ENDBRANCH   1   4
DOCKED: BRANCH   1  32
DOCKED: ATOM     32  C21 UNL     1       8.987  -0.870  -2.218 +0.00 +0.00    +0.028 C  
DOCKED: BRANCH  32  33
DOCKED: ATOM     33  C22 UNL     1      10.501  -0.987  -2.494 +0.00 -0.00    -0.009 C  
DOCKED: ATOM     34  C23 UNL     1      10.900  -2.332  -3.118 +0.00 +0.00    +0.003 C  
DOCKED: ATOM     35  C24 UNL     1      12.420  -2.465  -3.202 +0.00 +0.00    +0.000 C  
DOCKED: ATOM     36  C25 UNL     1      13.047  -1.302  -3.962 +0.00 +0.00    +0.000 C  
DOCKED: ATOM     37  C26 UNL     1      12.612   0.049  -3.407 +0.00 +0.00    +0.000 C  
DOCKED: ATOM     38  C27 UNL     1      11.090   0.169  -3.312 +0.00 +0.00    +0.003 C  
DOCKED: ENDBRANCH  32  33
DOCKED: ENDBRANCH   1  32
DOCKED: BRANCH   1  39
DOCKED: ATOM     39  C28 UNL     1       7.541  -2.772  -1.295 +0.00 +0.00    +0.143 C  
DOCKED: BRANCH  39  40
DOCKED: ATOM     40  O5  UNL     1       6.631  -3.828  -1.575 +0.00 -0.00    -0.389 OA 
DOCKED: ATOM     41  H44 UNL     1       6.176  -3.648  -2.423 +0.00 +0.00    +0.210 HD 
DOCKED: ENDBRANCH  39  40
DOCKED: BRANCH  39  42
DOCKED: ATOM     42  C29 UNL     1       8.655  -3.231  -0.340 +0.00 +0.00    +0.129 C  
DOCKED: BRANCH  42  43
DOCKED: ATOM     43  C30 UNL     1       9.430  -4.459  -0.778 +0.00 +0.00    +0.216 C  
DOCKED: ATOM     44  O6  UNL     1      10.363  -4.941  -0.139 +0.00 -0.00    -0.276 OA 
DOCKED: ATOM     45  N4  UNL     1       8.987  -4.985  -1.967 +0.00 -0.00    -0.304 N  
DOCKED: ATOM     46  H47 UNL     1       8.432  -4.388  -2.584 +0.00 +0.00    +0.149 HD 
DOCKED: BRANCH  45  47
DOCKED: ATOM     47  C31 UNL     1       9.637  -6.118  -2.623 +0.00 +0.00    +0.161 C  
DOCKED: BRANCH  47  48
DOCKED: ATOM     48  C32 UNL     1      10.268  -5.596  -3.936 +0.00 +0.00    +0.234 C  
DOCKED: ATOM     49  O7  UNL     1      11.435  -5.202  -3.978 +0.00 -0.00    -0.274 OA 
DOCKED: ATOM     50  N5  UNL     1       9.439  -5.620  -5.036 +0.00 -0.00    -0.310 N  
DOCKED: ATOM     51  H49 UNL     1       8.471  -5.894  -4.933 +0.00 +0.00    +0.149 HD 
DOCKED: BRANCH  50  52
DOCKED: ATOM     52  C33 UNL     1       9.844  -5.055  -6.305 +0.00 +0.00    +0.139 C  
DOCKED: BRANCH  52  53
DOCKED: ATOM     53  C34 UNL     1       9.801  -3.548  -6.272 +0.00 -0.00    -0.030 A  
DOCKED: ATOM     54  C35 UNL     1       8.611  -2.888  -5.938 +0.00 +0.00    +0.006 A  
DOCKED: ATOM     55  C36 UNL     1       8.545  -1.493  -5.953 +0.00 +0.00    +0.015 A  
DOCKED: ATOM     56  C37 UNL     1       9.666  -0.738  -6.322 +0.00 +0.00    +0.059 A  
DOCKED: ATOM     57  C39 UNL     1      10.859  -1.389  -6.654 +0.00 +0.00    +0.015 A  
DOCKED: ATOM     58  C40 UNL     1      10.927  -2.786  -6.630 +0.00 +0.00    +0.006 A  
DOCKED: BRANCH  56  59
DOCKED: ATOM     59  C38 UNL     1       9.537   0.739  -6.336 +0.00 +0.00    +0.337 C  
DOCKED: ATOM     60  O8  UNL     1      10.409   1.525  -6.654 +0.00 -0.00    -0.245 OA 
DOCKED: BRANCH  59  61
DOCKED: ATOM     61  O9  UNL     1       8.322   1.161  -5.942 +0.00 -0.00    -0.477 OA 
DOCKED: ATOM     62  H54 UNL     1       8.306   0.949  -4.983 +0.00 +0.00    +0.295 HD 
DOCKED: ENDBRANCH  59  61
DOCKED: ENDBRANCH  56  59
DOCKED: ENDBRANCH  52  53
DOCKED: ENDBRANCH  50  52
DOCKED: ENDBRANCH  47  48
DOCKED: BRANCH  47  63
DOCKED: ATOM     63  C41 UNL     1       8.655  -7.290  -2.858 +0.00 +0.00    +0.012 C  
DOCKED: ATOM     64  C42 UNL     1       9.385  -8.518  -3.414 +0.00 +0.00    +0.009 C  
DOCKED: ATOM     65  C43 UNL     1       7.872  -7.671  -1.594 +0.00 +0.00    +0.009 C  
DOCKED: ENDBRANCH  47  63
DOCKED: ENDBRANCH  45  47
DOCKED: ENDBRANCH  42  43
DOCKED: ENDBRANCH  39  42
DOCKED: ENDBRANCH   1  39
DOCKED: TORSDOF 25
DOCKED: TER
DOCKED: ENDMDL
________________________________________________________________________________


    FINAL DOCKED STATE:
    ________________________


Run:   2 / 20
Time taken for this run:   3.634s

DOCKED: MODEL        2
DOCKED: USER    Run = 2
DOCKED: USER
DOCKED: USER    Estimated Free Energy of Binding    =  +7.46 kcal/mol  [=(1)+(2)+(3)-(4)]
DOCKED: USER
DOCKED: USER    (1) Final Intermolecular Energy     =  +0.00 kcal/mol
DOCKED: USER        vdW + Hbond + desolv Energy     =  +0.00 kcal/mol
DOCKED: USER        Electrostatic Energy            =  +0.00 kcal/mol
DOCKED: USER        Moving Ligand-Fixed Receptor    =  +0.00 kcal/mol
DOCKED: USER        Moving Ligand-Moving Receptor   =  +0.00 kcal/mol
DOCKED: USER    (2) Final Total Internal Energy     = -18.12 kcal/mol
DOCKED: USER    (3) Torsional Free Energy           =  +7.46 kcal/mol
DOCKED: USER    (4) Unbound System's Energy         = -18.12 kcal/mol
DOCKED: USER
DOCKED: USER
DOCKED: REMARK  Name = ligands/ligand_17.pdb
DOCKED: REMARK  30 active torsions:
DOCKED: REMARK  status: ('A' for Active; 'I' for Inactive)
DOCKED: REMARK    1  A    between atoms: C1_1  and  C2_2
DOCKED: REMARK    2  A    between atoms: N1_4  and  C3_5
DOCKED: REMARK    3  A    between atoms: C3_5  and  C4_6
DOCKED: REMARK    4  A    between atoms: C3_5  and  C8_10
DOCKED: REMARK    5  A    between atoms: C4_6  and  C5_7
DOCKED: REMARK    6  A    between atoms: C5_7  and  C6_8
DOCKED: REMARK    7  A    between atoms: C5_7  and  C7_9
DOCKED: REMARK    8  A    between atoms: N2_12  and  C9_13
DOCKED: REMARK    9  A    between atoms: C9_13  and  C10_14
DOCKED: REMARK   10  A    between atoms: C9_13  and  C17_21
DOCKED: REMARK   11  A    between atoms: C10_14  and  C11_15
DOCKED: REMARK   12  A    between atoms: C17_21  and  O3_22
DOCKED: REMARK   13  A    between atoms: C17_21  and  C18_23
DOCKED: REMARK   14  A    between atoms: C18_23  and  C19_24
DOCKED: REMARK   15  A    between atoms: N3_26  and  C20_27
DOCKED: REMARK   16  A    between atoms: C20_27  and  C21_28
DOCKED: REMARK   17  A    between atoms: C20_27  and  C28_35
DOCKED: REMARK   18  A    between atoms: C21_28  and  C22_29
DOCKED: REMARK   19  A    between atoms: C28_35  and  O5_36
DOCKED: REMARK   20  A    between atoms: C28_35  and  C29_37
DOCKED: REMARK   21  A    between atoms: C29_37  and  C30_38
DOCKED: REMARK   22  A    between atoms: N4_40  and  C31_41
DOCKED: REMARK   23  A    between atoms: C31_41  and  C32_42
DOCKED: REMARK   24  A    between atoms: C31_41  and  C41_55
DOCKED: REMARK   25  A    between atoms: N5_44  and  C33_45
DOCKED: REMARK   26  A    between atoms: C33_45  and  C34_46
DOCKED: REMARK   27  A    between atoms: C37_49  and  C38_50
DOCKED: REMARK   28  A    between atoms: C38_50  and  O9_52
DOCKED: REMARK   29  A    between atoms: C41_55  and  C42_56
DOCKED: REMARK   30  A    between atoms: C41_55  and  C43_57
DOCKED: REMARK                            x       y       z     vdW  Elec       q    Type
DOCKED: REMARK                         _______ _______ _______ _____ _____    ______ ____
DOCKED: USER                              x       y       z     vdW  Elec       q    Type
DOCKED: USER                           _______ _______ _______ _____ _____    ______ ____
DOCKED: ROOT
DOCKED: ATOM      1  C20 UNL     1       6.776  -0.405  -1.211 +0.00 +0.00    +0.102 C  
DOCKED: ENDROOT
DOCKED: BRANCH   1   4
DOCKED: ATOM      2  C19 UNL     1       4.504   0.689  -1.065 +0.00 +0.00    +0.216 C  
DOCKED: ATOM      3  O4  UNL     1       4.653   1.522  -1.950 +0.00 -0.00    -0.276 OA 
DOCKED: ATOM      4  N3  UNL     1       5.370  -0.361  -0.799 +0.00 -0.00    -0.310 N  
DOCKED: ATOM      5  H28 UNL     1       5.216  -0.796   0.107 +0.00 +0.00    +0.149 HD 
DOCKED: BRANCH   2   6
DOCKED: ATOM      6  C18 UNL     1       3.269   0.663  -0.190 +0.00 +0.00    +0.129 C  
DOCKED: BRANCH   6   7
DOCKED: ATOM      7  C17 UNL     1       3.331  -0.399   0.901 +0.00 +0.00    +0.144 C  
DOCKED: BRANCH   7   8
DOCKED: ATOM      8  O3  UNL     1       4.554  -0.170   1.635 +0.00 -0.00    -0.389 OA 
DOCKED: ATOM      9  H25 UNL     1       5.104  -0.966   1.515 +0.00 +0.00    +0.210 HD 
DOCKED: ENDBRANCH   7   8
DOCKED: BRANCH   7  10
DOCKED: ATOM     10  C9  UNL     1       3.311  -1.896   0.485 +0.00 +0.00    +0.106 C  
DOCKED: BRANCH  10  13
DOCKED: ATOM     11  C8  UNL     1       5.308  -3.272   0.999 +0.00 +0.00    +0.234 C  
DOCKED: ATOM     12  O2  UNL     1       5.903  -2.892  -0.011 +0.00 -0.00    -0.274 OA 
DOCKED: ATOM     13  N2  UNL     1       4.078  -2.771   1.370 +0.00 -0.00    -0.308 N  
DOCKED: ATOM     14  H15 UNL     1       3.968  -2.572   2.367 +0.00 +0.00    +0.149 HD 
DOCKED: BRANCH  11  15
DOCKED: ATOM     15  C3  UNL     1       5.822  -4.472   1.836 +0.00 +0.00    +0.159 C  
DOCKED: BRANCH  15  19
DOCKED: ATOM     16  C1  UNL     1       7.911  -2.497   4.322 +0.00 +0.00    +0.109 C  
DOCKED: ATOM     17  C2  UNL     1       6.791  -2.758   3.350 +0.00 +0.00    +0.211 C  
DOCKED: ATOM     18  O1  UNL     1       5.903  -1.937   3.144 +0.00 -0.00    -0.276 OA 
DOCKED: ATOM     19  N1  UNL     1       6.863  -3.983   2.737 +0.00 -0.00    -0.304 N  
DOCKED: ATOM     20  H4  UNL     1       7.462  -4.699   3.139 +0.00 +0.00    +0.149 HD 
DOCKED: ENDBRANCH  15  19
DOCKED: BRANCH  15  21
DOCKED: ATOM     21  C4  UNL     1       4.761  -5.328   2.540 +0.00 +0.00    +0.034 C  
DOCKED: BRANCH  21  22
DOCKED: ATOM     22  C5  UNL     1       4.186  -6.527   1.761 +0.00 -0.00    -0.015 C  
DOCKED: ATOM     23  C6  UNL     1       4.823  -6.716   0.385 +0.00 +0.00    +0.007 C  
DOCKED: ATOM     24  C7  UNL     1       2.680  -6.313   1.578 +0.00 +0.00    +0.007 C  
DOCKED: ENDBRANCH  21  22
DOCKED: ENDBRANCH  15  21
DOCKED: ENDBRANCH  11  15
DOCKED: ENDBRANCH  10  13
DOCKED: BRANCH  10  25
DOCKED: ATOM     25  C10 UNL     1       1.933  -2.487   0.088 +0.00 +0.00    +0.060 C  
DOCKED: BRANCH  25  26
DOCKED: ATOM     26  C11 UNL     1       1.849  -3.451  -1.074 +0.00 -0.00    -0.046 A  
DOCKED: ATOM     27  C12 UNL     1       2.777  -4.494  -1.219 +0.00 +0.00    +0.004 A  
DOCKED: ATOM     28  C13 UNL     1       2.704  -5.365  -2.307 +0.00 +0.00    +0.000 A  
DOCKED: ATOM     29  C14 UNL     1       1.719  -5.194  -3.277 +0.00 +0.00    +0.000 A  
DOCKED: ATOM     30  C15 UNL     1       0.811  -4.148  -3.162 +0.00 +0.00    +0.000 A  
DOCKED: ATOM     31  C16 UNL     1       0.881  -3.277  -2.075 +0.00 +0.00    +0.004 A  
DOCKED: ENDBRANCH  25  26
DOCKED: ENDBRANCH  10  25
DOCKED: ENDBRANCH   7  10
DOCKED: ENDBRANCH   6   7
DOCKED: ENDBRANCH   2   6
DOCKED: ENDBRANCH   1   4
DOCKED: BRANCH   1  32
DOCKED: ATOM     32  C21 UNL     1       7.173   0.600  -2.316 +0.00 +0.00    +0.028 C  
DOCKED: BRANCH  32  33
DOCKED: ATOM     33  C22 UNL     1       7.361   0.087  -3.760 +0.00 -0.00    -0.009 C  
DOCKED: ATOM     34  C23 UNL     1       7.070   1.155  -4.824 +0.00 +0.00    +0.003 C  
DOCKED: ATOM     35  C24 UNL     1       7.095   0.548  -6.226 +0.00 +0.00    +0.000 C  
DOCKED: ATOM     36  C25 UNL     1       8.413  -0.164  -6.510 +0.00 +0.00    +0.000 C  
DOCKED: ATOM     37  C26 UNL     1       8.761  -1.181  -5.431 +0.00 +0.00    +0.000 C  
DOCKED: ATOM     38  C27 UNL     1       8.719  -0.570  -4.029 +0.00 +0.00    +0.003 C  
DOCKED: ENDBRANCH  32  33
DOCKED: ENDBRANCH   1  32
DOCKED: BRANCH   1  39
DOCKED: ATOM     39  C28 UNL     1       7.749  -0.296   0.013 +0.00 +0.00    +0.143 C  
DOCKED: BRANCH  39  40
DOCKED: ATOM     40  O5  UNL     1       7.272  -0.978   1.167 +0.00 -0.00    -0.389 OA 
DOCKED: ATOM     41  H44 UNL     1       6.336  -1.230   1.030 +0.00 +0.00    +0.210 HD 
DOCKED: ENDBRANCH  39  40
DOCKED: BRANCH  39  42
DOCKED: ATOM     42  C29 UNL     1       9.201  -0.686  -0.307 +0.00 +0.00    +0.129 C  
DOCKED: BRANCH  42  43
DOCKED: ATOM     43  C30 UNL     1       9.391  -2.057  -0.928 +0.00 +0.00    +0.216 C  
DOCKED: ATOM     44  O6  UNL     1      10.046  -2.259  -1.948 +0.00 -0.00    -0.276 OA 
DOCKED: ATOM     45  N4  UNL     1       8.755  -3.058  -0.235 +0.00 -0.00    -0.304 N  
DOCKED: ATOM     46  H47 UNL     1       8.001  -2.802   0.405 +0.00 +0.00    +0.149 HD 
DOCKED: BRANCH  45  47
DOCKED: ATOM     47  C31 UNL     1       8.730  -4.446  -0.694 +0.00 +0.00    +0.161 C  
DOCKED: BRANCH  47  48
DOCKED: ATOM     48  C32 UNL     1       7.622  -4.562  -1.767 +0.00 +0.00    +0.234 C  
DOCKED: ATOM     49  O7  UNL     1       6.549  -5.118  -1.526 +0.00 -0.00    -0.274 OA 
DOCKED: ATOM     50  N5  UNL     1       7.920  -3.992  -2.985 +0.00 -0.00    -0.310 N  
DOCKED: ATOM     51  H49 UNL     1       8.840  -3.603  -3.148 +0.00 +0.00    +0.149 HD 
DOCKED: BRANCH  50  52
DOCKED: ATOM     52  C33 UNL     1       7.036  -4.122  -4.122 +0.00 +0.00    +0.139 C  
DOCKED: BRANCH  52  53
DOCKED: ATOM     53  C34 UNL     1       5.940  -3.088  -4.086 +0.00 -0.00    -0.030 A  
DOCKED: ATOM     54  C35 UNL     1       5.198  -2.895  -2.912 +0.00 +0.00    +0.006 A  
DOCKED: ATOM     55  C36 UNL     1       4.146  -1.977  -2.881 +0.00 +0.00    +0.015 A  
DOCKED: ATOM     56  C37 UNL     1       3.810  -1.250  -4.030 +0.00 +0.00    +0.059 A  
DOCKED: ATOM     57  C39 UNL     1       4.548  -1.434  -5.205 +0.00 +0.00    +0.015 A  
DOCKED: ATOM     58  C40 UNL     1       5.606  -2.348  -5.234 +0.00 +0.00    +0.006 A  
DOCKED: BRANCH  56  59
DOCKED: ATOM     59  C38 UNL     1       2.675  -0.299  -3.946 +0.00 +0.00    +0.337 C  
DOCKED: ATOM     60  O8  UNL     1       1.526  -0.588  -3.673 +0.00 -0.00    -0.245 OA 
DOCKED: BRANCH  59  61
DOCKED: ATOM     61  O9  UNL     1       3.035   0.968  -4.215 +0.00 -0.00    -0.477 OA 
DOCKED: ATOM     62  H54 UNL     1       3.655   1.190  -3.487 +0.00 +0.00    +0.295 HD 
DOCKED: ENDBRANCH  59  61
DOCKED: ENDBRANCH  56  59
DOCKED: ENDBRANCH  52  53
DOCKED: ENDBRANCH  50  52
DOCKED: ENDBRANCH  47  48
DOCKED: BRANCH  47  63
DOCKED: ATOM     63  C41 UNL     1       8.534  -5.438   0.477 +0.00 +0.00    +0.012 C  
DOCKED: ATOM     64  C42 UNL     1       8.524  -6.887  -0.023 +0.00 +0.00    +0.009 C  
DOCKED: ATOM     65  C43 UNL     1       9.587  -5.269   1.581 +0.00 +0.00    +0.009 C  
DOCKED: ENDBRANCH  47  63
DOCKED: ENDBRANCH  45  47
DOCKED: ENDBRANCH  42  43
DOCKED: ENDBRANCH  39  42
DOCKED: ENDBRANCH   1  39
DOCKED: TORSDOF 25
DOCKED: TER
DOCKED: ENDMDL
________________________________________________________________________________


    FINAL DOCKED STATE:
    ________________________


Run:   3 / 20
Time taken for this run:   3.634s

DOCKED: MODEL        3
DOCKED: USER    Run = 3
DOCKED: USER
DOCKED: USER    Estimated Free Energy of Binding    =  +7.46 kcal/mol  [=(1)+(2)+(3)-(4)]
DOCKED: USER
DOCKED: USER    (1) Final Intermolecular Energy     =  +0.00 kcal/mol
DOCKED: USER        vdW + Hbond + desolv Energy     =  +0.00 kcal/mol
DOCKED: USER        Electrostatic Energy            =  +0.00 kcal/mol
DOCKED: USER        Moving Ligand-Fixed Receptor    =  +0.00 kcal/mol
DOCKED: USER        Moving Ligand-Moving Receptor   =  +0.00 kcal/mol
DOCKED: USER    (2) Final Total Internal Energy     = -17.36 kcal/mol
DOCKED: USER    (3) Torsional Free Energy           =  +7.46 kcal/mol
DOCKED: USER    (4) Unbound System's Energy         = -17.36 kcal/mol
DOCKED: USER
DOCKED: USER
DOCKED: REMARK  Name = ligands/ligand_17.pdb
DOCKED: REMARK  30 active torsions:
DOCKED: REMARK  status: ('A' for Active; 'I' for Inactive)
DOCKED: REMARK    1  A    between atoms: C1_1  and  C2_2
DOCKED: REMARK    2  A    between atoms: N1_4  and  C3_5
DOCKED: REMARK    3  A    between atoms: C3_5  and  C4_6
DOCKED: REMARK    4  A    between atoms: C3_5  and  C8_10
DOCKED: REMARK    5  A    between atoms: C4_6  and  C5_7
DOCKED: REMARK    6  A    between atoms: C5_7  and  C6_8
DOCKED: REMARK    7  A    between atoms: C5_7  and  C7_9
DOCKED: REMARK    8  A    between atoms: N2_12  and  C9_13
DOCKED: REMARK    9  A    between atoms: C9_13  and  C10_14
DOCKED: REMARK   10  A    between atoms: C9_13  and  C17_21
DOCKED: REMARK   11  A    between atoms: C10_14  and  C11_15
DOCKED: REMARK   12  A    between atoms: C17_21  and  O3_22
DOCKED: REMARK   13  A    between atoms: C17_21  and  C18_23
DOCKED: REMARK   14  A    between atoms: C18_23  and  C19_24
DOCKED: REMARK   15  A    between atoms: N3_26  and  C20_27
DOCKED: REMARK   16  A    between atoms: C20_27  and  C21_28
DOCKED: REMARK   17  A    between atoms: C20_27  and  C28_35
DOCKED: REMARK   18  A    between atoms: C21_28  and  C22_29
DOCKED: REMARK   19  A    between atoms: C28_35  and  O5_36
DOCKED: REMARK   20  A    between atoms: C28_35  and  C29_37
DOCKED: REMARK   21  A    between atoms: C29_37  and  C30_38
DOCKED: REMARK   22  A    between atoms: N4_40  and  C31_41
DOCKED: REMARK   23  A    between atoms: C31_41  and  C32_42
DOCKED: REMARK   24  A    between atoms: C31_41  and  C41_55
DOCKED: REMARK   25  A    between atoms: N5_44  and  C33_45
DOCKED: REMARK   26  A    between atoms: C33_45  and  C34_46
DOCKED: REMARK   27  A    between atoms: C37_49  and  C38_50
DOCKED: REMARK   28  A    between atoms: C38_50  and  O9_52
DOCKED: REMARK   29  A    between atoms: C41_55  and  C42_56
DOCKED: REMARK   30  A    between atoms: C41_55  and  C43_57
DOCKED: REMARK                            x       y       z     vdW  Elec       q    Type
DOCKED: REMARK                         _______ _______ _______ _____ _____    ______ ____
DOCKED: USER                              x       y       z     vdW  Elec       q    Type
DOCKED: USER                           _______ _______ _______ _____ _____    ______ ____
DOCKED: ROOT
DOCKED: ATOM      1  C20 UNL     1       5.453  -4.318  -2.354 +0.00 +0.00    +0.102 C  
DOCKED: ENDROOT
DOCKED: BRANCH   1   4
DOCKED: ATOM      2  C19 UNL     1       5.323  -1.942  -1.505 +0.00 +0.00    +0.216 C  
DOCKED: ATOM      3  O4  UNL     1       4.141  -1.733  -1.749 +0.00 -0.00    -0.276 OA 
DOCKED: ATOM      4  N3  UNL     1       5.950  -3.177  -1.579 +0.00 -0.00    -0.310 N  
DOCKED: ATOM      5  H28 UNL     1       6.965  -3.118  -1.579 +0.00 +0.00    +0.149 HD 
DOCKED: BRANCH   2   6
DOCKED: ATOM      6  C18 UNL     1       6.240  -0.852  -0.994 +0.00 +0.00    +0.129 C  
DOCKED: BRANCH   6   7
DOCKED: ATOM      7  C17 UNL     1       7.381  -0.532  -1.952 +0.00 +0.00    +0.144 C  
DOCKED: BRANCH   7   8
DOCKED: ATOM      8  O3  UNL     1       7.340  -1.531  -2.994 +0.00 -0.00    -0.389 OA 
DOCKED: ATOM      9  H25 UNL     1       7.863  -2.289  -2.672 +0.00 +0.00    +0.210 HD 
DOCKED: ENDBRANCH   7   8
DOCKED: BRANCH   7  10
DOCKED: ATOM     10  C9  UNL     1       8.831  -0.495  -1.397 +0.00 +0.00    +0.106 C  
DOCKED: BRANCH  10  13
DOCKED: ATOM     11  C8  UNL     1       9.728  -2.783  -1.725 +0.00 +0.00    +0.234 C  
DOCKED: ATOM     12  O2  UNL     1       8.858  -3.290  -1.013 +0.00 -0.00    -0.274 OA 
DOCKED: ATOM     13  N2  UNL     1       9.740  -1.441  -2.042 +0.00 -0.00    -0.308 N  
DOCKED: ATOM     14  H15 UNL     1       9.962  -1.223  -3.016 +0.00 +0.00    +0.149 HD 
DOCKED: BRANCH  11  15
DOCKED: ATOM     15  C3  UNL     1      10.974  -3.589  -2.174 +0.00 +0.00    +0.159 C  
DOCKED: BRANCH  15  19
DOCKED: ATOM     16  C1  UNL     1      11.035  -2.220  -5.719 +0.00 +0.00    +0.109 C  
DOCKED: ATOM     17  C2  UNL     1      10.430  -2.769  -4.455 +0.00 +0.00    +0.211 C  
DOCKED: ATOM     18  O1  UNL     1       9.216  -2.873  -4.305 +0.00 -0.00    -0.276 OA 
DOCKED: ATOM     19  N1  UNL     1      11.354  -3.129  -3.508 +0.00 -0.00    -0.304 N  
DOCKED: ATOM     20  H4  UNL     1      12.305  -2.780  -3.592 +0.00 +0.00    +0.149 HD 
DOCKED: ENDBRANCH  15  19
DOCKED: BRANCH  15  21
DOCKED: ATOM     21  C4  UNL     1      12.151  -3.644  -1.191 +0.00 +0.00    +0.034 C  
DOCKED: BRANCH  21  22
DOCKED: ATOM     22  C5  UNL     1      12.225  -2.547  -0.111 +0.00 -0.00    -0.015 C  
DOCKED: ATOM     23  C6  UNL     1      13.655  -2.188   0.289 +0.00 +0.00    +0.007 C  
DOCKED: ATOM     24  C7  UNL     1      11.477  -3.037   1.133 +0.00 +0.00    +0.007 C  
DOCKED: ENDBRANCH  21  22
DOCKED: ENDBRANCH  15  21
DOCKED: ENDBRANCH  11  15
DOCKED: ENDBRANCH  10  13
DOCKED: BRANCH  10  25
DOCKED: ATOM     25  C10 UNL     1       9.459   0.908  -1.189 +0.00 +0.00    +0.060 C  
DOCKED: BRANCH  25  26
DOCKED: ATOM     26  C11 UNL     1      10.965   1.047  -1.156 +0.00 -0.00    -0.046 A  
DOCKED: ATOM     27  C12 UNL     1      11.725   0.972  -2.332 +0.00 +0.00    +0.004 A  
DOCKED: ATOM     28  C13 UNL     1      13.116   1.080  -2.289 +0.00 +0.00    +0.000 A  
DOCKED: ATOM     29  C14 UNL     1      13.769   1.240  -1.069 +0.00 +0.00    +0.000 A  
DOCKED: ATOM     30  C15 UNL     1      13.031   1.285   0.108 +0.00 +0.00    +0.000 A  
DOCKED: ATOM     31  C16 UNL     1      11.641   1.179   0.066 +0.00 +0.00    +0.004 A  
DOCKED: ENDBRANCH  25  26
DOCKED: ENDBRANCH  10  25
DOCKED: ENDBRANCH   7  10
DOCKED: ENDBRANCH   6   7
DOCKED: ENDBRANCH   2   6
DOCKED: ENDBRANCH   1   4
DOCKED: BRANCH   1  32
DOCKED: ATOM     32  C21 UNL     1       4.126  -4.076  -3.109 +0.00 +0.00    +0.028 C  
DOCKED: BRANCH  32  33
DOCKED: ATOM     33  C22 UNL     1       2.863  -4.841  -2.660 +0.00 -0.00    -0.009 C  
DOCKED: ATOM     34  C23 UNL     1       3.178  -6.134  -1.895 +0.00 +0.00    +0.003 C  
DOCKED: ATOM     35  C24 UNL     1       1.905  -6.938  -1.635 +0.00 +0.00    +0.000 C  
DOCKED: ATOM     36  C25 UNL     1       0.854  -6.110  -0.902 +0.00 +0.00    +0.000 C  
DOCKED: ATOM     37  C26 UNL     1       0.573  -4.788  -1.604 +0.00 +0.00    +0.000 C  
DOCKED: ATOM     38  C27 UNL     1       1.853  -3.996  -1.874 +0.00 +0.00    +0.003 C  
DOCKED: ENDBRANCH  32  33
DOCKED: ENDBRANCH   1  32
DOCKED: BRANCH   1  39
DOCKED: ATOM     39  C28 UNL     1       6.546  -4.889  -3.322 +0.00 +0.00    +0.143 C  
DOCKED: BRANCH  39  40
DOCKED: ATOM     40  O5  UNL     1       7.871  -4.555  -2.926 +0.00 -0.00    -0.389 OA 
DOCKED: ATOM     41  H44 UNL     1       7.996  -3.587  -2.997 +0.00 +0.00    +0.210 HD 
DOCKED: ENDBRANCH  39  40
DOCKED: BRANCH  39  42
DOCKED: ATOM     42  C29 UNL     1       6.408  -6.393  -3.601 +0.00 +0.00    +0.129 C  
DOCKED: BRANCH  42  43
DOCKED: ATOM     43  C30 UNL     1       7.342  -7.296  -2.817 +0.00 +0.00    +0.216 C  
DOCKED: ATOM     44  O6  UNL     1       6.957  -8.183  -2.058 +0.00 -0.00    -0.276 OA 
DOCKED: ATOM     45  N4  UNL     1       8.670  -7.023  -3.037 +0.00 -0.00    -0.304 N  
DOCKED: ATOM     46  H47 UNL     1       8.920  -6.110  -3.424 +0.00 +0.00    +0.149 HD 
DOCKED: BRANCH  45  47
DOCKED: ATOM     47  C31 UNL     1       9.748  -7.709  -2.326 +0.00 +0.00    +0.161 C  
DOCKED: BRANCH  47  48
DOCKED: ATOM     48  C32 UNL     1       9.633  -7.331  -0.830 +0.00 +0.00    +0.234 C  
DOCKED: ATOM     49  O7  UNL     1       9.873  -8.148   0.061 +0.00 -0.00    -0.274 OA 
DOCKED: ATOM     50  N5  UNL     1       9.261  -6.028  -0.580 +0.00 -0.00    -0.310 N  
DOCKED: ATOM     51  H49 UNL     1       9.015  -5.417  -1.348 +0.00 +0.00    +0.149 HD 
DOCKED: BRANCH  50  52
DOCKED: ATOM     52  C33 UNL     1       8.995  -5.557   0.762 +0.00 +0.00    +0.139 C  
DOCKED: BRANCH  52  53
DOCKED: ATOM     53  C34 UNL     1       7.546  -5.177   0.932 +0.00 -0.00    -0.030 A  
DOCKED: ATOM     54  C35 UNL     1       6.537  -6.075   0.558 +0.00 +0.00    +0.006 A  
DOCKED: ATOM     55  C36 UNL     1       5.193  -5.714   0.663 +0.00 +0.00    +0.015 A  
DOCKED: ATOM     56  C37 UNL     1       4.837  -4.442   1.127 +0.00 +0.00    +0.059 A  
DOCKED: ATOM     57  C39 UNL     1       5.838  -3.540   1.506 +0.00 +0.00    +0.015 A  
DOCKED: ATOM     58  C40 UNL     1       7.185  -3.904   1.408 +0.00 +0.00    +0.006 A  
DOCKED: BRANCH  56  59
DOCKED: ATOM     59  C38 UNL     1       3.395  -4.106   1.204 +0.00 +0.00    +0.337 C  
DOCKED: ATOM     60  O8  UNL     1       2.510  -4.857   1.566 +0.00 -0.00    -0.245 OA 
DOCKED: BRANCH  59  61
DOCKED: ATOM     61  O9  UNL     1       3.131  -2.845   0.818 +0.00 -0.00    -0.477 OA 
DOCKED: ATOM     62  H54 UNL     1       3.389  -2.838  -0.130 +0.00 +0.00    +0.295 HD 
DOCKED: ENDBRANCH  59  61
DOCKED: ENDBRANCH  56  59
DOCKED: ENDBRANCH  52  53
DOCKED: ENDBRANCH  50  52
DOCKED: ENDBRANCH  47  48
DOCKED: BRANCH  47  63
DOCKED: ATOM     63  C41 UNL     1      11.136  -7.374  -2.921 +0.00 +0.00    +0.012 C  
DOCKED: ATOM     64  C42 UNL     1      11.015  -6.373  -4.075 +0.00 +0.00    +0.009 C  
DOCKED: ATOM     65  C43 UNL     1      12.121  -6.846  -1.868 +0.00 +0.00    +0.009 C  
DOCKED: ENDBRANCH  47  63
DOCKED: ENDBRANCH  45  47
DOCKED: ENDBRANCH  42  43
DOCKED: ENDBRANCH  39  42
DOCKED: ENDBRANCH   1  39
DOCKED: TORSDOF 25
DOCKED: TER
DOCKED: ENDMDL
________________________________________________________________________________


    FINAL DOCKED STATE:
    ________________________


Run:   4 / 20
Time taken for this run:   3.634s

DOCKED: MODEL        4
DOCKED: USER    Run = 4
DOCKED: USER
DOCKED: USER    Estimated Free Energy of Binding    =  +7.46 kcal/mol  [=(1)+(2)+(3)-(4)]
DOCKED: USER
DOCKED: USER    (1) Final Intermolecular Energy     =  +0.00 kcal/mol
DOCKED: USER        vdW + Hbond + desolv Energy     =  +0.00 kcal/mol
DOCKED: USER        Electrostatic Energy            =  +0.00 kcal/mol
DOCKED: USER        Moving Ligand-Fixed Receptor    =  +0.00 kcal/mol
DOCKED: USER        Moving Ligand-Moving Receptor   =  +0.00 kcal/mol
DOCKED: USER    (2) Final Total Internal Energy     = -18.13 kcal/mol
DOCKED: USER    (3) Torsional Free Energy           =  +7.46 kcal/mol
DOCKED: USER    (4) Unbound System's Energy         = -18.13 kcal/mol
DOCKED: USER
DOCKED: USER
DOCKED: REMARK  Name = ligands/ligand_17.pdb
DOCKED: REMARK  30 active torsions:
DOCKED: REMARK  status: ('A' for Active; 'I' for Inactive)
DOCKED: REMARK    1  A    between atoms: C1_1  and  C2_2
DOCKED: REMARK    2  A    between atoms: N1_4  and  C3_5
DOCKED: REMARK    3  A    between atoms: C3_5  and  C4_6
DOCKED: REMARK    4  A    between atoms: C3_5  and  C8_10
DOCKED: REMARK    5  A    between atoms: C4_6  and  C5_7
DOCKED: REMARK    6  A    between atoms: C5_7  and  C6_8
DOCKED: REMARK    7  A    between atoms: C5_7  and  C7_9
DOCKED: REMARK    8  A    between atoms: N2_12  and  C9_13
DOCKED: REMARK    9  A    between atoms: C9_13  and  C10_14
DOCKED: REMARK   10  A    between atoms: C9_13  and  C17_21
DOCKED: REMARK   11  A    between atoms: C10_14  and  C11_15
DOCKED: REMARK   12  A    between atoms: C17_21  and  O3_22
DOCKED: REMARK   13  A    between atoms: C17_21  and  C18_23
DOCKED: REMARK   14  A    between atoms: C18_23  and  C19_24
DOCKED: REMARK   15  A    between atoms: N3_26  and  C20_27
DOCKED: REMARK   16  A    between atoms: C20_27  and  C21_28
DOCKED: REMARK   17  A    between atoms: C20_27  and  C28_35
DOCKED: REMARK   18  A    between atoms: C21_28  and  C22_29
DOCKED: REMARK   19  A    between atoms: C28_35  and  O5_36
DOCKED: REMARK   20  A    between atoms: C28_35  and  C29_37
DOCKED: REMARK   21  A    between atoms: C29_37  and  C30_38
DOCKED: REMARK   22  A    between atoms: N4_40  and  C31_41
DOCKED: REMARK   23  A    between atoms: C31_41  and  C32_42
DOCKED: REMARK   24  A    between atoms: C31_41  and  C41_55
DOCKED: REMARK   25  A    between atoms: N5_44  and  C33_45
DOCKED: REMARK   26  A    between atoms: C33_45  and  C34_46
DOCKED: REMARK   27  A    between atoms: C37_49  and  C38_50
DOCKED: REMARK   28  A    between atoms: C38_50  and  O9_52
DOCKED: REMARK   29  A    between atoms: C41_55  and  C42_56
DOCKED: REMARK   30  A    between atoms: C41_55  and  C43_57
DOCKED: REMARK                            x       y       z     vdW  Elec       q    Type
DOCKED: REMARK                         _______ _______ _______ _____ _____    ______ ____
DOCKED: USER                              x       y       z     vdW  Elec       q    Type
DOCKED: USER                           _______ _______ _______ _____ _____    ______ ____
DOCKED: ROOT
DOCKED: ATOM      1  C20 UNL     1       7.458  -3.610   2.550 +0.00 +0.00    +0.102 C  
DOCKED: ENDROOT
DOCKED: BRANCH   1   4
DOCKED: ATOM      2  C19 UNL     1       7.604  -1.442   3.839 +0.00 +0.00    +0.216 C  
DOCKED: ATOM      3  O4  UNL     1       6.493  -1.468   4.352 +0.00 -0.00    -0.276 OA 
DOCKED: ATOM      4  N3  UNL     1       8.192  -2.492   3.149 +0.00 -0.00    -0.310 N  
DOCKED: ATOM      5  H28 UNL     1       8.998  -2.213   2.595 +0.00 +0.00    +0.149 HD 
DOCKED: BRANCH   2   6
DOCKED: ATOM      6  C18 UNL     1       8.524  -0.248   3.981 +0.00 +0.00    +0.129 C  
DOCKED: BRANCH   6   7
DOCKED: ATOM      7  C17 UNL     1       9.855  -0.430   3.263 +0.00 +0.00    +0.144 C  
DOCKED: BRANCH   7   8
DOCKED: ATOM      8  O3  UNL     1       9.547  -0.687   1.875 +0.00 -0.00    -0.389 OA 
DOCKED: ATOM      9  H25 UNL     1       9.853  -1.593   1.686 +0.00 +0.00    +0.210 HD 
DOCKED: ENDBRANCH   7   8
DOCKED: BRANCH   7  10
DOCKED: ATOM     10  C9  UNL     1      10.813  -1.555   3.744 +0.00 +0.00    +0.106 C  
DOCKED: BRANCH  10  13
DOCKED: ATOM     11  C8  UNL     1      11.329  -3.420   2.194 +0.00 +0.00    +0.234 C  
DOCKED: ATOM     12  O2  UNL     1      10.313  -4.042   2.511 +0.00 -0.00    -0.274 OA 
DOCKED: ATOM     13  N2  UNL     1      11.608  -2.158   2.676 +0.00 -0.00    -0.308 N  
DOCKED: ATOM     14  H15 UNL     1      11.968  -1.495   1.985 +0.00 +0.00    +0.149 HD 
DOCKED: BRANCH  11  15
DOCKED: ATOM     15  C3  UNL     1      12.458  -4.085   1.364 +0.00 +0.00    +0.159 C  
DOCKED: BRANCH  15  19
DOCKED: ATOM     16  C1  UNL     1      11.245  -3.028  -2.079 +0.00 +0.00    +0.109 C  
DOCKED: ATOM     17  C2  UNL     1      11.444  -2.935  -0.590 +0.00 +0.00    +0.211 C  
DOCKED: ATOM     18  O1  UNL     1      11.065  -1.964   0.058 +0.00 -0.00    -0.276 OA 
DOCKED: ATOM     19  N1  UNL     1      12.080  -4.021  -0.045 +0.00 -0.00    -0.304 N  
DOCKED: ATOM     20  H4  UNL     1      12.586  -4.653  -0.660 +0.00 +0.00    +0.149 HD 
DOCKED: ENDBRANCH  15  19
DOCKED: BRANCH  15  21
DOCKED: ATOM     21  C4  UNL     1      13.889  -3.601   1.634 +0.00 +0.00    +0.034 C  
DOCKED: BRANCH  21  22
DOCKED: ATOM     22  C5  UNL     1      14.636  -4.227   2.828 +0.00 -0.00    -0.015 C  
DOCKED: ATOM     23  C6  UNL     1      13.893  -5.405   3.456 +0.00 +0.00    +0.007 C  
DOCKED: ATOM     24  C7  UNL     1      14.835  -3.148   3.897 +0.00 +0.00    +0.007 C  
DOCKED: ENDBRANCH  21  22
DOCKED: ENDBRANCH  15  21
DOCKED: ENDBRANCH  11  15
DOCKED: ENDBRANCH  10  13
DOCKED: BRANCH  10  25
DOCKED: ATOM     25  C10 UNL     1      11.637  -1.264   5.026 +0.00 +0.00    +0.060 C  
DOCKED: BRANCH  25  26
DOCKED: ATOM     26  C11 UNL     1      11.756  -2.334   6.088 +0.00 -0.00    -0.046 A  
DOCKED: ATOM     27  C12 UNL     1      12.136  -3.644   5.756 +0.00 +0.00    +0.004 A  
DOCKED: ATOM     28  C13 UNL     1      12.222  -4.630   6.740 +0.00 +0.00    +0.000 A  
DOCKED: ATOM     29  C14 UNL     1      11.908  -4.330   8.063 +0.00 +0.00    +0.000 A  
DOCKED: ATOM     30  C15 UNL     1      11.500  -3.045   8.401 +0.00 +0.00    +0.000 A  
DOCKED: ATOM     31  C16 UNL     1      11.416  -2.057   7.419 +0.00 +0.00    +0.004 A  
DOCKED: ENDBRANCH  25  26
DOCKED: ENDBRANCH  10  25
DOCKED: ENDBRANCH   7  10
DOCKED: ENDBRANCH   6   7
DOCKED: ENDBRANCH   2   6
DOCKED: ENDBRANCH   1   4
DOCKED: BRANCH   1  32
DOCKED: ATOM     32  C21 UNL     1       5.986  -3.750   2.999 +0.00 +0.00    +0.028 C  
DOCKED: BRANCH  32  33
DOCKED: ATOM     33  C22 UNL     1       5.615  -4.858   4.007 +0.00 -0.00    -0.009 C  
DOCKED: ATOM     34  C23 UNL     1       4.402  -4.502   4.879 +0.00 +0.00    +0.003 C  
DOCKED: ATOM     35  C24 UNL     1       4.192  -5.548   5.973 +0.00 +0.00    +0.000 C  
DOCKED: ATOM     36  C25 UNL     1       4.057  -6.952   5.394 +0.00 +0.00    +0.000 C  
DOCKED: ATOM     37  C26 UNL     1       5.213  -7.305   4.467 +0.00 +0.00    +0.000 C  
DOCKED: ATOM     38  C27 UNL     1       5.427  -6.247   3.384 +0.00 +0.00    +0.003 C  
DOCKED: ENDBRANCH  32  33
DOCKED: ENDBRANCH   1  32
DOCKED: BRANCH   1  39
DOCKED: ATOM     39  C28 UNL     1       7.563  -3.608   0.985 +0.00 +0.00    +0.143 C  
DOCKED: BRANCH  39  40
DOCKED: ATOM     40  O5  UNL     1       8.839  -3.195   0.513 +0.00 -0.00    -0.389 OA 
DOCKED: ATOM     41  H44 UNL     1       9.312  -2.723   1.228 +0.00 +0.00    +0.210 HD 
DOCKED: ENDBRANCH  39  40
DOCKED: BRANCH  39  42
DOCKED: ATOM     42  C29 UNL     1       7.123  -4.927   0.330 +0.00 +0.00    +0.129 C  
DOCKED: BRANCH  42  43
DOCKED: ATOM     43  C30 UNL     1       7.834  -6.174   0.821 +0.00 +0.00    +0.216 C  
DOCKED: ATOM     44  O6  UNL     1       7.252  -7.190   1.193 +0.00 -0.00    -0.276 OA 
DOCKED: ATOM     45  N4  UNL     1       9.203  -6.056   0.811 +0.00 -0.00    -0.304 N  
DOCKED: ATOM     46  H47 UNL     1       9.609  -5.118   0.785 +0.00 +0.00    +0.149 HD 
DOCKED: BRANCH  45  47
DOCKED: ATOM     47  C31 UNL     1      10.091  -7.100   1.319 +0.00 +0.00    +0.161 C  
DOCKED: BRANCH  47  48
DOCKED: ATOM     48  C32 UNL     1      10.115  -6.981   2.862 +0.00 +0.00    +0.234 C  
DOCKED: ATOM     49  O7  UNL     1      11.077  -6.490   3.454 +0.00 -0.00    -0.274 OA 
DOCKED: ATOM     50  N5  UNL     1       8.989  -7.446   3.504 +0.00 -0.00    -0.310 N  
DOCKED: ATOM     51  H49 UNL     1       8.255  -7.897   2.973 +0.00 +0.00    +0.149 HD 
DOCKED: BRANCH  50  52
DOCKED: ATOM     52  C33 UNL     1       8.910  -7.513   4.947 +0.00 +0.00    +0.139 C  
DOCKED: BRANCH  52  53
DOCKED: ATOM     53  C34 UNL     1       8.517  -6.182   5.537 +0.00 -0.00    -0.030 A  
DOCKED: ATOM     54  C35 UNL     1       9.142  -5.008   5.095 +0.00 +0.00    +0.006 A  
DOCKED: ATOM     55  C36 UNL     1       8.823  -3.776   5.669 +0.00 +0.00    +0.015 A  
DOCKED: ATOM     56  C37 UNL     1       7.886  -3.703   6.707 +0.00 +0.00    +0.059 A  
DOCKED: ATOM     57  C39 UNL     1       7.255  -4.870   7.152 +0.00 +0.00    +0.015 A  
DOCKED: ATOM     58  C40 UNL     1       7.569  -6.103   6.571 +0.00 +0.00    +0.006 A  
DOCKED: BRANCH  56  59
DOCKED: ATOM     59  C38 UNL     1       7.596  -2.370   7.291 +0.00 +0.00    +0.337 C  
DOCKED: ATOM     60  O8  UNL     1       8.370  -1.699   7.946 +0.00 -0.00    -0.245 OA 
DOCKED: BRANCH  59  61
DOCKED: ATOM     61  O9  UNL     1       6.346  -1.948   7.032 +0.00 -0.00    -0.477 OA 
DOCKED: ATOM     62  H54 UNL     1       6.322  -1.893   6.051 +0.00 +0.00    +0.295 HD 
DOCKED: ENDBRANCH  59  61
DOCKED: ENDBRANCH  56  59
DOCKED: ENDBRANCH  52  53
DOCKED: ENDBRANCH  50  52
DOCKED: ENDBRANCH  47  48
DOCKED: BRANCH  47  63
DOCKED: ATOM     63  C41 UNL     1      11.503  -7.013   0.692 +0.00 +0.00    +0.012 C  
DOCKED: ATOM     64  C42 UNL     1      12.427  -8.097   1.259 +0.00 +0.00    +0.009 C  
DOCKED: ATOM     65  C43 UNL     1      11.478  -7.093  -0.841 +0.00 +0.00    +0.009 C  
DOCKED: ENDBRANCH  47  63
DOCKED: ENDBRANCH  45  47
DOCKED: ENDBRANCH  42  43
DOCKED: ENDBRANCH  39  42
DOCKED: ENDBRANCH   1  39
DOCKED: TORSDOF 25
DOCKED: TER
DOCKED: ENDMDL
________________________________________________________________________________


    FINAL DOCKED STATE:
    ________________________


Run:   5 / 20
Time taken for this run:   3.634s

DOCKED: MODEL        5
DOCKED: USER    Run = 5
DOCKED: USER
DOCKED: USER    Estimated Free Energy of Binding    =  +7.46 kcal/mol  [=(1)+(2)+(3)-(4)]
DOCKED: USER
DOCKED: USER    (1) Final Intermolecular Energy     =  +0.00 kcal/mol
DOCKED: USER        vdW + Hbond + desolv Energy     =  +0.00 kcal/mol
DOCKED: USER        Electrostatic Energy            =  +0.00 kcal/mol
DOCKED: USER        Moving Ligand-Fixed Receptor    =  +0.00 kcal/mol
DOCKED: USER        Moving Ligand-Moving Receptor   =  +0.00 kcal/mol
DOCKED: USER    (2) Final Total Internal Energy     = -17.96 kcal/mol
DOCKED: USER    (3) Torsional Free Energy           =  +7.46 kcal/mol
DOCKED: USER    (4) Unbound System's Energy         = -17.96 kcal/mol
DOCKED: USER
DOCKED: USER
DOCKED: REMARK  Name = ligands/ligand_17.pdb
DOCKED: REMARK  30 active torsions:
DOCKED: REMARK  status: ('A' for Active; 'I' for Inactive)
DOCKED: REMARK    1  A    between atoms: C1_1  and  C2_2
DOCKED: REMARK    2  A    between atoms: N1_4  and  C3_5
DOCKED: REMARK    3  A    between atoms: C3_5  and  C4_6
DOCKED: REMARK    4  A    between atoms: C3_5  and  C8_10
DOCKED: REMARK    5  A    between atoms: C4_6  and  C5_7
DOCKED: REMARK    6  A    between atoms: C5_7  and  C6_8
DOCKED: REMARK    7  A    between atoms: C5_7  and  C7_9
DOCKED: REMARK    8  A    between atoms: N2_12  and  C9_13
DOCKED: REMARK    9  A    between atoms: C9_13  and  C10_14
DOCKED: REMARK   10  A    between atoms: C9_13  and  C17_21
DOCKED: REMARK   11  A    between atoms: C10_14  and  C11_15
DOCKED: REMARK   12  A    between atoms: C17_21  and  O3_22
DOCKED: REMARK   13  A    between atoms: C17_21  and  C18_23
DOCKED: REMARK   14  A    between atoms: C18_23  and  C19_24
DOCKED: REMARK   15  A    between atoms: N3_26  and  C20_27
DOCKED: REMARK   16  A    between atoms: C20_27  and  C21_28
DOCKED: REMARK   17  A    between atoms: C20_27  and  C28_35
DOCKED: REMARK   18  A    between atoms: C21_28  and  C22_29
DOCKED: REMARK   19  A    between atoms: C28_35  and  O5_36
DOCKED: REMARK   20  A    between atoms: C28_35  and  C29_37
DOCKED: REMARK   21  A    between atoms: C29_37  and  C30_38
DOCKED: REMARK   22  A    between atoms: N4_40  and  C31_41
DOCKED: REMARK   23  A    between atoms: C31_41  and  C32_42
DOCKED: REMARK   24  A    between atoms: C31_41  and  C41_55
DOCKED: REMARK   25  A    between atoms: N5_44  and  C33_45
DOCKED: REMARK   26  A    between atoms: C33_45  and  C34_46
DOCKED: REMARK   27  A    between atoms: C37_49  and  C38_50
DOCKED: REMARK   28  A    between atoms: C38_50  and  O9_52
DOCKED: REMARK   29  A    between atoms: C41_55  and  C42_56
DOCKED: REMARK   30  A    between atoms: C41_55  and  C43_57
DOCKED: REMARK                            x       y       z     vdW  Elec       q    Type
DOCKED: REMARK                         _______ _______ _______ _____ _____    ______ ____
DOCKED: USER                              x       y       z     vdW  Elec       q    Type
DOCKED: USER                           _______ _______ _______ _____ _____    ______ ____
DOCKED: ROOT
DOCKED: ATOM      1  C20 UNL     1      10.063  -8.133  -4.331 +0.00 +0.00    +0.102 C  
DOCKED: ENDROOT
DOCKED: BRANCH   1   4
DOCKED: ATOM      2  C19 UNL     1       7.965  -6.749  -4.584 +0.00 +0.00    +0.216 C  
DOCKED: ATOM      3  O4  UNL     1       7.583  -7.204  -5.655 +0.00 -0.00    -0.276 OA 
DOCKED: ATOM      4  N3  UNL     1       8.999  -7.267  -3.818 +0.00 -0.00    -0.310 N  
DOCKED: ATOM      5  H28 UNL     1       9.329  -6.629  -3.097 +0.00 +0.00    +0.149 HD 
DOCKED: BRANCH   2   6
DOCKED: ATOM      6  C18 UNL     1       7.269  -5.584  -3.915 +0.00 +0.00    +0.129 C  
DOCKED: BRANCH   6   7
DOCKED: ATOM      7  C17 UNL     1       8.051  -5.015  -2.737 +0.00 +0.00    +0.144 C  
DOCKED: BRANCH   7   8
DOCKED: ATOM      8  O3  UNL     1       9.412  -4.838  -3.190 +0.00 -0.00    -0.389 OA 
DOCKED: ATOM      9  H25 UNL     1       9.967  -5.412  -2.631 +0.00 +0.00    +0.210 HD 
DOCKED: ENDBRANCH   7   8
DOCKED: BRANCH   7  10
DOCKED: ATOM     10  C9  UNL     1       8.102  -5.828  -1.415 +0.00 +0.00    +0.106 C  
DOCKED: BRANCH  10  13
DOCKED: ATOM     11  C8  UNL     1      10.406  -6.224  -0.592 +0.00 +0.00    +0.234 C  
DOCKED: ATOM     12  O2  UNL     1      10.629  -7.080  -1.451 +0.00 -0.00    -0.274 OA 
DOCKED: ATOM     13  N2  UNL     1       9.236  -5.496  -0.554 +0.00 -0.00    -0.308 N  
DOCKED: ATOM     14  H15 UNL     1       9.346  -4.499  -0.359 +0.00 +0.00    +0.149 HD 
DOCKED: BRANCH  11  15
DOCKED: ATOM     15  C3  UNL     1      11.358  -6.026   0.616 +0.00 +0.00    +0.159 C  
DOCKED: BRANCH  15  19
DOCKED: ATOM     16  C1  UNL     1      13.444  -3.272  -0.966 +0.00 +0.00    +0.109 C  
DOCKED: ATOM     17  C2  UNL     1      12.717  -4.587  -0.884 +0.00 +0.00    +0.211 C  
DOCKED: ATOM     18  O1  UNL     1      12.617  -5.337  -1.850 +0.00 -0.00    -0.276 OA 
DOCKED: ATOM     19  N1  UNL     1      12.186  -4.852   0.352 +0.00 -0.00    -0.304 N  
DOCKED: ATOM     20  H4  UNL     1      12.082  -4.088   1.016 +0.00 +0.00    +0.149 HD 
DOCKED: ENDBRANCH  15  19
DOCKED: BRANCH  15  21
DOCKED: ATOM     21  C4  UNL     1      10.712  -6.014   2.008 +0.00 +0.00    +0.034 C  
DOCKED: BRANCH  21  22
DOCKED: ATOM     22  C5  UNL     1       9.929  -7.271   2.437 +0.00 -0.00    -0.015 C  
DOCKED: ATOM     23  C6  UNL     1       8.861  -6.987   3.492 +0.00 +0.00    +0.007 C  
DOCKED: ATOM     24  C7  UNL     1      10.920  -8.292   3.007 +0.00 +0.00    +0.007 C  
DOCKED: ENDBRANCH  21  22
DOCKED: ENDBRANCH  15  21
DOCKED: ENDBRANCH  11  15
DOCKED: ENDBRANCH  10  13
DOCKED: BRANCH  10  25
DOCKED: ATOM     25  C10 UNL     1       6.767  -5.971  -0.636 +0.00 +0.00    +0.060 C  
DOCKED: BRANCH  25  26
DOCKED: ATOM     26  C11 UNL     1       6.343  -7.334  -0.138 +0.00 -0.00    -0.046 A  
DOCKED: ATOM     27  C12 UNL     1       5.113  -7.893  -0.515 +0.00 +0.00    +0.004 A  
DOCKED: ATOM     28  C13 UNL     1       4.722  -9.143  -0.033 +0.00 +0.00    +0.000 A  
DOCKED: ATOM     29  C14 UNL     1       5.541  -9.841   0.850 +0.00 +0.00    +0.000 A  
DOCKED: ATOM     30  C15 UNL     1       6.749  -9.287   1.257 +0.00 +0.00    +0.000 A  
DOCKED: ATOM     31  C16 UNL     1       7.143  -8.039   0.774 +0.00 +0.00    +0.004 A  
DOCKED: ENDBRANCH  25  26
DOCKED: ENDBRANCH  10  25
DOCKED: ENDBRANCH   7  10
DOCKED: ENDBRANCH   6   7
DOCKED: ENDBRANCH   2   6
DOCKED: ENDBRANCH   1   4
DOCKED: BRANCH   1  32
DOCKED: ATOM     32  C21 UNL     1       9.645  -9.087  -5.473 +0.00 +0.00    +0.028 C  
DOCKED: BRANCH  32  33
DOCKED: ATOM     33  C22 UNL     1       9.509 -10.595  -5.175 +0.00 -0.00    -0.009 C  
DOCKED: ATOM     34  C23 UNL     1       8.563 -11.320  -6.143 +0.00 +0.00    +0.003 C  
DOCKED: ATOM     35  C24 UNL     1       8.325 -12.761  -5.695 +0.00 +0.00    +0.000 C  
DOCKED: ATOM     36  C25 UNL     1       9.634 -13.526  -5.532 +0.00 +0.00    +0.000 C  
DOCKED: ATOM     37  C26 UNL     1      10.619 -12.793  -4.630 +0.00 +0.00    +0.000 C  
DOCKED: ATOM     38  C27 UNL     1      10.841 -11.347  -5.076 +0.00 +0.00    +0.003 C  
DOCKED: ENDBRANCH  32  33
DOCKED: ENDBRANCH   1  32
DOCKED: BRANCH   1  39
DOCKED: ATOM     39  C28 UNL     1      11.342  -7.318  -4.729 +0.00 +0.00    +0.143 C  
DOCKED: BRANCH  39  40
DOCKED: ATOM     40  O5  UNL     1      11.585  -6.209  -3.872 +0.00 -0.00    -0.389 OA 
DOCKED: ATOM     41  H44 UNL     1      11.050  -6.306  -3.058 +0.00 +0.00    +0.210 HD 
DOCKED: ENDBRANCH  39  40
DOCKED: BRANCH  39  42
DOCKED: ATOM     42  C29 UNL     1      12.603  -8.180  -4.900 +0.00 +0.00    +0.129 C  
DOCKED: BRANCH  42  43
DOCKED: ATOM     43  C30 UNL     1      13.003  -9.006  -3.692 +0.00 +0.00    +0.216 C  
DOCKED: ATOM     44  O6  UNL     1      13.293 -10.199  -3.747 +0.00 -0.00    -0.276 OA 
DOCKED: ATOM     45  N4  UNL     1      13.008  -8.287  -2.522 +0.00 -0.00    -0.304 N  
DOCKED: ATOM     46  H47 UNL     1      12.481  -7.412  -2.488 +0.00 +0.00    +0.149 HD 
DOCKED: BRANCH  45  47
DOCKED: ATOM     47  C31 UNL     1      13.280  -8.895  -1.221 +0.00 +0.00    +0.161 C  
DOCKED: BRANCH  47  48
DOCKED: ATOM     48  C32 UNL     1      11.981  -9.593  -0.752 +0.00 +0.00    +0.234 C  
DOCKED: ATOM     49  O7  UNL     1      11.274  -9.109   0.134 +0.00 -0.00    -0.274 OA 
DOCKED: ATOM     50  N5  UNL     1      11.678 -10.769  -1.402 +0.00 -0.00    -0.310 N  
DOCKED: ATOM     51  H49 UNL     1      12.326 -11.153  -2.078 +0.00 +0.00    +0.149 HD 
DOCKED: BRANCH  50  52
DOCKED: ATOM     52  C33 UNL     1      10.564 -11.597  -0.996 +0.00 +0.00    +0.139 C  
DOCKED: BRANCH  52  53
DOCKED: ATOM     53  C34 UNL     1       9.270 -11.105  -1.592 +0.00 -0.00    -0.030 A  
DOCKED: ATOM     54  C35 UNL     1       8.381 -12.013  -2.184 +0.00 +0.00    +0.006 A  
DOCKED: ATOM     55  C36 UNL     1       7.203 -11.563  -2.784 +0.00 +0.00    +0.015 A  
DOCKED: ATOM     56  C37 UNL     1       6.906 -10.194  -2.817 +0.00 +0.00    +0.059 A  
DOCKED: ATOM     57  C39 UNL     1       7.787  -9.281  -2.226 +0.00 +0.00    +0.015 A  
DOCKED: ATOM     58  C40 UNL     1       8.963  -9.733  -1.617 +0.00 +0.00    +0.006 A  
DOCKED: BRANCH  56  59
DOCKED: ATOM     59  C38 UNL     1       5.650  -9.770  -3.481 +0.00 +0.00    +0.337 C  
DOCKED: ATOM     60  O8  UNL     1       4.699 -10.488  -3.725 +0.00 -0.00    -0.245 OA 
DOCKED: BRANCH  59  61
DOCKED: ATOM     61  O9  UNL     1       5.649  -8.467  -3.812 +0.00 -0.00    -0.477 OA 
DOCKED: ATOM     62  H54 UNL     1       6.132  -8.448  -4.667 +0.00 +0.00    +0.295 HD 
DOCKED: ENDBRANCH  59  61
DOCKED: ENDBRANCH  56  59
DOCKED: ENDBRANCH  52  53
DOCKED: ENDBRANCH  50  52
DOCKED: ENDBRANCH  47  48
DOCKED: BRANCH  47  63
DOCKED: ATOM     63  C41 UNL     1      13.803  -7.859  -0.198 +0.00 +0.00    +0.012 C  
DOCKED: ATOM     64  C42 UNL     1      14.047  -8.508   1.170 +0.00 +0.00    +0.009 C  
DOCKED: ATOM     65  C43 UNL     1      15.076  -7.144  -0.674 +0.00 +0.00    +0.009 C  
DOCKED: ENDBRANCH  47  63
DOCKED: ENDBRANCH  45  47
DOCKED: ENDBRANCH  42  43
DOCKED: ENDBRANCH  39  42
DOCKED: ENDBRANCH   1  39
DOCKED: TORSDOF 25
DOCKED: TER
DOCKED: ENDMDL
________________________________________________________________________________


    FINAL DOCKED STATE:
    ________________________


Run:   6 / 20
Time taken for this run:   3.634s

DOCKED: MODEL        6
DOCKED: USER    Run = 6
DOCKED: USER
DOCKED: USER    Estimated Free Energy of Binding    =  +7.46 kcal/mol  [=(1)+(2)+(3)-(4)]
DOCKED: USER
DOCKED: USER    (1) Final Intermolecular Energy     =  +0.00 kcal/mol
DOCKED: USER        vdW + Hbond + desolv Energy     =  +0.00 kcal/mol
DOCKED: USER        Electrostatic Energy            =  +0.00 kcal/mol
DOCKED: USER        Moving Ligand-Fixed Receptor    =  +0.00 kcal/mol
DOCKED: USER        Moving Ligand-Moving Receptor   =  +0.00 kcal/mol
DOCKED: USER    (2) Final Total Internal Energy     = -18.13 kcal/mol
DOCKED: USER    (3) Torsional Free Energy           =  +7.46 kcal/mol
DOCKED: USER    (4) Unbound System's Energy         = -18.13 kcal/mol
DOCKED: USER
DOCKED: USER
DOCKED: REMARK  Name = ligands/ligand_17.pdb
DOCKED: REMARK  30 active torsions:
DOCKED: REMARK  status: ('A' for Active; 'I' for Inactive)
DOCKED: REMARK    1  A    between atoms: C1_1  and  C2_2
DOCKED: REMARK    2  A    between atoms: N1_4  and  C3_5
DOCKED: REMARK    3  A    between atoms: C3_5  and  C4_6
DOCKED: REMARK    4  A    between atoms: C3_5  and  C8_10
DOCKED: REMARK    5  A    between atoms: C4_6  and  C5_7
DOCKED: REMARK    6  A    between atoms: C5_7  and  C6_8
DOCKED: REMARK    7  A    between atoms: C5_7  and  C7_9
DOCKED: REMARK    8  A    between atoms: N2_12  and  C9_13
DOCKED: REMARK    9  A    between atoms: C9_13  and  C10_14
DOCKED: REMARK   10  A    between atoms: C9_13  and  C17_21
DOCKED: REMARK   11  A    between atoms: C10_14  and  C11_15
DOCKED: REMARK   12  A    between atoms: C17_21  and  O3_22
DOCKED: REMARK   13  A    between atoms: C17_21  and  C18_23
DOCKED: REMARK   14  A    between atoms: C18_23  and  C19_24
DOCKED: REMARK   15  A    between atoms: N3_26  and  C20_27
DOCKED: REMARK   16  A    between atoms: C20_27  and  C21_28
DOCKED: REMARK   17  A    between atoms: C20_27  and  C28_35
DOCKED: REMARK   18  A    between atoms: C21_28  and  C22_29
DOCKED: REMARK   19  A    between atoms: C28_35  and  O5_36
DOCKED: REMARK   20  A    between atoms: C28_35  and  C29_37
DOCKED: REMARK   21  A    between atoms: C29_37  and  C30_38
DOCKED: REMARK   22  A    between atoms: N4_40  and  C31_41
DOCKED: REMARK   23  A    between atoms: C31_41  and  C32_42
DOCKED: REMARK   24  A    between atoms: C31_41  and  C41_55
DOCKED: REMARK   25  A    between atoms: N5_44  and  C33_45
DOCKED: REMARK   26  A    between atoms: C33_45  and  C34_46
DOCKED: REMARK   27  A    between atoms: C37_49  and  C38_50
DOCKED: REMARK   28  A    between atoms: C38_50  and  O9_52
DOCKED: REMARK   29  A    between atoms: C41_55  and  C42_56
DOCKED: REMARK   30  A    between atoms: C41_55  and  C43_57
DOCKED: REMARK                            x       y       z     vdW  Elec       q    Type
DOCKED: REMARK                         _______ _______ _______ _____ _____    ______ ____
DOCKED: USER                              x       y       z     vdW  Elec       q    Type
DOCKED: USER                           _______ _______ _______ _____ _____    ______ ____
DOCKED: ROOT
DOCKED: ATOM      1  C20 UNL     1       7.622  -3.581   1.532 +0.00 +0.00    +0.102 C  
DOCKED: ENDROOT
DOCKED: BRANCH   1   4
DOCKED: ATOM      2  C19 UNL     1       5.814  -1.830   1.760 +0.00 +0.00    +0.216 C  
DOCKED: ATOM      3  O4  UNL     1       4.990  -2.331   1.005 +0.00 -0.00    -0.276 OA 
DOCKED: ATOM      4  N3  UNL     1       6.975  -2.449   2.201 +0.00 -0.00    -0.310 N  
DOCKED: ATOM      5  H28 UNL     1       7.645  -1.806   2.616 +0.00 +0.00    +0.149 HD 
DOCKED: BRANCH   2   6
DOCKED: ATOM      6  C18 UNL     1       5.606  -0.466   2.382 +0.00 +0.00    +0.129 C  
DOCKED: BRANCH   6   7
DOCKED: ATOM      7  C17 UNL     1       6.762  -0.034   3.276 +0.00 +0.00    +0.144 C  
DOCKED: BRANCH   7   8
DOCKED: ATOM      8  O3  UNL     1       7.951  -0.051   2.455 +0.00 -0.00    -0.389 OA 
DOCKED: ATOM      9  H25 UNL     1       8.538  -0.732   2.831 +0.00 +0.00    +0.210 HD 
DOCKED: ENDBRANCH   7   8
DOCKED: BRANCH   7  10
DOCKED: ATOM     10  C9  UNL     1       7.066  -0.863   4.553 +0.00 +0.00    +0.106 C  
DOCKED: BRANCH  10  13
DOCKED: ATOM     11  C8  UNL     1       9.236  -2.051   4.724 +0.00 +0.00    +0.234 C  
DOCKED: ATOM     12  O2  UNL     1       8.815  -3.030   4.105 +0.00 -0.00    -0.274 OA 
DOCKED: ATOM     13  N2  UNL     1       8.483  -0.910   4.911 +0.00 -0.00    -0.308 N  
DOCKED: ATOM     14  H15 UNL     1       8.984  -0.029   4.784 +0.00 +0.00    +0.149 HD 
DOCKED: BRANCH  11  15
DOCKED: ATOM     15  C3  UNL     1      10.583  -2.097   5.489 +0.00 +0.00    +0.159 C  
DOCKED: BRANCH  15  19
DOCKED: ATOM     16  C1  UNL     1      12.801  -0.769   2.704 +0.00 +0.00    +0.109 C  
DOCKED: ATOM     17  C2  UNL     1      11.541  -0.945   3.508 +0.00 +0.00    +0.211 C  
DOCKED: ATOM     18  O1  UNL     1      10.515  -0.321   3.257 +0.00 -0.00    -0.276 OA 
DOCKED: ATOM     19  N1  UNL     1      11.657  -1.852   4.530 +0.00 -0.00    -0.304 N  
DOCKED: ATOM     20  H4  UNL     1      12.586  -2.130   4.837 +0.00 +0.00    +0.149 HD 
DOCKED: ENDBRANCH  15  19
DOCKED: BRANCH  15  21
DOCKED: ATOM     21  C4  UNL     1      10.688  -1.234   6.754 +0.00 +0.00    +0.034 C  
DOCKED: BRANCH  21  22
DOCKED: ATOM     22  C5  UNL     1      10.053  -1.787   8.045 +0.00 -0.00    -0.015 C  
DOCKED: ATOM     23  C6  UNL     1       9.658  -3.259   7.942 +0.00 +0.00    +0.007 C  
DOCKED: ATOM     24  C7  UNL     1       8.799  -0.965   8.362 +0.00 +0.00    +0.007 C  
DOCKED: ENDBRANCH  21  22
DOCKED: ENDBRANCH  15  21
DOCKED: ENDBRANCH  11  15
DOCKED: ENDBRANCH  10  13
DOCKED: BRANCH  10  25
DOCKED: ATOM     25  C10 UNL     1       6.138  -0.623   5.774 +0.00 +0.00    +0.060 C  
DOCKED: BRANCH  25  26
DOCKED: ATOM     26  C11 UNL     1       5.578  -1.812   6.521 +0.00 -0.00    -0.046 A  
DOCKED: ATOM     27  C12 UNL     1       6.420  -2.819   7.016 +0.00 +0.00    +0.004 A  
DOCKED: ATOM     28  C13 UNL     1       5.892  -3.923   7.686 +0.00 +0.00    +0.000 A  
DOCKED: ATOM     29  C14 UNL     1       4.515  -4.050   7.852 +0.00 +0.00    +0.000 A  
DOCKED: ATOM     30  C15 UNL     1       3.665  -3.075   7.341 +0.00 +0.00    +0.000 A  
DOCKED: ATOM     31  C16 UNL     1       4.192  -1.970   6.672 +0.00 +0.00    +0.004 A  
DOCKED: ENDBRANCH  25  26
DOCKED: ENDBRANCH  10  25
DOCKED: ENDBRANCH   7  10
DOCKED: ENDBRANCH   6   7
DOCKED: ENDBRANCH   2   6
DOCKED: ENDBRANCH   1   4
DOCKED: BRANCH   1  32
DOCKED: ATOM     32  C21 UNL     1       6.766  -4.291   0.459 +0.00 +0.00    +0.028 C  
DOCKED: BRANCH  32  33
DOCKED: ATOM     33  C22 UNL     1       6.128  -5.655   0.796 +0.00 -0.00    -0.009 C  
DOCKED: ATOM     34  C23 UNL     1       4.820  -5.916   0.035 +0.00 +0.00    +0.003 C  
DOCKED: ATOM     35  C24 UNL     1       4.142  -7.190   0.537 +0.00 +0.00    +0.000 C  
DOCKED: ATOM     36  C25 UNL     1       5.072  -8.395   0.457 +0.00 +0.00    +0.000 C  
DOCKED: ATOM     37  C26 UNL     1       6.407  -8.137   1.145 +0.00 +0.00    +0.000 C  
DOCKED: ATOM     38  C27 UNL     1       7.073  -6.853   0.648 +0.00 +0.00    +0.003 C  
DOCKED: ENDBRANCH  32  33
DOCKED: ENDBRANCH   1  32
DOCKED: BRANCH   1  39
DOCKED: ATOM     39  C28 UNL     1       9.027  -3.194   0.953 +0.00 +0.00    +0.143 C  
DOCKED: BRANCH  39  40
DOCKED: ATOM     40  O5  UNL     1       9.735  -2.275   1.778 +0.00 -0.00    -0.389 OA 
DOCKED: ATOM     41  H44 UNL     1       9.113  -1.858   2.407 +0.00 +0.00    +0.210 HD 
DOCKED: ENDBRANCH  39  40
DOCKED: BRANCH  39  42
DOCKED: ATOM     42  C29 UNL     1       9.902  -4.401   0.580 +0.00 +0.00    +0.129 C  
DOCKED: BRANCH  42  43
DOCKED: ATOM     43  C30 UNL     1      10.124  -5.417   1.685 +0.00 +0.00    +0.216 C  
DOCKED: ATOM     44  O6  UNL     1       9.903  -6.620   1.560 +0.00 -0.00    -0.276 OA 
DOCKED: ATOM     45  N4  UNL     1      10.599  -4.859   2.846 +0.00 -0.00    -0.304 N  
DOCKED: ATOM     46  H47 UNL     1      10.477  -3.854   2.988 +0.00 +0.00    +0.149 HD 
DOCKED: BRANCH  45  47
DOCKED: ATOM     47  C31 UNL     1      10.808  -5.634   4.069 +0.00 +0.00    +0.161 C  
DOCKED: BRANCH  47  48
DOCKED: ATOM     48  C32 UNL     1       9.423  -5.853   4.723 +0.00 +0.00    +0.234 C  
DOCKED: ATOM     49  O7  UNL     1       9.056  -5.187   5.694 +0.00 -0.00    -0.274 OA 
DOCKED: ATOM     50  N5  UNL     1       8.642  -6.824   4.135 +0.00 -0.00    -0.310 N  
DOCKED: ATOM     51  H49 UNL     1       9.017  -7.383   3.380 +0.00 +0.00    +0.149 HD 
DOCKED: BRANCH  50  52
DOCKED: ATOM     52  C33 UNL     1       7.375  -7.227   4.703 +0.00 +0.00    +0.139 C  
DOCKED: BRANCH  52  53
DOCKED: ATOM     53  C34 UNL     1       6.270  -6.282   4.304 +0.00 -0.00    -0.030 A  
DOCKED: ATOM     54  C35 UNL     1       6.469  -4.897   4.389 +0.00 +0.00    +0.006 A  
DOCKED: ATOM     55  C36 UNL     1       5.436  -4.012   4.071 +0.00 +0.00    +0.015 A  
DOCKED: ATOM     56  C37 UNL     1       4.183  -4.501   3.681 +0.00 +0.00    +0.059 A  
DOCKED: ATOM     57  C39 UNL     1       3.977  -5.882   3.590 +0.00 +0.00    +0.015 A  
DOCKED: ATOM     58  C40 UNL     1       5.014  -6.768   3.901 +0.00 +0.00    +0.006 A  
DOCKED: BRANCH  56  59
DOCKED: ATOM     59  C38 UNL     1       3.118  -3.517   3.369 +0.00 +0.00    +0.337 C  
DOCKED: ATOM     60  O8  UNL     1       2.580  -2.776   4.169 +0.00 -0.00    -0.245 OA 
DOCKED: BRANCH  59  61
DOCKED: ATOM     61  O9  UNL     1       2.773  -3.515   2.069 +0.00 -0.00    -0.477 OA 
DOCKED: ATOM     62  H54 UNL     1       3.548  -3.105   1.628 +0.00 +0.00    +0.295 HD 
DOCKED: ENDBRANCH  59  61
DOCKED: ENDBRANCH  56  59
DOCKED: ENDBRANCH  52  53
DOCKED: ENDBRANCH  50  52
DOCKED: ENDBRANCH  47  48
DOCKED: BRANCH  47  63
DOCKED: ATOM     63  C41 UNL     1      11.815  -4.948   5.022 +0.00 +0.00    +0.012 C  
DOCKED: ATOM     64  C42 UNL     1      11.995  -5.758   6.311 +0.00 +0.00    +0.009 C  
DOCKED: ATOM     65  C43 UNL     1      13.180  -4.699   4.363 +0.00 +0.00    +0.009 C  
DOCKED: ENDBRANCH  47  63
DOCKED: ENDBRANCH  45  47
DOCKED: ENDBRANCH  42  43
DOCKED: ENDBRANCH  39  42
DOCKED: ENDBRANCH   1  39
DOCKED: TORSDOF 25
DOCKED: TER
DOCKED: ENDMDL
________________________________________________________________________________


    FINAL DOCKED STATE:
    ________________________


Run:   7 / 20
Time taken for this run:   3.634s

DOCKED: MODEL        7
DOCKED: USER    Run = 7
DOCKED: USER
DOCKED: USER    Estimated Free Energy of Binding    =  +7.46 kcal/mol  [=(1)+(2)+(3)-(4)]
DOCKED: USER
DOCKED: USER    (1) Final Intermolecular Energy     =  +0.00 kcal/mol
DOCKED: USER        vdW + Hbond + desolv Energy     =  +0.00 kcal/mol
DOCKED: USER        Electrostatic Energy            =  +0.00 kcal/mol
DOCKED: USER        Moving Ligand-Fixed Receptor    =  +0.00 kcal/mol
DOCKED: USER        Moving Ligand-Moving Receptor   =  +0.00 kcal/mol
DOCKED: USER    (2) Final Total Internal Energy     = -18.15 kcal/mol
DOCKED: USER    (3) Torsional Free Energy           =  +7.46 kcal/mol
DOCKED: USER    (4) Unbound System's Energy         = -18.15 kcal/mol
DOCKED: USER
DOCKED: USER
DOCKED: REMARK  Name = ligands/ligand_17.pdb
DOCKED: REMARK  30 active torsions:
DOCKED: REMARK  status: ('A' for Active; 'I' for Inactive)
DOCKED: REMARK    1  A    between atoms: C1_1  and  C2_2
DOCKED: REMARK    2  A    between atoms: N1_4  and  C3_5
DOCKED: REMARK    3  A    between atoms: C3_5  and  C4_6
DOCKED: REMARK    4  A    between atoms: C3_5  and  C8_10
DOCKED: REMARK    5  A    between atoms: C4_6  and  C5_7
DOCKED: REMARK    6  A    between atoms: C5_7  and  C6_8
DOCKED: REMARK    7  A    between atoms: C5_7  and  C7_9
DOCKED: REMARK    8  A    between atoms: N2_12  and  C9_13
DOCKED: REMARK    9  A    between atoms: C9_13  and  C10_14
DOCKED: REMARK   10  A    between atoms: C9_13  and  C17_21
DOCKED: REMARK   11  A    between atoms: C10_14  and  C11_15
DOCKED: REMARK   12  A    between atoms: C17_21  and  O3_22
DOCKED: REMARK   13  A    between atoms: C17_21  and  C18_23
DOCKED: REMARK   14  A    between atoms: C18_23  and  C19_24
DOCKED: REMARK   15  A    between atoms: N3_26  and  C20_27
DOCKED: REMARK   16  A    between atoms: C20_27  and  C21_28
DOCKED: REMARK   17  A    between atoms: C20_27  and  C28_35
DOCKED: REMARK   18  A    between atoms: C21_28  and  C22_29
DOCKED: REMARK   19  A    between atoms: C28_35  and  O5_36
DOCKED: REMARK   20  A    between atoms: C28_35  and  C29_37
DOCKED: REMARK   21  A    between atoms: C29_37  and  C30_38
DOCKED: REMARK   22  A    between atoms: N4_40  and  C31_41
DOCKED: REMARK   23  A    between atoms: C31_41  and  C32_42
DOCKED: REMARK   24  A    between atoms: C31_41  and  C41_55
DOCKED: REMARK   25  A    between atoms: N5_44  and  C33_45
DOCKED: REMARK   26  A    between atoms: C33_45  and  C34_46
DOCKED: REMARK   27  A    between atoms: C37_49  and  C38_50
DOCKED: REMARK   28  A    between atoms: C38_50  and  O9_52
DOCKED: REMARK   29  A    between atoms: C41_55  and  C42_56
DOCKED: REMARK   30  A    between atoms: C41_55  and  C43_57
DOCKED: REMARK                            x       y       z     vdW  Elec       q    Type
DOCKED: REMARK                         _______ _______ _______ _____ _____    ______ ____
DOCKED: USER                              x       y       z     vdW  Elec       q    Type
DOCKED: USER                           _______ _______ _______ _____ _____    ______ ____
DOCKED: ROOT
DOCKED: ATOM      1  C20 UNL     1       9.816  -6.254   1.834 +0.00 +0.00    +0.102 C  
DOCKED: ENDROOT
DOCKED: BRANCH   1   4
DOCKED: ATOM      2  C19 UNL     1       7.398  -6.305   2.566 +0.00 +0.00    +0.216 C  
DOCKED: ATOM      3  O4  UNL     1       7.165  -7.481   2.316 +0.00 -0.00    -0.276 OA 
DOCKED: ATOM      4  N3  UNL     1       8.655  -5.718   2.550 +0.00 -0.00    -0.310 N  
DOCKED: ATOM      5  H28 UNL     1       8.627  -4.702   2.543 +0.00 +0.00    +0.149 HD 
DOCKED: BRANCH   2   6
DOCKED: ATOM      6  C18 UNL     1       6.313  -5.352   3.019 +0.00 +0.00    +0.129 C  
DOCKED: BRANCH   6   7
DOCKED: ATOM      7  C17 UNL     1       6.828  -3.943   3.285 +0.00 +0.00    +0.144 C  
DOCKED: BRANCH   7   8
DOCKED: ATOM      8  O3  UNL     1       7.437  -3.485   2.058 +0.00 -0.00    -0.389 OA 
DOCKED: ATOM      9  H25 UNL     1       8.386  -3.365   2.247 +0.00 +0.00    +0.210 HD 
DOCKED: ENDBRANCH   7   8
DOCKED: BRANCH   7  10
DOCKED: ATOM     10  C9  UNL     1       7.861  -3.730   4.426 +0.00 +0.00    +0.106 C  
DOCKED: BRANCH  10  13
DOCKED: ATOM     11  C8  UNL     1      10.134  -2.935   3.839 +0.00 +0.00    +0.234 C  
DOCKED: ATOM     12  O2  UNL     1      10.532  -4.074   3.586 +0.00 -0.00    -0.274 OA 
DOCKED: ATOM     13  N2  UNL     1       8.823  -2.660   4.167 +0.00 -0.00    -0.308 N  
DOCKED: ATOM     14  H15 UNL     1       8.427  -1.827   3.728 +0.00 +0.00    +0.149 HD 
DOCKED: BRANCH  11  15
DOCKED: ATOM     15  C3  UNL     1      11.122  -1.747   3.976 +0.00 +0.00    +0.159 C  
DOCKED: BRANCH  15  19
DOCKED: ATOM     16  C1  UNL     1      10.984  -0.550   0.372 +0.00 +0.00    +0.109 C  
DOCKED: ATOM     17  C2  UNL     1      10.486  -1.187   1.641 +0.00 +0.00    +0.211 C  
DOCKED: ATOM     18  O1  UNL     1       9.335  -1.596   1.756 +0.00 -0.00    -0.276 OA 
DOCKED: ATOM     19  N1  UNL     1      11.428  -1.256   2.635 +0.00 -0.00    -0.304 N  
DOCKED: ATOM     20  H4  UNL     1      12.261  -0.676   2.564 +0.00 +0.00    +0.149 HD 
DOCKED: ENDBRANCH  15  19
DOCKED: BRANCH  15  21
DOCKED: ATOM     21  C4  UNL     1      10.730  -0.634   4.957 +0.00 +0.00    +0.034 C  
DOCKED: BRANCH  21  22
DOCKED: ATOM     22  C5  UNL     1      11.055  -0.854   6.447 +0.00 -0.00    -0.015 C  
DOCKED: ATOM     23  C6  UNL     1      11.926  -2.083   6.701 +0.00 +0.00    +0.007 C  
DOCKED: ATOM     24  C7  UNL     1       9.738  -1.021   7.213 +0.00 +0.00    +0.007 C  
DOCKED: ENDBRANCH  21  22
DOCKED: ENDBRANCH  15  21
DOCKED: ENDBRANCH  11  15
DOCKED: ENDBRANCH  10  13
DOCKED: BRANCH  10  25
DOCKED: ATOM     25  C10 UNL     1       7.302  -3.709   5.873 +0.00 +0.00    +0.060 C  
DOCKED: BRANCH  25  26
DOCKED: ATOM     26  C11 UNL     1       8.036  -4.462   6.960 +0.00 -0.00    -0.046 A  
DOCKED: ATOM     27  C12 UNL     1       9.420  -4.315   7.134 +0.00 +0.00    +0.004 A  
DOCKED: ATOM     28  C13 UNL     1      10.092  -5.030   8.126 +0.00 +0.00    +0.000 A  
DOCKED: ATOM     29  C14 UNL     1       9.397  -5.918   8.943 +0.00 +0.00    +0.000 A  
DOCKED: ATOM     30  C15 UNL     1       8.030  -6.097   8.763 +0.00 +0.00    +0.000 A  
DOCKED: ATOM     31  C16 UNL     1       7.357  -5.381   7.772 +0.00 +0.00    +0.004 A  
DOCKED: ENDBRANCH  25  26
DOCKED: ENDBRANCH  10  25
DOCKED: ENDBRANCH   7  10
DOCKED: ENDBRANCH   6   7
DOCKED: ENDBRANCH   2   6
DOCKED: ENDBRANCH   1   4
DOCKED: BRANCH   1  32
DOCKED: ATOM     32  C21 UNL     1       9.666  -7.706   1.327 +0.00 +0.00    +0.028 C  
DOCKED: BRANCH  32  33
DOCKED: ATOM     33  C22 UNL     1      10.385  -8.840   2.089 +0.00 -0.00    -0.009 C  
DOCKED: ATOM     34  C23 UNL     1       9.664 -10.192   1.981 +0.00 +0.00    +0.003 C  
DOCKED: ATOM     35  C24 UNL     1      10.314 -11.230   2.895 +0.00 +0.00    +0.000 C  
DOCKED: ATOM     36  C25 UNL     1      11.805 -11.380   2.610 +0.00 +0.00    +0.000 C  
DOCKED: ATOM     37  C26 UNL     1      12.533 -10.041   2.641 +0.00 +0.00    +0.000 C  
DOCKED: ATOM     38  C27 UNL     1      11.868  -9.003   1.736 +0.00 +0.00    +0.003 C  
DOCKED: ENDBRANCH  32  33
DOCKED: ENDBRANCH   1  32
DOCKED: BRANCH   1  39
DOCKED: ATOM     39  C28 UNL     1      10.277  -5.306   0.674 +0.00 +0.00    +0.143 C  
DOCKED: BRANCH  39  40
DOCKED: ATOM     40  O5  UNL     1      10.138  -3.927   0.993 +0.00 -0.00    -0.389 OA 
DOCKED: ATOM     41  H44 UNL     1       9.541  -3.830   1.762 +0.00 +0.00    +0.210 HD 
DOCKED: ENDBRANCH  39  40
DOCKED: BRANCH  39  42
DOCKED: ATOM     42  C29 UNL     1      11.682  -5.618   0.135 +0.00 +0.00    +0.129 C  
DOCKED: BRANCH  42  43
DOCKED: ATOM     43  C30 UNL     1      12.791  -5.645   1.171 +0.00 +0.00    +0.216 C  
DOCKED: ATOM     44  O6  UNL     1      13.578  -6.581   1.303 +0.00 -0.00    -0.276 OA 
DOCKED: ATOM     45  N4  UNL     1      12.830  -4.517   1.952 +0.00 -0.00    -0.304 N  
DOCKED: ATOM     46  H47 UNL     1      11.994  -3.931   2.002 +0.00 +0.00    +0.149 HD 
DOCKED: BRANCH  45  47
DOCKED: ATOM     47  C31 UNL     1      13.761  -4.360   3.070 +0.00 +0.00    +0.161 C  
DOCKED: BRANCH  47  48
DOCKED: ATOM     48  C32 UNL     1      13.195  -5.165   4.264 +0.00 +0.00    +0.234 C  
DOCKED: ATOM     49  O7  UNL     1      12.634  -4.606   5.208 +0.00 -0.00    -0.274 OA 
DOCKED: ATOM     50  N5  UNL     1      13.355  -6.531   4.180 +0.00 -0.00    -0.310 N  
DOCKED: ATOM     51  H49 UNL     1      13.879  -6.931   3.412 +0.00 +0.00    +0.149 HD 
DOCKED: BRANCH  50  52
DOCKED: ATOM     52  C33 UNL     1      12.987  -7.407   5.270 +0.00 +0.00    +0.139 C  
DOCKED: BRANCH  52  53
DOCKED: ATOM     53  C34 UNL     1      11.509  -7.705   5.259 +0.00 -0.00    -0.030 A  
DOCKED: ATOM     54  C35 UNL     1      10.587  -6.666   5.074 +0.00 +0.00    +0.006 A  
DOCKED: ATOM     55  C36 UNL     1       9.215  -6.922   5.113 +0.00 +0.00    +0.015 A  
DOCKED: ATOM     56  C37 UNL     1       8.745  -8.218   5.356 +0.00 +0.00    +0.059 A  
DOCKED: ATOM     57  C39 UNL     1       9.659  -9.262   5.539 +0.00 +0.00    +0.015 A  
DOCKED: ATOM     58  C40 UNL     1      11.034  -9.007   5.492 +0.00 +0.00    +0.006 A  
DOCKED: BRANCH  56  59
DOCKED: ATOM     59  C38 UNL     1       7.278  -8.431   5.401 +0.00 +0.00    +0.337 C  
DOCKED: ATOM     60  O8  UNL     1       6.523  -7.990   6.247 +0.00 -0.00    -0.245 OA 
DOCKED: BRANCH  59  61
DOCKED: ATOM     61  O9  UNL     1       6.829  -9.193   4.389 +0.00 -0.00    -0.477 OA 
DOCKED: ATOM     62  H54 UNL     1       6.995  -8.639   3.595 +0.00 +0.00    +0.295 HD 
DOCKED: ENDBRANCH  59  61
DOCKED: ENDBRANCH  56  59
DOCKED: ENDBRANCH  52  53
DOCKED: ENDBRANCH  50  52
DOCKED: ENDBRANCH  47  48
DOCKED: BRANCH  47  63
DOCKED: ATOM     63  C41 UNL     1      14.002  -2.871   3.414 +0.00 +0.00    +0.012 C  
DOCKED: ATOM     64  C42 UNL     1      14.944  -2.728   4.615 +0.00 +0.00    +0.009 C  
DOCKED: ATOM     65  C43 UNL     1      14.542  -2.066   2.224 +0.00 +0.00    +0.009 C  
DOCKED: ENDBRANCH  47  63
DOCKED: ENDBRANCH  45  47
DOCKED: ENDBRANCH  42  43
DOCKED: ENDBRANCH  39  42
DOCKED: ENDBRANCH   1  39
DOCKED: TORSDOF 25
DOCKED: TER
DOCKED: ENDMDL
________________________________________________________________________________


    FINAL DOCKED STATE:
    ________________________


Run:   8 / 20
Time taken for this run:   3.634s

DOCKED: MODEL        8
DOCKED: USER    Run = 8
DOCKED: USER
DOCKED: USER    Estimated Free Energy of Binding    =  +7.46 kcal/mol  [=(1)+(2)+(3)-(4)]
DOCKED: USER
DOCKED: USER    (1) Final Intermolecular Energy     =  +0.00 kcal/mol
DOCKED: USER        vdW + Hbond + desolv Energy     =  +0.00 kcal/mol
DOCKED: USER        Electrostatic Energy            =  +0.00 kcal/mol
DOCKED: USER        Moving Ligand-Fixed Receptor    =  +0.00 kcal/mol
DOCKED: USER        Moving Ligand-Moving Receptor   =  +0.00 kcal/mol
DOCKED: USER    (2) Final Total Internal Energy     = -18.14 kcal/mol
DOCKED: USER    (3) Torsional Free Energy           =  +7.46 kcal/mol
DOCKED: USER    (4) Unbound System's Energy         = -18.14 kcal/mol
DOCKED: USER
DOCKED: USER
DOCKED: REMARK  Name = ligands/ligand_17.pdb
DOCKED: REMARK  30 active torsions:
DOCKED: REMARK  status: ('A' for Active; 'I' for Inactive)
DOCKED: REMARK    1  A    between atoms: C1_1  and  C2_2
DOCKED: REMARK    2  A    between atoms: N1_4  and  C3_5
DOCKED: REMARK    3  A    between atoms: C3_5  and  C4_6
DOCKED: REMARK    4  A    between atoms: C3_5  and  C8_10
DOCKED: REMARK    5  A    between atoms: C4_6  and  C5_7
DOCKED: REMARK    6  A    between atoms: C5_7  and  C6_8
DOCKED: REMARK    7  A    between atoms: C5_7  and  C7_9
DOCKED: REMARK    8  A    between atoms: N2_12  and  C9_13
DOCKED: REMARK    9  A    between atoms: C9_13  and  C10_14
DOCKED: REMARK   10  A    between atoms: C9_13  and  C17_21
DOCKED: REMARK   11  A    between atoms: C10_14  and  C11_15
DOCKED: REMARK   12  A    between atoms: C17_21  and  O3_22
DOCKED: REMARK   13  A    between atoms: C17_21  and  C18_23
DOCKED: REMARK   14  A    between atoms: C18_23  and  C19_24
DOCKED: REMARK   15  A    between atoms: N3_26  and  C20_27
DOCKED: REMARK   16  A    between atoms: C20_27  and  C21_28
DOCKED: REMARK   17  A    between atoms: C20_27  and  C28_35
DOCKED: REMARK   18  A    between atoms: C21_28  and  C22_29
DOCKED: REMARK   19  A    between atoms: C28_35  and  O5_36
DOCKED: REMARK   20  A    between atoms: C28_35  and  C29_37
DOCKED: REMARK   21  A    between atoms: C29_37  and  C30_38
DOCKED: REMARK   22  A    between atoms: N4_40  and  C31_41
DOCKED: REMARK   23  A    between atoms: C31_41  and  C32_42
DOCKED: REMARK   24  A    between atoms: C31_41  and  C41_55
DOCKED: REMARK   25  A    between atoms: N5_44  and  C33_45
DOCKED: REMARK   26  A    between atoms: C33_45  and  C34_46
DOCKED: REMARK   27  A    between atoms: C37_49  and  C38_50
DOCKED: REMARK   28  A    between atoms: C38_50  and  O9_52
DOCKED: REMARK   29  A    between atoms: C41_55  and  C42_56
DOCKED: REMARK   30  A    between atoms: C41_55  and  C43_57
DOCKED: REMARK                            x       y       z     vdW  Elec       q    Type
DOCKED: REMARK                         _______ _______ _______ _____ _____    ______ ____
DOCKED: USER                              x       y       z     vdW  Elec       q    Type
DOCKED: USER                           _______ _______ _______ _____ _____    ______ ____
DOCKED: ROOT
DOCKED: ATOM      1  C20 UNL     1      12.738  -8.324  -1.803 +0.00 +0.00    +0.102 C  
DOCKED: ENDROOT
DOCKED: BRANCH   1   4
DOCKED: ATOM      2  C19 UNL     1      14.477  -8.316   0.030 +0.00 +0.00    +0.216 C  
DOCKED: ATOM      3  O4  UNL     1      13.977  -9.173   0.748 +0.00 -0.00    -0.276 OA 
DOCKED: ATOM      4  N3  UNL     1      14.061  -8.010  -1.258 +0.00 -0.00    -0.310 N  
DOCKED: ATOM      5  H28 UNL     1      14.425  -7.125  -1.602 +0.00 +0.00    +0.149 HD 
DOCKED: BRANCH   2   6
DOCKED: ATOM      6  C18 UNL     1      15.699  -7.529   0.452 +0.00 +0.00    +0.129 C  
DOCKED: BRANCH   6   7
DOCKED: ATOM      7  C17 UNL     1      16.105  -6.466  -0.561 +0.00 +0.00    +0.144 C  
DOCKED: BRANCH   7   8
DOCKED: ATOM      8  O3  UNL     1      14.940  -5.643  -0.789 +0.00 -0.00    -0.389 OA 
DOCKED: ATOM      9  H25 UNL     1      14.710  -5.742  -1.732 +0.00 +0.00    +0.210 HD 
DOCKED: ENDBRANCH   7   8
DOCKED: BRANCH   7  10
DOCKED: ATOM     10  C9  UNL     1      16.632  -6.923  -1.949 +0.00 +0.00    +0.106 C  
DOCKED: BRANCH  10  13
DOCKED: ATOM     11  C8  UNL     1      15.312  -6.323  -3.960 +0.00 +0.00    +0.234 C  
DOCKED: ATOM     12  O2  UNL     1      14.558  -7.288  -3.824 +0.00 -0.00    -0.274 OA 
DOCKED: ATOM     13  N2  UNL     1      16.295  -6.013  -3.043 +0.00 -0.00    -0.308 N  
DOCKED: ATOM     14  H15 UNL     1      16.387  -5.021  -2.817 +0.00 +0.00    +0.149 HD 
DOCKED: BRANCH  11  15
DOCKED: ATOM     15  C3  UNL     1      15.325  -5.484  -5.264 +0.00 +0.00    +0.159 C  
DOCKED: BRANCH  15  19
DOCKED: ATOM     16  C1  UNL     1      12.816  -2.839  -4.193 +0.00 +0.00    +0.109 C  
DOCKED: ATOM     17  C2  UNL     1      13.894  -3.876  -4.026 +0.00 +0.00    +0.211 C  
DOCKED: ATOM     18  O1  UNL     1      14.410  -4.109  -2.937 +0.00 -0.00    -0.276 OA 
DOCKED: ATOM     19  N1  UNL     1      14.234  -4.516  -5.190 +0.00 -0.00    -0.304 N  
DOCKED: ATOM     20  H4  UNL     1      13.961  -4.100  -6.077 +0.00 +0.00    +0.149 HD 
DOCKED: ENDBRANCH  15  19
DOCKED: BRANCH  15  21
DOCKED: ATOM     21  C4  UNL     1      16.667  -4.860  -5.670 +0.00 +0.00    +0.034 C  
DOCKED: BRANCH  21  22
DOCKED: ATOM     22  C5  UNL     1      17.651  -5.745  -6.461 +0.00 -0.00    -0.015 C  
DOCKED: ATOM     23  C6  UNL     1      17.057  -7.091  -6.871 +0.00 +0.00    +0.007 C  
DOCKED: ATOM     24  C7  UNL     1      18.886  -5.999  -5.590 +0.00 +0.00    +0.007 C  
DOCKED: ENDBRANCH  21  22
DOCKED: ENDBRANCH  15  21
DOCKED: ENDBRANCH  11  15
DOCKED: ENDBRANCH  10  13
DOCKED: BRANCH  10  25
DOCKED: ATOM     25  C10 UNL     1      18.100  -7.423  -2.003 +0.00 +0.00    +0.060 C  
DOCKED: BRANCH  25  26
DOCKED: ATOM     26  C11 UNL     1      18.429  -8.665  -2.801 +0.00 -0.00    -0.046 A  
DOCKED: ATOM     27  C12 UNL     1      17.955  -8.831  -4.111 +0.00 +0.00    +0.004 A  
DOCKED: ATOM     28  C13 UNL     1      18.246  -9.990  -4.831 +0.00 +0.00    +0.000 A  
DOCKED: ATOM     29  C14 UNL     1      18.993 -11.009  -4.247 +0.00 +0.00    +0.000 A  
DOCKED: ATOM     30  C15 UNL     1      19.444 -10.873  -2.939 +0.00 +0.00    +0.000 A  
DOCKED: ATOM     31  C16 UNL     1      19.156  -9.713  -2.218 +0.00 +0.00    +0.004 A  
DOCKED: ENDBRANCH  25  26
DOCKED: ENDBRANCH  10  25
DOCKED: ENDBRANCH   7  10
DOCKED: ENDBRANCH   6   7
DOCKED: ENDBRANCH   2   6
DOCKED: ENDBRANCH   1   4
DOCKED: BRANCH   1  32
DOCKED: ATOM     32  C21 UNL     1      11.923  -9.365  -1.002 +0.00 +0.00    +0.028 C  
DOCKED: BRANCH  32  33
DOCKED: ATOM     33  C22 UNL     1      11.807 -10.803  -1.551 +0.00 -0.00    -0.009 C  
DOCKED: ATOM     34  C23 UNL     1      11.600 -11.855  -0.451 +0.00 +0.00    +0.003 C  
DOCKED: ATOM     35  C24 UNL     1      11.673 -13.268  -1.029 +0.00 +0.00    +0.000 C  
DOCKED: ATOM     36  C25 UNL     1      10.679 -13.465  -2.168 +0.00 +0.00    +0.000 C  
DOCKED: ATOM     37  C26 UNL     1      10.815 -12.391  -3.241 +0.00 +0.00    +0.000 C  
DOCKED: ATOM     38  C27 UNL     1      10.757 -10.980  -2.654 +0.00 +0.00    +0.003 C  
DOCKED: ENDBRANCH  32  33
DOCKED: ENDBRANCH   1  32
DOCKED: BRANCH   1  39
DOCKED: ATOM     39  C28 UNL     1      11.887  -7.031  -2.057 +0.00 +0.00    +0.143 C  
DOCKED: BRANCH  39  40
DOCKED: ATOM     40  O5  UNL     1      12.665  -5.934  -2.520 +0.00 -0.00    -0.389 OA 
DOCKED: ATOM     41  H44 UNL     1      13.615  -6.139  -2.403 +0.00 +0.00    +0.210 HD 
DOCKED: ENDBRANCH  39  40
DOCKED: BRANCH  39  42
DOCKED: ATOM     42  C29 UNL     1      10.656  -7.260  -2.947 +0.00 +0.00    +0.129 C  
DOCKED: BRANCH  42  43
DOCKED: ATOM     43  C30 UNL     1      10.930  -7.898  -4.297 +0.00 +0.00    +0.216 C  
DOCKED: ATOM     44  O6  UNL     1      10.322  -8.876  -4.725 +0.00 -0.00    -0.276 OA 
DOCKED: ATOM     45  N4  UNL     1      11.933  -7.273  -4.997 +0.00 -0.00    -0.304 N  
DOCKED: ATOM     46  H47 UNL     1      12.588  -6.680  -4.483 +0.00 +0.00    +0.149 HD 
DOCKED: BRANCH  45  47
DOCKED: ATOM     47  C31 UNL     1      12.425  -7.765  -6.283 +0.00 +0.00    +0.161 C  
DOCKED: BRANCH  47  48
DOCKED: ATOM     48  C32 UNL     1      13.414  -8.919  -5.993 +0.00 +0.00    +0.234 C  
DOCKED: ATOM     49  O7  UNL     1      14.631  -8.769  -6.110 +0.00 -0.00    -0.274 OA 
DOCKED: ATOM     50  N5  UNL     1      12.834 -10.102  -5.588 +0.00 -0.00    -0.310 N  
DOCKED: ATOM     51  H49 UNL     1      11.826 -10.188  -5.569 +0.00 +0.00    +0.149 HD 
DOCKED: BRANCH  50  52
DOCKED: ATOM     52  C33 UNL     1      13.614 -11.304  -5.395 +0.00 +0.00    +0.139 C  
DOCKED: BRANCH  52  53
DOCKED: ATOM     53  C34 UNL     1      14.245 -11.334  -4.026 +0.00 -0.00    -0.030 A  
DOCKED: ATOM     54  C35 UNL     1      14.950 -10.217  -3.555 +0.00 +0.00    +0.006 A  
DOCKED: ATOM     55  C36 UNL     1      15.582 -10.252  -2.310 +0.00 +0.00    +0.015 A  
DOCKED: ATOM     56  C37 UNL     1      15.534 -11.411  -1.526 +0.00 +0.00    +0.059 A  
DOCKED: ATOM     57  C39 UNL     1      14.830 -12.529  -1.988 +0.00 +0.00    +0.015 A  
DOCKED: ATOM     58  C40 UNL     1      14.190 -12.492  -3.231 +0.00 +0.00    +0.006 A  
DOCKED: BRANCH  56  59
DOCKED: ATOM     59  C38 UNL     1      16.235 -11.398  -0.219 +0.00 +0.00    +0.337 C  
DOCKED: ATOM     60  O8  UNL     1      17.433 -11.265  -0.058 +0.00 -0.00    -0.245 OA 
DOCKED: BRANCH  59  61
DOCKED: ATOM     61  O9  UNL     1      15.401 -11.560   0.823 +0.00 -0.00    -0.477 OA 
DOCKED: ATOM     62  H54 UNL     1      14.814 -10.774   0.770 +0.00 +0.00    +0.295 HD 
DOCKED: ENDBRANCH  59  61
DOCKED: ENDBRANCH  56  59
DOCKED: ENDBRANCH  52  53
DOCKED: ENDBRANCH  50  52
DOCKED: ENDBRANCH  47  48
DOCKED: BRANCH  47  63
DOCKED: ATOM     63  C41 UNL     1      13.059  -6.635  -7.128 +0.00 +0.00    +0.012 C  
DOCKED: ATOM     64  C42 UNL     1      13.648  -7.185  -8.433 +0.00 +0.00    +0.009 C  
DOCKED: ATOM     65  C43 UNL     1      12.074  -5.498  -7.435 +0.00 +0.00    +0.009 C  
DOCKED: ENDBRANCH  47  63
DOCKED: ENDBRANCH  45  47
DOCKED: ENDBRANCH  42  43
DOCKED: ENDBRANCH  39  42
DOCKED: ENDBRANCH   1  39
DOCKED: TORSDOF 25
DOCKED: TER
DOCKED: ENDMDL
________________________________________________________________________________


    FINAL DOCKED STATE:
    ________________________


Run:   9 / 20
Time taken for this run:   3.634s

DOCKED: MODEL        9
DOCKED: USER    Run = 9
DOCKED: USER
DOCKED: USER    Estimated Free Energy of Binding    =  +7.46 kcal/mol  [=(1)+(2)+(3)-(4)]
DOCKED: USER
DOCKED: USER    (1) Final Intermolecular Energy     =  +0.00 kcal/mol
DOCKED: USER        vdW + Hbond + desolv Energy     =  +0.00 kcal/mol
DOCKED: USER        Electrostatic Energy            =  +0.00 kcal/mol
DOCKED: USER        Moving Ligand-Fixed Receptor    =  +0.00 kcal/mol
DOCKED: USER        Moving Ligand-Moving Receptor   =  +0.00 kcal/mol
DOCKED: USER    (2) Final Total Internal Energy     = -18.02 kcal/mol
DOCKED: USER    (3) Torsional Free Energy           =  +7.46 kcal/mol
DOCKED: USER    (4) Unbound System's Energy         = -18.02 kcal/mol
DOCKED: USER
DOCKED: USER
DOCKED: REMARK  Name = ligands/ligand_17.pdb
DOCKED: REMARK  30 active torsions:
DOCKED: REMARK  status: ('A' for Active; 'I' for Inactive)
DOCKED: REMARK    1  A    between atoms: C1_1  and  C2_2
DOCKED: REMARK    2  A    between atoms: N1_4  and  C3_5
DOCKED: REMARK    3  A    between atoms: C3_5  and  C4_6
DOCKED: REMARK    4  A    between atoms: C3_5  and  C8_10
DOCKED: REMARK    5  A    between atoms: C4_6  and  C5_7
DOCKED: REMARK    6  A    between atoms: C5_7  and  C6_8
DOCKED: REMARK    7  A    between atoms: C5_7  and  C7_9
DOCKED: REMARK    8  A    between atoms: N2_12  and  C9_13
DOCKED: REMARK    9  A    between atoms: C9_13  and  C10_14
DOCKED: REMARK   10  A    between atoms: C9_13  and  C17_21
DOCKED: REMARK   11  A    between atoms: C10_14  and  C11_15
DOCKED: REMARK   12  A    between atoms: C17_21  and  O3_22
DOCKED: REMARK   13  A    between atoms: C17_21  and  C18_23
DOCKED: REMARK   14  A    between atoms: C18_23  and  C19_24
DOCKED: REMARK   15  A    between atoms: N3_26  and  C20_27
DOCKED: REMARK   16  A    between atoms: C20_27  and  C21_28
DOCKED: REMARK   17  A    between atoms: C20_27  and  C28_35
DOCKED: REMARK   18  A    between atoms: C21_28  and  C22_29
DOCKED: REMARK   19  A    between atoms: C28_35  and  O5_36
DOCKED: REMARK   20  A    between atoms: C28_35  and  C29_37
DOCKED: REMARK   21  A    between atoms: C29_37  and  C30_38
DOCKED: REMARK   22  A    between atoms: N4_40  and  C31_41
DOCKED: REMARK   23  A    between atoms: C31_41  and  C32_42
DOCKED: REMARK   24  A    between atoms: C31_41  and  C41_55
DOCKED: REMARK   25  A    between atoms: N5_44  and  C33_45
DOCKED: REMARK   26  A    between atoms: C33_45  and  C34_46
DOCKED: REMARK   27  A    between atoms: C37_49  and  C38_50
DOCKED: REMARK   28  A    between atoms: C38_50  and  O9_52
DOCKED: REMARK   29  A    between atoms: C41_55  and  C42_56
DOCKED: REMARK   30  A    between atoms: C41_55  and  C43_57
DOCKED: REMARK                            x       y       z     vdW  Elec       q    Type
DOCKED: REMARK                         _______ _______ _______ _____ _____    ______ ____
DOCKED: USER                              x       y       z     vdW  Elec       q    Type
DOCKED: USER                           _______ _______ _______ _____ _____    ______ ____
DOCKED: ROOT
DOCKED: ATOM      1  C20 UNL     1      10.025  -3.940  -0.716 +0.00 +0.00    +0.102 C  
DOCKED: ENDROOT
DOCKED: BRANCH   1   4
DOCKED: ATOM      2  C19 UNL     1      11.527  -4.084  -2.743 +0.00 +0.00    +0.216 C  
DOCKED: ATOM      3  O4  UNL     1      10.950  -3.266  -3.447 +0.00 -0.00    -0.276 OA 
DOCKED: ATOM      4  N3  UNL     1      11.270  -4.305  -1.398 +0.00 -0.00    -0.310 N  
DOCKED: ATOM      5  H28 UNL     1      11.668  -5.173  -1.046 +0.00 +0.00    +0.149 HD 
DOCKED: BRANCH   2   6
DOCKED: ATOM      6  C18 UNL     1      12.684  -4.912  -3.260 +0.00 +0.00    +0.129 C  
DOCKED: BRANCH   6   7
DOCKED: ATOM      7  C17 UNL     1      13.155  -5.968  -2.268 +0.00 +0.00    +0.144 C  
DOCKED: BRANCH   7   8
DOCKED: ATOM      8  O3  UNL     1      11.978  -6.686  -1.835 +0.00 -0.00    -0.389 OA 
DOCKED: ATOM      9  H25 UNL     1      11.899  -6.535  -0.875 +0.00 +0.00    +0.210 HD 
DOCKED: ENDBRANCH   7   8
DOCKED: BRANCH   7  10
DOCKED: ATOM     10  C9  UNL     1      13.915  -5.506  -0.994 +0.00 +0.00    +0.106 C  
DOCKED: BRANCH  10  13
DOCKED: ATOM     11  C8  UNL     1      12.931  -6.386   1.105 +0.00 +0.00    +0.234 C  
DOCKED: ATOM     12  O2  UNL     1      11.975  -5.609   1.051 +0.00 -0.00    -0.274 OA 
DOCKED: ATOM     13  N2  UNL     1      13.877  -6.470   0.105 +0.00 -0.00    -0.308 N  
DOCKED: ATOM     14  H15 UNL     1      14.163  -7.418  -0.149 +0.00 +0.00    +0.149 HD 
DOCKED: BRANCH  11  15
DOCKED: ATOM     15  C3  UNL     1      13.236  -7.204   2.386 +0.00 +0.00    +0.159 C  
DOCKED: BRANCH  15  19
DOCKED: ATOM     16  C1  UNL     1      11.262 -10.289   1.369 +0.00 +0.00    +0.109 C  
DOCKED: ATOM     17  C2  UNL     1      11.536  -8.823   1.574 +0.00 +0.00    +0.211 C  
DOCKED: ATOM     18  O1  UNL     1      10.744  -7.956   1.215 +0.00 -0.00    -0.276 OA 
DOCKED: ATOM     19  N1  UNL     1      12.735  -8.562   2.185 +0.00 -0.00    -0.304 N  
DOCKED: ATOM     20  H4  UNL     1      13.440  -9.294   2.216 +0.00 +0.00    +0.149 HD 
DOCKED: ENDBRANCH  15  19
DOCKED: BRANCH  15  21
DOCKED: ATOM     21  C4  UNL     1      14.678  -7.158   2.907 +0.00 +0.00    +0.034 C  
DOCKED: BRANCH  21  22
DOCKED: ATOM     22  C5  UNL     1      15.266  -5.774   3.246 +0.00 -0.00    -0.015 C  
DOCKED: ATOM     23  C6  UNL     1      16.785  -5.709   3.097 +0.00 +0.00    +0.007 C  
DOCKED: ATOM     24  C7  UNL     1      14.901  -5.431   4.695 +0.00 +0.00    +0.007 C  
DOCKED: ENDBRANCH  21  22
DOCKED: ENDBRANCH  15  21
DOCKED: ENDBRANCH  11  15
DOCKED: ENDBRANCH  10  13
DOCKED: BRANCH  10  25
DOCKED: ATOM     25  C10 UNL     1      15.320  -4.885  -1.211 +0.00 +0.00    +0.060 C  
DOCKED: BRANCH  25  26
DOCKED: ATOM     26  C11 UNL     1      15.680  -3.602  -0.496 +0.00 -0.00    -0.046 A  
DOCKED: ATOM     27  C12 UNL     1      15.524  -3.479   0.893 +0.00 +0.00    +0.004 A  
DOCKED: ATOM     28  C13 UNL     1      15.839  -2.285   1.542 +0.00 +0.00    +0.000 A  
DOCKED: ATOM     29  C14 UNL     1      16.291  -1.189   0.811 +0.00 +0.00    +0.000 A  
DOCKED: ATOM     30  C15 UNL     1      16.421  -1.285  -0.570 +0.00 +0.00    +0.000 A  
DOCKED: ATOM     31  C16 UNL     1      16.109  -2.480  -1.219 +0.00 +0.00    +0.004 A  
DOCKED: ENDBRANCH  25  26
DOCKED: ENDBRANCH  10  25
DOCKED: ENDBRANCH   7  10
DOCKED: ENDBRANCH   6   7
DOCKED: ENDBRANCH   2   6
DOCKED: ENDBRANCH   1   4
DOCKED: BRANCH   1  32
DOCKED: ATOM     32  C21 UNL     1       9.275  -2.729  -1.315 +0.00 +0.00    +0.028 C  
DOCKED: BRANCH  32  33
DOCKED: ATOM     33  C22 UNL     1       9.280  -1.392  -0.543 +0.00 -0.00    -0.009 C  
DOCKED: ATOM     34  C23 UNL     1       9.056  -0.171  -1.447 +0.00 +0.00    +0.003 C  
DOCKED: ATOM     35  C24 UNL     1       9.249   1.128  -0.665 +0.00 +0.00    +0.000 C  
DOCKED: ATOM     36  C25 UNL     1       8.351   1.185   0.566 +0.00 +0.00    +0.000 C  
DOCKED: ATOM     37  C26 UNL     1       8.502  -0.050   1.445 +0.00 +0.00    +0.000 C  
DOCKED: ATOM     38  C27 UNL     1       8.322  -1.346   0.653 +0.00 +0.00    +0.003 C  
DOCKED: ENDBRANCH  32  33
DOCKED: ENDBRANCH   1  32
DOCKED: BRANCH   1  39
DOCKED: ATOM     39  C28 UNL     1       9.061  -5.167  -0.560 +0.00 +0.00    +0.143 C  
DOCKED: BRANCH  39  40
DOCKED: ATOM     40  O5  UNL     1       9.751  -6.394  -0.351 +0.00 -0.00    -0.389 OA 
DOCKED: ATOM     41  H44 UNL     1      10.684  -6.207  -0.123 +0.00 +0.00    +0.210 HD 
DOCKED: ENDBRANCH  39  40
DOCKED: BRANCH  39  42
DOCKED: ATOM     42  C29 UNL     1       7.955  -4.962   0.486 +0.00 +0.00    +0.129 C  
DOCKED: BRANCH  42  43
DOCKED: ATOM     43  C30 UNL     1       8.430  -4.625   1.887 +0.00 +0.00    +0.216 C  
DOCKED: ATOM     44  O6  UNL     1       7.981  -3.695   2.555 +0.00 -0.00    -0.276 OA 
DOCKED: ATOM     45  N4  UNL     1       9.418  -5.464   2.340 +0.00 -0.00    -0.304 N  
DOCKED: ATOM     46  H47 UNL     1       9.948  -6.005   1.654 +0.00 +0.00    +0.149 HD 
DOCKED: BRANCH  45  47
DOCKED: ATOM     47  C31 UNL     1      10.086  -5.278   3.628 +0.00 +0.00    +0.161 C  
DOCKED: BRANCH  47  48
DOCKED: ATOM     48  C32 UNL     1      11.143  -4.163   3.448 +0.00 +0.00    +0.234 C  
DOCKED: ATOM     49  O7  UNL     1      12.345  -4.423   3.366 +0.00 -0.00    -0.274 OA 
DOCKED: ATOM     50  N5  UNL     1      10.640  -2.882   3.374 +0.00 -0.00    -0.310 N  
DOCKED: ATOM     51  H49 UNL     1       9.650  -2.721   3.509 +0.00 +0.00    +0.149 HD 
DOCKED: BRANCH  50  52
DOCKED: ATOM     52  C33 UNL     1      11.508  -1.726   3.326 +0.00 +0.00    +0.139 C  
DOCKED: BRANCH  52  53
DOCKED: ATOM     53  C34 UNL     1      11.910  -1.401   1.909 +0.00 -0.00    -0.030 A  
DOCKED: ATOM     54  C35 UNL     1      12.328  -2.424   1.048 +0.00 +0.00    +0.006 A  
DOCKED: ATOM     55  C36 UNL     1      12.751  -2.129  -0.250 +0.00 +0.00    +0.015 A  
DOCKED: ATOM     56  C37 UNL     1      12.779  -0.803  -0.698 +0.00 +0.00    +0.059 A  
DOCKED: ATOM     57  C39 UNL     1      12.361   0.225   0.155 +0.00 +0.00    +0.015 A  
DOCKED: ATOM     58  C40 UNL     1      11.929  -0.072   1.452 +0.00 +0.00    +0.006 A  
DOCKED: BRANCH  56  59
DOCKED: ATOM     59  C38 UNL     1      13.252  -0.544  -2.080 +0.00 +0.00    +0.337 C  
DOCKED: ATOM     60  O8  UNL     1      13.545   0.544  -2.538 +0.00 -0.00    -0.245 OA 
DOCKED: BRANCH  59  61
DOCKED: ATOM     61  O9  UNL     1      13.327  -1.662  -2.824 +0.00 -0.00    -0.477 OA 
DOCKED: ATOM     62  H54 UNL     1      12.419  -1.758  -3.185 +0.00 +0.00    +0.295 HD 
DOCKED: ENDBRANCH  59  61
DOCKED: ENDBRANCH  56  59
DOCKED: ENDBRANCH  52  53
DOCKED: ENDBRANCH  50  52
DOCKED: ENDBRANCH  47  48
DOCKED: BRANCH  47  63
DOCKED: ATOM     63  C41 UNL     1      10.695  -6.598   4.158 +0.00 +0.00    +0.012 C  
DOCKED: ATOM     64  C42 UNL     1      11.422  -6.375   5.489 +0.00 +0.00    +0.009 C  
DOCKED: ATOM     65  C43 UNL     1       9.652  -7.714   4.310 +0.00 +0.00    +0.009 C  
DOCKED: ENDBRANCH  47  63
DOCKED: ENDBRANCH  45  47
DOCKED: ENDBRANCH  42  43
DOCKED: ENDBRANCH  39  42
DOCKED: ENDBRANCH   1  39
DOCKED: TORSDOF 25
DOCKED: TER
DOCKED: ENDMDL
________________________________________________________________________________


    FINAL DOCKED STATE:
    ________________________


Run:   10 / 20
Time taken for this run:   3.634s

DOCKED: MODEL        10
DOCKED: USER    Run = 10
DOCKED: USER
DOCKED: USER    Estimated Free Energy of Binding    =  +7.46 kcal/mol  [=(1)+(2)+(3)-(4)]
DOCKED: USER
DOCKED: USER    (1) Final Intermolecular Energy     =  +0.00 kcal/mol
DOCKED: USER        vdW + Hbond + desolv Energy     =  +0.00 kcal/mol
DOCKED: USER        Electrostatic Energy            =  +0.00 kcal/mol
DOCKED: USER        Moving Ligand-Fixed Receptor    =  +0.00 kcal/mol
DOCKED: USER        Moving Ligand-Moving Receptor   =  +0.00 kcal/mol
DOCKED: USER    (2) Final Total Internal Energy     = -17.71 kcal/mol
DOCKED: USER    (3) Torsional Free Energy           =  +7.46 kcal/mol
DOCKED: USER    (4) Unbound System's Energy         = -17.71 kcal/mol
DOCKED: USER
DOCKED: USER
DOCKED: REMARK  Name = ligands/ligand_17.pdb
DOCKED: REMARK  30 active torsions:
DOCKED: REMARK  status: ('A' for Active; 'I' for Inactive)
DOCKED: REMARK    1  A    between atoms: C1_1  and  C2_2
DOCKED: REMARK    2  A    between atoms: N1_4  and  C3_5
DOCKED: REMARK    3  A    between atoms: C3_5  and  C4_6
DOCKED: REMARK    4  A    between atoms: C3_5  and  C8_10
DOCKED: REMARK    5  A    between atoms: C4_6  and  C5_7
DOCKED: REMARK    6  A    between atoms: C5_7  and  C6_8
DOCKED: REMARK    7  A    between atoms: C5_7  and  C7_9
DOCKED: REMARK    8  A    between atoms: N2_12  and  C9_13
DOCKED: REMARK    9  A    between atoms: C9_13  and  C10_14
DOCKED: REMARK   10  A    between atoms: C9_13  and  C17_21
DOCKED: REMARK   11  A    between atoms: C10_14  and  C11_15
DOCKED: REMARK   12  A    between atoms: C17_21  and  O3_22
DOCKED: REMARK   13  A    between atoms: C17_21  and  C18_23
DOCKED: REMARK   14  A    between atoms: C18_23  and  C19_24
DOCKED: REMARK   15  A    between atoms: N3_26  and  C20_27
DOCKED: REMARK   16  A    between atoms: C20_27  and  C21_28
DOCKED: REMARK   17  A    between atoms: C20_27  and  C28_35
DOCKED: REMARK   18  A    between atoms: C21_28  and  C22_29
DOCKED: REMARK   19  A    between atoms: C28_35  and  O5_36
DOCKED: REMARK   20  A    between atoms: C28_35  and  C29_37
DOCKED: REMARK   21  A    between atoms: C29_37  and  C30_38
DOCKED: REMARK   22  A    between atoms: N4_40  and  C31_41
DOCKED: REMARK   23  A    between atoms: C31_41  and  C32_42
DOCKED: REMARK   24  A    between atoms: C31_41  and  C41_55
DOCKED: REMARK   25  A    between atoms: N5_44  and  C33_45
DOCKED: REMARK   26  A    between atoms: C33_45  and  C34_46
DOCKED: REMARK   27  A    between atoms: C37_49  and  C38_50
DOCKED: REMARK   28  A    between atoms: C38_50  and  O9_52
DOCKED: REMARK   29  A    between atoms: C41_55  and  C42_56
DOCKED: REMARK   30  A    between atoms: C41_55  and  C43_57
DOCKED: REMARK                            x       y       z     vdW  Elec       q    Type
DOCKED: REMARK                         _______ _______ _______ _____ _____    ______ ____
DOCKED: USER                              x       y       z     vdW  Elec       q    Type
DOCKED: USER                           _______ _______ _______ _____ _____    ______ ____
DOCKED: ROOT
DOCKED: ATOM      1  C20 UNL     1      11.604  -4.650   5.149 +0.00 +0.00    +0.102 C  
DOCKED: ENDROOT
DOCKED: BRANCH   1   4
DOCKED: ATOM      2  C19 UNL     1      13.824  -5.763   4.685 +0.00 +0.00    +0.216 C  
DOCKED: ATOM      3  O4  UNL     1      14.445  -5.320   5.643 +0.00 -0.00    -0.276 OA 
DOCKED: ATOM      4  N3  UNL     1      12.454  -5.651   4.499 +0.00 -0.00    -0.310 N  
DOCKED: ATOM      5  H28 UNL     1      12.155  -5.859   3.549 +0.00 +0.00    +0.149 HD 
DOCKED: BRANCH   2   6
DOCKED: ATOM      6  C18 UNL     1      14.495  -6.585   3.605 +0.00 +0.00    +0.129 C  
DOCKED: BRANCH   6   7
DOCKED: ATOM      7  C17 UNL     1      14.179  -6.095   2.197 +0.00 +0.00    +0.144 C  
DOCKED: BRANCH   7   8
DOCKED: ATOM      8  O3  UNL     1      13.402  -4.886   2.343 +0.00 -0.00    -0.389 OA 
DOCKED: ATOM      9  H25 UNL     1      12.505  -5.093   2.021 +0.00 +0.00    +0.210 HD 
DOCKED: ENDBRANCH   7   8
DOCKED: BRANCH   7  10
DOCKED: ATOM     10  C9  UNL     1      13.400  -7.038   1.239 +0.00 +0.00    +0.106 C  
DOCKED: BRANCH  10  13
DOCKED: ATOM     11  C8  UNL     1      11.510  -7.063  -0.365 +0.00 +0.00    +0.234 C  
DOCKED: ATOM     12  O2  UNL     1      11.392  -8.289  -0.297 +0.00 -0.00    -0.274 OA 
DOCKED: ATOM     13  N2  UNL     1      12.401  -6.358   0.416 +0.00 -0.00    -0.308 N  
DOCKED: ATOM     14  H15 UNL     1      12.042  -5.487   0.813 +0.00 +0.00    +0.149 HD 
DOCKED: BRANCH  11  15
DOCKED: ATOM     15  C3  UNL     1      10.787  -6.243  -1.464 +0.00 +0.00    +0.159 C  
DOCKED: BRANCH  15  19
DOCKED: ATOM     16  C1  UNL     1       9.035  -3.494   0.489 +0.00 +0.00    +0.109 C  
DOCKED: ATOM     17  C2  UNL     1      10.187  -4.334   0.008 +0.00 +0.00    +0.211 C  
DOCKED: ATOM     18  O1  UNL     1      11.347  -4.094   0.328 +0.00 -0.00    -0.276 OA 
DOCKED: ATOM     19  N1  UNL     1       9.815  -5.370  -0.810 +0.00 -0.00    -0.304 N  
DOCKED: ATOM     20  H4  UNL     1       8.891  -5.353  -1.235 +0.00 +0.00    +0.149 HD 
DOCKED: ENDBRANCH  15  19
DOCKED: BRANCH  15  21
DOCKED: ATOM     21  C4  UNL     1      11.677  -5.512  -2.478 +0.00 +0.00    +0.034 C  
DOCKED: BRANCH  21  22
DOCKED: ATOM     22  C5  UNL     1      12.724  -6.350  -3.237 +0.00 -0.00    -0.015 C  
DOCKED: ATOM     23  C6  UNL     1      12.321  -7.814  -3.403 +0.00 +0.00    +0.007 C  
DOCKED: ATOM     24  C7  UNL     1      14.047  -6.291  -2.466 +0.00 +0.00    +0.007 C  
DOCKED: ENDBRANCH  21  22
DOCKED: ENDBRANCH  15  21
DOCKED: ENDBRANCH  11  15
DOCKED: ENDBRANCH  10  13
DOCKED: BRANCH  10  25
DOCKED: ATOM     25  C10 UNL     1      14.243  -8.070   0.445 +0.00 +0.00    +0.060 C  
DOCKED: BRANCH  25  26
DOCKED: ATOM     26  C11 UNL     1      14.230  -9.521   0.872 +0.00 -0.00    -0.046 A  
DOCKED: ATOM     27  C12 UNL     1      13.375 -10.449   0.258 +0.00 +0.00    +0.004 A  
DOCKED: ATOM     28  C13 UNL     1      13.355 -11.781   0.674 +0.00 +0.00    +0.000 A  
DOCKED: ATOM     29  C14 UNL     1      14.169 -12.200   1.723 +0.00 +0.00    +0.000 A  
DOCKED: ATOM     30  C15 UNL     1      14.999 -11.285   2.361 +0.00 +0.00    +0.000 A  
DOCKED: ATOM     31  C16 UNL     1      15.022  -9.954   1.945 +0.00 +0.00    +0.004 A  
DOCKED: ENDBRANCH  25  26
DOCKED: ENDBRANCH  10  25
DOCKED: ENDBRANCH   7  10
DOCKED: ENDBRANCH   6   7
DOCKED: ENDBRANCH   2   6
DOCKED: ENDBRANCH   1   4
DOCKED: BRANCH   1  32
DOCKED: ATOM     32  C21 UNL     1      12.342  -3.663   6.082 +0.00 +0.00    +0.028 C  
DOCKED: BRANCH  32  33
DOCKED: ATOM     33  C22 UNL     1      12.203  -3.835   7.609 +0.00 -0.00    -0.009 C  
DOCKED: ATOM     34  C23 UNL     1      11.197  -4.925   8.006 +0.00 +0.00    +0.003 C  
DOCKED: ATOM     35  C24 UNL     1      10.966  -4.928   9.517 +0.00 +0.00    +0.000 C  
DOCKED: ATOM     36  C25 UNL     1      12.273  -5.083  10.288 +0.00 +0.00    +0.000 C  
DOCKED: ATOM     37  C26 UNL     1      13.315  -4.057   9.862 +0.00 +0.00    +0.000 C  
DOCKED: ATOM     38  C27 UNL     1      13.530  -4.048   8.348 +0.00 +0.00    +0.003 C  
DOCKED: ENDBRANCH  32  33
DOCKED: ENDBRANCH   1  32
DOCKED: BRANCH   1  39
DOCKED: ATOM     39  C28 UNL     1      10.715  -3.876   4.115 +0.00 +0.00    +0.143 C  
DOCKED: BRANCH  39  40
DOCKED: ATOM     40  O5  UNL     1      11.426  -3.495   2.943 +0.00 -0.00    -0.389 OA 
DOCKED: ATOM     41  H44 UNL     1      11.356  -4.207   2.275 +0.00 +0.00    +0.210 HD 
DOCKED: ENDBRANCH  39  40
DOCKED: BRANCH  39  42
DOCKED: ATOM     42  C29 UNL     1       9.401  -4.591   3.764 +0.00 +0.00    +0.129 C  
DOCKED: BRANCH  42  43
DOCKED: ATOM     43  C30 UNL     1       9.543  -5.873   2.965 +0.00 +0.00    +0.216 C  
DOCKED: ATOM     44  O6  UNL     1      10.536  -6.154   2.298 +0.00 -0.00    -0.276 OA 
DOCKED: ATOM     45  N4  UNL     1       8.446  -6.694   3.059 +0.00 -0.00    -0.304 N  
DOCKED: ATOM     46  H47 UNL     1       7.560  -6.287   3.366 +0.00 +0.00    +0.149 HD 
DOCKED: BRANCH  45  47
DOCKED: ATOM     47  C31 UNL     1       8.325  -7.942   2.308 +0.00 +0.00    +0.161 C  
DOCKED: BRANCH  47  48
DOCKED: ATOM     48  C32 UNL     1       9.330  -8.950   2.913 +0.00 +0.00    +0.234 C  
DOCKED: ATOM     49  O7  UNL     1       8.979  -9.792   3.741 +0.00 -0.00    -0.274 OA 
DOCKED: ATOM     50  N5  UNL     1      10.623  -8.841   2.448 +0.00 -0.00    -0.310 N  
DOCKED: ATOM     51  H49 UNL     1      10.870  -8.092   1.814 +0.00 +0.00    +0.149 HD 
DOCKED: BRANCH  50  52
DOCKED: ATOM     52  C33 UNL     1      11.700  -9.631   3.004 +0.00 +0.00    +0.139 C  
DOCKED: BRANCH  52  53
DOCKED: ATOM     53  C34 UNL     1      12.141  -9.090   4.341 +0.00 -0.00    -0.030 A  
DOCKED: ATOM     54  C35 UNL     1      13.430  -9.367   4.818 +0.00 +0.00    +0.006 A  
DOCKED: ATOM     55  C36 UNL     1      13.832  -8.915   6.076 +0.00 +0.00    +0.015 A  
DOCKED: ATOM     56  C37 UNL     1      12.945  -8.194   6.884 +0.00 +0.00    +0.059 A  
DOCKED: ATOM     57  C39 UNL     1      11.657  -7.910   6.414 +0.00 +0.00    +0.015 A  
DOCKED: ATOM     58  C40 UNL     1      11.257  -8.356   5.150 +0.00 +0.00    +0.006 A  
DOCKED: BRANCH  56  59
DOCKED: ATOM     59  C38 UNL     1      13.419  -7.750   8.218 +0.00 +0.00    +0.337 C  
DOCKED: ATOM     60  O8  UNL     1      12.903  -8.030   9.283 +0.00 -0.00    -0.245 OA 
DOCKED: BRANCH  59  61
DOCKED: ATOM     61  O9  UNL     1      14.513  -6.972   8.150 +0.00 -0.00    -0.477 OA 
DOCKED: ATOM     62  H54 UNL     1      14.355  -6.424   7.351 +0.00 +0.00    +0.295 HD 
DOCKED: ENDBRANCH  59  61
DOCKED: ENDBRANCH  56  59
DOCKED: ENDBRANCH  52  53
DOCKED: ENDBRANCH  50  52
DOCKED: ENDBRANCH  47  48
DOCKED: BRANCH  47  63
DOCKED: ATOM     63  C41 UNL     1       8.537  -7.725   0.791 +0.00 +0.00    +0.012 C  
DOCKED: ATOM     64  C42 UNL     1       8.627  -9.064   0.049 +0.00 +0.00    +0.009 C  
DOCKED: ATOM     65  C43 UNL     1       7.449  -6.846   0.158 +0.00 +0.00    +0.009 C  
DOCKED: ENDBRANCH  47  63
DOCKED: ENDBRANCH  45  47
DOCKED: ENDBRANCH  42  43
DOCKED: ENDBRANCH  39  42
DOCKED: ENDBRANCH   1  39
DOCKED: TORSDOF 25
DOCKED: TER
DOCKED: ENDMDL
________________________________________________________________________________


    FINAL DOCKED STATE:
    ________________________


Run:   11 / 20
Time taken for this run:   3.634s

DOCKED: MODEL        11
DOCKED: USER    Run = 11
DOCKED: USER
DOCKED: USER    Estimated Free Energy of Binding    =  +7.46 kcal/mol  [=(1)+(2)+(3)-(4)]
DOCKED: USER
DOCKED: USER    (1) Final Intermolecular Energy     =  +0.00 kcal/mol
DOCKED: USER        vdW + Hbond + desolv Energy     =  +0.00 kcal/mol
DOCKED: USER        Electrostatic Energy            =  +0.00 kcal/mol
DOCKED: USER        Moving Ligand-Fixed Receptor    =  +0.00 kcal/mol
DOCKED: USER        Moving Ligand-Moving Receptor   =  +0.00 kcal/mol
DOCKED: USER    (2) Final Total Internal Energy     = -18.14 kcal/mol
DOCKED: USER    (3) Torsional Free Energy           =  +7.46 kcal/mol
DOCKED: USER    (4) Unbound System's Energy         = -18.14 kcal/mol
DOCKED: USER
DOCKED: USER
DOCKED: REMARK  Name = ligands/ligand_17.pdb
DOCKED: REMARK  30 active torsions:
DOCKED: REMARK  status: ('A' for Active; 'I' for Inactive)
DOCKED: REMARK    1  A    between atoms: C1_1  and  C2_2
DOCKED: REMARK    2  A    between atoms: N1_4  and  C3_5
DOCKED: REMARK    3  A    between atoms: C3_5  and  C4_6
DOCKED: REMARK    4  A    between atoms: C3_5  and  C8_10
DOCKED: REMARK    5  A    between atoms: C4_6  and  C5_7
DOCKED: REMARK    6  A    between atoms: C5_7  and  C6_8
DOCKED: REMARK    7  A    between atoms: C5_7  and  C7_9
DOCKED: REMARK    8  A    between atoms: N2_12  and  C9_13
DOCKED: REMARK    9  A    between atoms: C9_13  and  C10_14
DOCKED: REMARK   10  A    between atoms: C9_13  and  C17_21
DOCKED: REMARK   11  A    between atoms: C10_14  and  C11_15
DOCKED: REMARK   12  A    between atoms: C17_21  and  O3_22
DOCKED: REMARK   13  A    between atoms: C17_21  and  C18_23
DOCKED: REMARK   14  A    between atoms: C18_23  and  C19_24
DOCKED: REMARK   15  A    between atoms: N3_26  and  C20_27
DOCKED: REMARK   16  A    between atoms: C20_27  and  C21_28
DOCKED: REMARK   17  A    between atoms: C20_27  and  C28_35
DOCKED: REMARK   18  A    between atoms: C21_28  and  C22_29
DOCKED: REMARK   19  A    between atoms: C28_35  and  O5_36
DOCKED: REMARK   20  A    between atoms: C28_35  and  C29_37
DOCKED: REMARK   21  A    between atoms: C29_37  and  C30_38
DOCKED: REMARK   22  A    between atoms: N4_40  and  C31_41
DOCKED: REMARK   23  A    between atoms: C31_41  and  C32_42
DOCKED: REMARK   24  A    between atoms: C31_41  and  C41_55
DOCKED: REMARK   25  A    between atoms: N5_44  and  C33_45
DOCKED: REMARK   26  A    between atoms: C33_45  and  C34_46
DOCKED: REMARK   27  A    between atoms: C37_49  and  C38_50
DOCKED: REMARK   28  A    between atoms: C38_50  and  O9_52
DOCKED: REMARK   29  A    between atoms: C41_55  and  C42_56
DOCKED: REMARK   30  A    between atoms: C41_55  and  C43_57
DOCKED: REMARK                            x       y       z     vdW  Elec       q    Type
DOCKED: REMARK                         _______ _______ _______ _____ _____    ______ ____
DOCKED: USER                              x       y       z     vdW  Elec       q    Type
DOCKED: USER                           _______ _______ _______ _____ _____    ______ ____
DOCKED: ROOT
DOCKED: ATOM      1  C20 UNL     1      16.683  -1.411   0.501 +0.00 +0.00    +0.102 C  
DOCKED: ENDROOT
DOCKED: BRANCH   1   4
DOCKED: ATOM      2  C19 UNL     1      17.478   0.982   0.342 +0.00 +0.00    +0.216 C  
DOCKED: ATOM      3  O4  UNL     1      18.574   0.769  -0.161 +0.00 -0.00    -0.276 OA 
DOCKED: ATOM      4  N3  UNL     1      16.472   0.039   0.498 +0.00 -0.00    -0.310 N  
DOCKED: ATOM      5  H28 UNL     1      15.741   0.328   1.143 +0.00 +0.00    +0.149 HD 
DOCKED: BRANCH   2   6
DOCKED: ATOM      6  C18 UNL     1      17.055   2.365   0.786 +0.00 +0.00    +0.129 C  
DOCKED: BRANCH   6   7
DOCKED: ATOM      7  C17 UNL     1      15.671   2.393   1.422 +0.00 +0.00    +0.144 C  
DOCKED: BRANCH   7   8
DOCKED: ATOM      8  O3  UNL     1      15.700   1.457   2.522 +0.00 -0.00    -0.389 OA 
DOCKED: ATOM      9  H25 UNL     1      15.055   0.758   2.309 +0.00 +0.00    +0.210 HD 
DOCKED: ENDBRANCH   7   8
DOCKED: BRANCH   7  10
DOCKED: ATOM     10  C9  UNL     1      14.440   2.039   0.542 +0.00 +0.00    +0.106 C  
DOCKED: BRANCH  10  13
DOCKED: ATOM     11  C8  UNL     1      13.113   0.024   1.110 +0.00 +0.00    +0.234 C  
DOCKED: ATOM     12  O2  UNL     1      13.871  -0.723   0.487 +0.00 -0.00    -0.274 OA 
DOCKED: ATOM     13  N2  UNL     1      13.361   1.371   1.268 +0.00 -0.00    -0.308 N  
DOCKED: ATOM     14  H15 UNL     1      13.181   1.743   2.202 +0.00 +0.00    +0.149 HD 
DOCKED: BRANCH  11  15
DOCKED: ATOM     15  C3  UNL     1      11.731  -0.467   1.614 +0.00 +0.00    +0.159 C  
DOCKED: BRANCH  15  19
DOCKED: ATOM     16  C1  UNL     1      12.820  -1.575   5.083 +0.00 +0.00    +0.109 C  
DOCKED: ATOM     17  C2  UNL     1      12.846  -0.766   3.814 +0.00 +0.00    +0.211 C  
DOCKED: ATOM     18  O1  UNL     1      13.618   0.175   3.658 +0.00 -0.00    -0.276 OA 
DOCKED: ATOM     19  N1  UNL     1      11.937  -1.178   2.874 +0.00 -0.00    -0.304 N  
DOCKED: ATOM     20  H4  UNL     1      11.170  -1.780   3.163 +0.00 +0.00    +0.149 HD 
DOCKED: ENDBRANCH  15  19
DOCKED: BRANCH  15  21
DOCKED: ATOM     21  C4  UNL     1      10.610   0.579   1.681 +0.00 +0.00    +0.034 C  
DOCKED: BRANCH  21  22
DOCKED: ATOM     22  C5  UNL     1       9.899   0.942   0.363 +0.00 -0.00    -0.015 C  
DOCKED: ATOM     23  C6  UNL     1      10.234  -0.008  -0.786 +0.00 +0.00    +0.007 C  
DOCKED: ATOM     24  C7  UNL     1      10.313   2.361  -0.039 +0.00 +0.00    +0.007 C  
DOCKED: ENDBRANCH  21  22
DOCKED: ENDBRANCH  15  21
DOCKED: ENDBRANCH  11  15
DOCKED: ENDBRANCH  10  13
DOCKED: BRANCH  10  25
DOCKED: ATOM     25  C10 UNL     1      13.933   3.147  -0.419 +0.00 +0.00    +0.060 C  
DOCKED: BRANCH  25  26
DOCKED: ATOM     26  C11 UNL     1      13.636   2.796  -1.860 +0.00 -0.00    -0.046 A  
DOCKED: ATOM     27  C12 UNL     1      12.763   1.747  -2.185 +0.00 +0.00    +0.004 A  
DOCKED: ATOM     28  C13 UNL     1      12.512   1.417  -3.517 +0.00 +0.00    +0.000 A  
DOCKED: ATOM     29  C14 UNL     1      13.147   2.114  -4.543 +0.00 +0.00    +0.000 A  
DOCKED: ATOM     30  C15 UNL     1      14.038   3.136  -4.236 +0.00 +0.00    +0.000 A  
DOCKED: ATOM     31  C16 UNL     1      14.288   3.468  -2.905 +0.00 +0.00    +0.004 A  
DOCKED: ENDBRANCH  25  26
DOCKED: ENDBRANCH  10  25
DOCKED: ENDBRANCH   7  10
DOCKED: ENDBRANCH   6   7
DOCKED: ENDBRANCH   2   6
DOCKED: ENDBRANCH   1   4
DOCKED: BRANCH   1  32
DOCKED: ATOM     32  C21 UNL     1      18.055  -1.881  -0.035 +0.00 +0.00    +0.028 C  
DOCKED: BRANCH  32  33
DOCKED: ATOM     33  C22 UNL     1      18.132  -2.497  -1.449 +0.00 -0.00    -0.009 C  
DOCKED: ATOM     34  C23 UNL     1      19.493  -2.282  -2.128 +0.00 +0.00    +0.003 C  
DOCKED: ATOM     35  C24 UNL     1      19.455  -2.749  -3.583 +0.00 +0.00    +0.000 C  
DOCKED: ATOM     36  C25 UNL     1      19.009  -4.203  -3.698 +0.00 +0.00    +0.000 C  
DOCKED: ATOM     37  C26 UNL     1      17.695  -4.459  -2.971 +0.00 +0.00    +0.000 C  
DOCKED: ATOM     38  C27 UNL     1      17.735  -3.976  -1.520 +0.00 +0.00    +0.003 C  
DOCKED: ENDBRANCH  32  33
DOCKED: ENDBRANCH   1  32
DOCKED: BRANCH   1  39
DOCKED: ATOM     39  C28 UNL     1      16.391  -2.043   1.906 +0.00 +0.00    +0.143 C  
DOCKED: BRANCH  39  40
DOCKED: ATOM     40  O5  UNL     1      15.311  -1.415   2.585 +0.00 -0.00    -0.389 OA 
DOCKED: ATOM     41  H44 UNL     1      15.100  -0.567   2.145 +0.00 +0.00    +0.210 HD 
DOCKED: ENDBRANCH  39  40
DOCKED: BRANCH  39  42
DOCKED: ATOM     42  C29 UNL     1      16.225  -3.570   1.881 +0.00 +0.00    +0.129 C  
DOCKED: BRANCH  42  43
DOCKED: ATOM     43  C30 UNL     1      15.196  -4.103   0.902 +0.00 +0.00    +0.216 C  
DOCKED: ATOM     44  O6  UNL     1      15.436  -4.969   0.063 +0.00 -0.00    -0.276 OA 
DOCKED: ATOM     45  N4  UNL     1      13.961  -3.520   1.044 +0.00 -0.00    -0.304 N  
DOCKED: ATOM     46  H47 UNL     1      13.900  -2.623   1.532 +0.00 +0.00    +0.149 HD 
DOCKED: BRANCH  45  47
DOCKED: ATOM     47  C31 UNL     1      12.838  -3.816   0.156 +0.00 +0.00    +0.161 C  
DOCKED: BRANCH  47  48
DOCKED: ATOM     48  C32 UNL     1      13.063  -3.029  -1.157 +0.00 +0.00    +0.234 C  
DOCKED: ATOM     49  O7  UNL     1      12.445  -1.991  -1.400 +0.00 -0.00    -0.274 OA 
DOCKED: ATOM     50  N5  UNL     1      14.003  -3.566  -2.010 +0.00 -0.00    -0.310 N  
DOCKED: ATOM     51  H49 UNL     1      14.436  -4.454  -1.790 +0.00 +0.00    +0.149 HD 
DOCKED: BRANCH  50  52
DOCKED: ATOM     52  C33 UNL     1      14.239  -3.014  -3.326 +0.00 +0.00    +0.139 C  
DOCKED: BRANCH  52  53
DOCKED: ATOM     53  C34 UNL     1      15.168  -1.827  -3.264 +0.00 -0.00    -0.030 A  
DOCKED: ATOM     54  C35 UNL     1      14.952  -0.818  -2.315 +0.00 +0.00    +0.006 A  
DOCKED: ATOM     55  C36 UNL     1      15.774   0.310  -2.281 +0.00 +0.00    +0.015 A  
DOCKED: ATOM     56  C37 UNL     1      16.814   0.453  -3.209 +0.00 +0.00    +0.059 A  
DOCKED: ATOM     57  C39 UNL     1      17.038  -0.551  -4.157 +0.00 +0.00    +0.015 A  
DOCKED: ATOM     58  C40 UNL     1      16.219  -1.685  -4.186 +0.00 +0.00    +0.006 A  
DOCKED: BRANCH  56  59
DOCKED: ATOM     59  C38 UNL     1      17.647   1.678  -3.137 +0.00 +0.00    +0.337 C  
DOCKED: ATOM     60  O8  UNL     1      17.262   2.812  -3.352 +0.00 -0.00    -0.245 OA 
DOCKED: BRANCH  59  61
DOCKED: ATOM     61  O9  UNL     1      18.925   1.422  -2.807 +0.00 -0.00    -0.477 OA 
DOCKED: ATOM     62  H54 UNL     1      18.867   1.143  -1.867 +0.00 +0.00    +0.295 HD 
DOCKED: ENDBRANCH  59  61
DOCKED: ENDBRANCH  56  59
DOCKED: ENDBRANCH  52  53
DOCKED: ENDBRANCH  50  52
DOCKED: ENDBRANCH  47  48
DOCKED: BRANCH  47  63
DOCKED: ATOM     63  C41 UNL     1      11.477  -3.494   0.818 +0.00 +0.00    +0.012 C  
DOCKED: ATOM     64  C42 UNL     1      10.316  -3.775  -0.143 +0.00 +0.00    +0.009 C  
DOCKED: ATOM     65  C43 UNL     1      11.264  -4.253   2.136 +0.00 +0.00    +0.009 C  
DOCKED: ENDBRANCH  47  63
DOCKED: ENDBRANCH  45  47
DOCKED: ENDBRANCH  42  43
DOCKED: ENDBRANCH  39  42
DOCKED: ENDBRANCH   1  39
DOCKED: TORSDOF 25
DOCKED: TER
DOCKED: ENDMDL
________________________________________________________________________________


    FINAL DOCKED STATE:
    ________________________


Run:   12 / 20
Time taken for this run:   3.634s

DOCKED: MODEL        12
DOCKED: USER    Run = 12
DOCKED: USER
DOCKED: USER    Estimated Free Energy of Binding    =  +7.46 kcal/mol  [=(1)+(2)+(3)-(4)]
DOCKED: USER
DOCKED: USER    (1) Final Intermolecular Energy     =  +0.00 kcal/mol
DOCKED: USER        vdW + Hbond + desolv Energy     =  +0.00 kcal/mol
DOCKED: USER        Electrostatic Energy            =  +0.00 kcal/mol
DOCKED: USER        Moving Ligand-Fixed Receptor    =  +0.00 kcal/mol
DOCKED: USER        Moving Ligand-Moving Receptor   =  +0.00 kcal/mol
DOCKED: USER    (2) Final Total Internal Energy     = -18.12 kcal/mol
DOCKED: USER    (3) Torsional Free Energy           =  +7.46 kcal/mol
DOCKED: USER    (4) Unbound System's Energy         = -18.12 kcal/mol
DOCKED: USER
DOCKED: USER
DOCKED: REMARK  Name = ligands/ligand_17.pdb
DOCKED: REMARK  30 active torsions:
DOCKED: REMARK  status: ('A' for Active; 'I' for Inactive)
DOCKED: REMARK    1  A    between atoms: C1_1  and  C2_2
DOCKED: REMARK    2  A    between atoms: N1_4  and  C3_5
DOCKED: REMARK    3  A    between atoms: C3_5  and  C4_6
DOCKED: REMARK    4  A    between atoms: C3_5  and  C8_10
DOCKED: REMARK    5  A    between atoms: C4_6  and  C5_7
DOCKED: REMARK    6  A    between atoms: C5_7  and  C6_8
DOCKED: REMARK    7  A    between atoms: C5_7  and  C7_9
DOCKED: REMARK    8  A    between atoms: N2_12  and  C9_13
DOCKED: REMARK    9  A    between atoms: C9_13  and  C10_14
DOCKED: REMARK   10  A    between atoms: C9_13  and  C17_21
DOCKED: REMARK   11  A    between atoms: C10_14  and  C11_15
DOCKED: REMARK   12  A    between atoms: C17_21  and  O3_22
DOCKED: REMARK   13  A    between atoms: C17_21  and  C18_23
DOCKED: REMARK   14  A    between atoms: C18_23  and  C19_24
DOCKED: REMARK   15  A    between atoms: N3_26  and  C20_27
DOCKED: REMARK   16  A    between atoms: C20_27  and  C21_28
DOCKED: REMARK   17  A    between atoms: C20_27  and  C28_35
DOCKED: REMARK   18  A    between atoms: C21_28  and  C22_29
DOCKED: REMARK   19  A    between atoms: C28_35  and  O5_36
DOCKED: REMARK   20  A    between atoms: C28_35  and  C29_37
DOCKED: REMARK   21  A    between atoms: C29_37  and  C30_38
DOCKED: REMARK   22  A    between atoms: N4_40  and  C31_41
DOCKED: REMARK   23  A    between atoms: C31_41  and  C32_42
DOCKED: REMARK   24  A    between atoms: C31_41  and  C41_55
DOCKED: REMARK   25  A    between atoms: N5_44  and  C33_45
DOCKED: REMARK   26  A    between atoms: C33_45  and  C34_46
DOCKED: REMARK   27  A    between atoms: C37_49  and  C38_50
DOCKED: REMARK   28  A    between atoms: C38_50  and  O9_52
DOCKED: REMARK   29  A    between atoms: C41_55  and  C42_56
DOCKED: REMARK   30  A    between atoms: C41_55  and  C43_57
DOCKED: REMARK                            x       y       z     vdW  Elec       q    Type
DOCKED: REMARK                         _______ _______ _______ _____ _____    ______ ____
DOCKED: USER                              x       y       z     vdW  Elec       q    Type
DOCKED: USER                           _______ _______ _______ _____ _____    ______ ____
DOCKED: ROOT
DOCKED: ATOM      1  C20 UNL     1       7.699  -7.125   0.297 +0.00 +0.00    +0.102 C  
DOCKED: ENDROOT
DOCKED: BRANCH   1   4
DOCKED: ATOM      2  C19 UNL     1       5.816  -7.471   1.946 +0.00 +0.00    +0.216 C  
DOCKED: ATOM      3  O4  UNL     1       6.484  -7.494   2.972 +0.00 -0.00    -0.276 OA 
DOCKED: ATOM      4  N3  UNL     1       6.287  -7.112   0.692 +0.00 -0.00    -0.310 N  
DOCKED: ATOM      5  H28 UNL     1       5.668  -7.382  -0.068 +0.00 +0.00    +0.149 HD 
DOCKED: BRANCH   2   6
DOCKED: ATOM      6  C18 UNL     1       4.330  -7.760   1.950 +0.00 +0.00    +0.129 C  
DOCKED: BRANCH   6   7
DOCKED: ATOM      7  C17 UNL     1       3.718  -7.770   0.555 +0.00 +0.00    +0.144 C  
DOCKED: BRANCH   7   8
DOCKED: ATOM      8  O3  UNL     1       4.476  -8.722  -0.224 +0.00 -0.00    -0.389 OA 
DOCKED: ATOM      9  H25 UNL     1       4.904  -8.216  -0.939 +0.00 +0.00    +0.210 HD 
DOCKED: ENDBRANCH   7   8
DOCKED: BRANCH   7  10
DOCKED: ATOM     10  C9  UNL     1       3.674  -6.441  -0.248 +0.00 +0.00    +0.106 C  
DOCKED: BRANCH  10  13
DOCKED: ATOM     11  C8  UNL     1       4.968  -6.282  -2.356 +0.00 +0.00    +0.234 C  
DOCKED: ATOM     12  O2  UNL     1       6.007  -5.980  -1.764 +0.00 -0.00    -0.274 OA 
DOCKED: ATOM     13  N2  UNL     1       3.805  -6.613  -1.694 +0.00 -0.00    -0.308 N  
DOCKED: ATOM     14  H15 UNL     1       3.295  -7.411  -2.076 +0.00 +0.00    +0.149 HD 
DOCKED: BRANCH  11  15
DOCKED: ATOM     15  C3  UNL     1       4.846  -6.139  -3.895 +0.00 +0.00    +0.159 C  
DOCKED: BRANCH  15  19
DOCKED: ATOM     16  C1  UNL     1       5.907  -9.670  -4.817 +0.00 +0.00    +0.109 C  
DOCKED: ATOM     17  C2  UNL     1       5.309  -8.579  -3.971 +0.00 +0.00    +0.211 C  
DOCKED: ATOM     18  O1  UNL     1       4.752  -8.814  -2.903 +0.00 -0.00    -0.276 OA 
DOCKED: ATOM     19  N1  UNL     1       5.443  -7.324  -4.507 +0.00 -0.00    -0.304 N  
DOCKED: ATOM     20  H4  UNL     1       5.676  -7.233  -5.493 +0.00 +0.00    +0.149 HD 
DOCKED: ENDBRANCH  15  19
DOCKED: BRANCH  15  21
DOCKED: ATOM     21  C4  UNL     1       3.454  -5.804  -4.448 +0.00 +0.00    +0.034 C  
DOCKED: BRANCH  21  22
DOCKED: ATOM     22  C5  UNL     1       3.028  -4.323  -4.446 +0.00 -0.00    -0.015 C  
DOCKED: ATOM     23  C6  UNL     1       4.164  -3.367  -4.087 +0.00 +0.00    +0.007 C  
DOCKED: ATOM     24  C7  UNL     1       1.898  -4.143  -3.426 +0.00 +0.00    +0.007 C  
DOCKED: ENDBRANCH  21  22
DOCKED: ENDBRANCH  15  21
DOCKED: ENDBRANCH  11  15
DOCKED: ENDBRANCH  10  13
DOCKED: BRANCH  10  25
DOCKED: ATOM     25  C10 UNL     1       2.566  -5.428   0.147 +0.00 +0.00    +0.060 C  
DOCKED: BRANCH  25  26
DOCKED: ATOM     26  C11 UNL     1       2.910  -3.960   0.253 +0.00 -0.00    -0.046 A  
DOCKED: ATOM     27  C12 UNL     1       3.658  -3.317  -0.745 +0.00 +0.00    +0.004 A  
DOCKED: ATOM     28  C13 UNL     1       3.989  -1.967  -0.628 +0.00 +0.00    +0.000 A  
DOCKED: ATOM     29  C14 UNL     1       3.598  -1.244   0.496 +0.00 +0.00    +0.000 A  
DOCKED: ATOM     30  C15 UNL     1       2.882  -1.874   1.508 +0.00 +0.00    +0.000 A  
DOCKED: ATOM     31  C16 UNL     1       2.549  -3.224   1.391 +0.00 +0.00    +0.004 A  
DOCKED: ENDBRANCH  25  26
DOCKED: ENDBRANCH  10  25
DOCKED: ENDBRANCH   7  10
DOCKED: ENDBRANCH   6   7
DOCKED: ENDBRANCH   2   6
DOCKED: ENDBRANCH   1   4
DOCKED: BRANCH   1  32
DOCKED: ATOM     32  C21 UNL     1       8.711  -7.149   1.465 +0.00 +0.00    +0.028 C  
DOCKED: BRANCH  32  33
DOCKED: ATOM     33  C22 UNL     1       9.464  -5.851   1.826 +0.00 -0.00    -0.009 C  
DOCKED: ATOM     34  C23 UNL     1       9.840  -5.764   3.313 +0.00 +0.00    +0.003 C  
DOCKED: ATOM     35  C24 UNL     1      10.418  -4.390   3.648 +0.00 +0.00    +0.000 C  
DOCKED: ATOM     36  C25 UNL     1      11.610  -4.046   2.761 +0.00 +0.00    +0.000 C  
DOCKED: ATOM     37  C26 UNL     1      11.285  -4.194   1.280 +0.00 +0.00    +0.000 C  
DOCKED: ATOM     38  C27 UNL     1      10.693  -5.566   0.954 +0.00 +0.00    +0.003 C  
DOCKED: ENDBRANCH  32  33
DOCKED: ENDBRANCH   1  32
DOCKED: BRANCH   1  39
DOCKED: ATOM     39  C28 UNL     1       8.009  -8.269  -0.730 +0.00 +0.00    +0.143 C  
DOCKED: BRANCH  39  40
DOCKED: ATOM     40  O5  UNL     1       6.962  -8.472  -1.670 +0.00 -0.00    -0.389 OA 
DOCKED: ATOM     41  H44 UNL     1       6.151  -8.024  -1.355 +0.00 +0.00    +0.210 HD 
DOCKED: ENDBRANCH  39  40
DOCKED: BRANCH  39  42
DOCKED: ATOM     42  C29 UNL     1       9.370  -8.126  -1.429 +0.00 +0.00    +0.129 C  
DOCKED: BRANCH  42  43
DOCKED: ATOM     43  C30 UNL     1       9.608  -6.808  -2.142 +0.00 +0.00    +0.216 C  
DOCKED: ATOM     44  O6  UNL     1      10.617  -6.123  -1.992 +0.00 -0.00    -0.276 OA 
DOCKED: ATOM     45  N4  UNL     1       8.577  -6.451  -2.977 +0.00 -0.00    -0.304 N  
DOCKED: ATOM     46  H47 UNL     1       7.663  -6.887  -2.834 +0.00 +0.00    +0.149 HD 
DOCKED: BRANCH  45  47
DOCKED: ATOM     47  C31 UNL     1       8.549  -5.182  -3.703 +0.00 +0.00    +0.161 C  
DOCKED: BRANCH  47  48
DOCKED: ATOM     48  C32 UNL     1       8.060  -4.093  -2.718 +0.00 +0.00    +0.234 C  
DOCKED: ATOM     49  O7  UNL     1       6.923  -3.625  -2.789 +0.00 -0.00    -0.274 OA 
DOCKED: ATOM     50  N5  UNL     1       8.978  -3.708  -1.765 +0.00 -0.00    -0.310 N  
DOCKED: ATOM     51  H49 UNL     1       9.919  -4.080  -1.791 +0.00 +0.00    +0.149 HD 
DOCKED: BRANCH  50  52
DOCKED: ATOM     52  C33 UNL     1       8.713  -2.619  -0.851 +0.00 +0.00    +0.139 C  
DOCKED: BRANCH  52  53
DOCKED: ATOM     53  C34 UNL     1       7.916  -3.086   0.341 +0.00 -0.00    -0.030 A  
DOCKED: ATOM     54  C35 UNL     1       6.802  -3.915   0.157 +0.00 +0.00    +0.006 A  
DOCKED: ATOM     55  C36 UNL     1       6.026  -4.312   1.249 +0.00 +0.00    +0.015 A  
DOCKED: ATOM     56  C37 UNL     1       6.343  -3.869   2.539 +0.00 +0.00    +0.059 A  
DOCKED: ATOM     57  C39 UNL     1       7.457  -3.043   2.731 +0.00 +0.00    +0.015 A  
DOCKED: ATOM     58  C40 UNL     1       8.238  -2.652   1.639 +0.00 +0.00    +0.006 A  
DOCKED: BRANCH  56  59
DOCKED: ATOM     59  C38 UNL     1       5.477  -4.309   3.659 +0.00 +0.00    +0.337 C  
DOCKED: ATOM     60  O8  UNL     1       4.320  -3.978   3.834 +0.00 -0.00    -0.245 OA 
DOCKED: BRANCH  59  61
DOCKED: ATOM     61  O9  UNL     1       6.106  -5.137   4.511 +0.00 -0.00    -0.477 OA 
DOCKED: ATOM     62  H54 UNL     1       6.301  -5.927   3.960 +0.00 +0.00    +0.295 HD 
DOCKED: ENDBRANCH  59  61
DOCKED: ENDBRANCH  56  59
DOCKED: ENDBRANCH  52  53
DOCKED: ENDBRANCH  50  52
DOCKED: ENDBRANCH  47  48
DOCKED: BRANCH  47  63
DOCKED: ATOM     63  C41 UNL     1       7.679  -5.266  -4.979 +0.00 +0.00    +0.012 C  
DOCKED: ATOM     64  C42 UNL     1       7.648  -3.921  -5.715 +0.00 +0.00    +0.009 C  
DOCKED: ATOM     65  C43 UNL     1       8.133  -6.378  -5.935 +0.00 +0.00    +0.009 C  
DOCKED: ENDBRANCH  47  63
DOCKED: ENDBRANCH  45  47
DOCKED: ENDBRANCH  42  43
DOCKED: ENDBRANCH  39  42
DOCKED: ENDBRANCH   1  39
DOCKED: TORSDOF 25
DOCKED: TER
DOCKED: ENDMDL
________________________________________________________________________________


    FINAL DOCKED STATE:
    ________________________


Run:   13 / 20
Time taken for this run:   3.634s

DOCKED: MODEL        13
DOCKED: USER    Run = 13
DOCKED: USER
DOCKED: USER    Estimated Free Energy of Binding    =  +7.46 kcal/mol  [=(1)+(2)+(3)-(4)]
DOCKED: USER
DOCKED: USER    (1) Final Intermolecular Energy     =  +0.00 kcal/mol
DOCKED: USER        vdW + Hbond + desolv Energy     =  +0.00 kcal/mol
DOCKED: USER        Electrostatic Energy            =  +0.00 kcal/mol
DOCKED: USER        Moving Ligand-Fixed Receptor    =  +0.00 kcal/mol
DOCKED: USER        Moving Ligand-Moving Receptor   =  +0.00 kcal/mol
DOCKED: USER    (2) Final Total Internal Energy     = -18.08 kcal/mol
DOCKED: USER    (3) Torsional Free Energy           =  +7.46 kcal/mol
DOCKED: USER    (4) Unbound System's Energy         = -18.08 kcal/mol
DOCKED: USER
DOCKED: USER
DOCKED: REMARK  Name = ligands/ligand_17.pdb
DOCKED: REMARK  30 active torsions:
DOCKED: REMARK  status: ('A' for Active; 'I' for Inactive)
DOCKED: REMARK    1  A    between atoms: C1_1  and  C2_2
DOCKED: REMARK    2  A    between atoms: N1_4  and  C3_5
DOCKED: REMARK    3  A    between atoms: C3_5  and  C4_6
DOCKED: REMARK    4  A    between atoms: C3_5  and  C8_10
DOCKED: REMARK    5  A    between atoms: C4_6  and  C5_7
DOCKED: REMARK    6  A    between atoms: C5_7  and  C6_8
DOCKED: REMARK    7  A    between atoms: C5_7  and  C7_9
DOCKED: REMARK    8  A    between atoms: N2_12  and  C9_13
DOCKED: REMARK    9  A    between atoms: C9_13  and  C10_14
DOCKED: REMARK   10  A    between atoms: C9_13  and  C17_21
DOCKED: REMARK   11  A    between atoms: C10_14  and  C11_15
DOCKED: REMARK   12  A    between atoms: C17_21  and  O3_22
DOCKED: REMARK   13  A    between atoms: C17_21  and  C18_23
DOCKED: REMARK   14  A    between atoms: C18_23  and  C19_24
DOCKED: REMARK   15  A    between atoms: N3_26  and  C20_27
DOCKED: REMARK   16  A    between atoms: C20_27  and  C21_28
DOCKED: REMARK   17  A    between atoms: C20_27  and  C28_35
DOCKED: REMARK   18  A    between atoms: C21_28  and  C22_29
DOCKED: REMARK   19  A    between atoms: C28_35  and  O5_36
DOCKED: REMARK   20  A    between atoms: C28_35  and  C29_37
DOCKED: REMARK   21  A    between atoms: C29_37  and  C30_38
DOCKED: REMARK   22  A    between atoms: N4_40  and  C31_41
DOCKED: REMARK   23  A    between atoms: C31_41  and  C32_42
DOCKED: REMARK   24  A    between atoms: C31_41  and  C41_55
DOCKED: REMARK   25  A    between atoms: N5_44  and  C33_45
DOCKED: REMARK   26  A    between atoms: C33_45  and  C34_46
DOCKED: REMARK   27  A    between atoms: C37_49  and  C38_50
DOCKED: REMARK   28  A    between atoms: C38_50  and  O9_52
DOCKED: REMARK   29  A    between atoms: C41_55  and  C42_56
DOCKED: REMARK   30  A    between atoms: C41_55  and  C43_57
DOCKED: REMARK                            x       y       z     vdW  Elec       q    Type
DOCKED: REMARK                         _______ _______ _______ _____ _____    ______ ____
DOCKED: USER                              x       y       z     vdW  Elec       q    Type
DOCKED: USER                           _______ _______ _______ _____ _____    ______ ____
DOCKED: ROOT
DOCKED: ATOM      1  C20 UNL     1       7.297  -0.142   0.742 +0.00 +0.00    +0.102 C  
DOCKED: ENDROOT
DOCKED: BRANCH   1   4
DOCKED: ATOM      2  C19 UNL     1       8.811  -2.161   0.871 +0.00 +0.00    +0.216 C  
DOCKED: ATOM      3  O4  UNL     1       9.213  -2.151  -0.286 +0.00 -0.00    -0.276 OA 
DOCKED: ATOM      4  N3  UNL     1       8.073  -1.150   1.469 +0.00 -0.00    -0.310 N  
DOCKED: ATOM      5  H28 UNL     1       7.628  -1.433   2.339 +0.00 +0.00    +0.149 HD 
DOCKED: BRANCH   2   6
DOCKED: ATOM      6  C18 UNL     1       9.160  -3.277   1.831 +0.00 +0.00    +0.129 C  
DOCKED: BRANCH   6   7
DOCKED: ATOM      7  C17 UNL     1       8.438  -3.163   3.168 +0.00 +0.00    +0.144 C  
DOCKED: BRANCH   7   8
DOCKED: ATOM      8  O3  UNL     1       7.033  -3.009   2.870 +0.00 -0.00    -0.389 OA 
DOCKED: ATOM      9  H25 UNL     1       6.785  -2.111   3.158 +0.00 +0.00    +0.210 HD 
DOCKED: ENDBRANCH   7   8
DOCKED: BRANCH   7  10
DOCKED: ATOM     10  C9  UNL     1       8.838  -2.015   4.135 +0.00 +0.00    +0.106 C  
DOCKED: BRANCH  10  13
DOCKED: ATOM     11  C8  UNL     1       7.109  -0.320   4.667 +0.00 +0.00    +0.234 C  
DOCKED: ATOM     12  O2  UNL     1       7.322   0.309   3.628 +0.00 -0.00    -0.274 OA 
DOCKED: ATOM     13  N2  UNL     1       7.736  -1.514   4.954 +0.00 -0.00    -0.308 N  
DOCKED: ATOM     14  H15 UNL     1       7.135  -2.240   5.351 +0.00 +0.00    +0.149 HD 
DOCKED: BRANCH  11  15
DOCKED: ATOM     15  C3  UNL     1       6.247   0.277   5.809 +0.00 +0.00    +0.159 C  
DOCKED: BRANCH  15  19
DOCKED: ATOM     16  C1  UNL     1       2.905  -1.189   4.747 +0.00 +0.00    +0.109 C  
DOCKED: ATOM     17  C2  UNL     1       4.401  -1.112   4.896 +0.00 +0.00    +0.211 C  
DOCKED: ATOM     18  O1  UNL     1       5.140  -2.016   4.521 +0.00 -0.00    -0.276 OA 
DOCKED: ATOM     19  N1  UNL     1       4.842   0.046   5.483 +0.00 -0.00    -0.304 N  
DOCKED: ATOM     20  H4  UNL     1       4.177   0.622   5.994 +0.00 +0.00    +0.149 HD 
DOCKED: ENDBRANCH  15  19
DOCKED: BRANCH  15  21
DOCKED: ATOM     21  C4  UNL     1       6.616  -0.138   7.240 +0.00 +0.00    +0.034 C  
DOCKED: BRANCH  21  22
DOCKED: ATOM     22  C5  UNL     1       7.910   0.450   7.837 +0.00 -0.00    -0.015 C  
DOCKED: ATOM     23  C6  UNL     1       8.477   1.613   7.026 +0.00 +0.00    +0.007 C  
DOCKED: ATOM     24  C7  UNL     1       8.964  -0.660   7.904 +0.00 +0.00    +0.007 C  
DOCKED: ENDBRANCH  21  22
DOCKED: ENDBRANCH  15  21
DOCKED: ENDBRANCH  11  15
DOCKED: ENDBRANCH  10  13
DOCKED: BRANCH  10  25
DOCKED: ATOM     25  C10 UNL     1      10.153  -2.208   4.936 +0.00 +0.00    +0.060 C  
DOCKED: BRANCH  25  26
DOCKED: ATOM     26  C11 UNL     1      11.272  -1.203   4.774 +0.00 -0.00    -0.046 A  
DOCKED: ATOM     27  C12 UNL     1      11.296  -0.019   5.527 +0.00 +0.00    +0.004 A  
DOCKED: ATOM     28  C13 UNL     1      12.320   0.912   5.356 +0.00 +0.00    +0.000 A  
DOCKED: ATOM     29  C14 UNL     1      13.322   0.686   4.416 +0.00 +0.00    +0.000 A  
DOCKED: ATOM     30  C15 UNL     1      13.296  -0.467   3.641 +0.00 +0.00    +0.000 A  
DOCKED: ATOM     31  C16 UNL     1      12.273  -1.400   3.813 +0.00 +0.00    +0.004 A  
DOCKED: ENDBRANCH  25  26
DOCKED: ENDBRANCH  10  25
DOCKED: ENDBRANCH   7  10
DOCKED: ENDBRANCH   6   7
DOCKED: ENDBRANCH   2   6
DOCKED: ENDBRANCH   1   4
DOCKED: BRANCH   1  32
DOCKED: ATOM     32  C21 UNL     1       7.679   0.041  -0.744 +0.00 +0.00    +0.028 C  
DOCKED: BRANCH  32  33
DOCKED: ATOM     33  C22 UNL     1       8.051   1.450  -1.251 +0.00 -0.00    -0.009 C  
DOCKED: ATOM     34  C23 UNL     1       8.137   2.494  -0.128 +0.00 +0.00    +0.003 C  
DOCKED: ATOM     35  C24 UNL     1       8.327   3.897  -0.701 +0.00 +0.00    +0.000 C  
DOCKED: ATOM     36  C25 UNL     1       9.547   3.974  -1.614 +0.00 +0.00    +0.000 C  
DOCKED: ATOM     37  C26 UNL     1       9.522   2.902  -2.696 +0.00 +0.00    +0.000 C  
DOCKED: ATOM     38  C27 UNL     1       9.316   1.502  -2.116 +0.00 +0.00    +0.003 C  
DOCKED: ENDBRANCH  32  33
DOCKED: ENDBRANCH   1  32
DOCKED: BRANCH   1  39
DOCKED: ATOM     39  C28 UNL     1       5.753  -0.371   0.894 +0.00 +0.00    +0.143 C  
DOCKED: BRANCH  39  40
DOCKED: ATOM     40  O5  UNL     1       5.357  -0.631   2.235 +0.00 -0.00    -0.389 OA 
DOCKED: ATOM     41  H44 UNL     1       6.066  -1.128   2.691 +0.00 +0.00    +0.210 HD 
DOCKED: ENDBRANCH  39  40
DOCKED: BRANCH  39  42
DOCKED: ATOM     42  C29 UNL     1       4.894   0.735   0.261 +0.00 +0.00    +0.129 C  
DOCKED: BRANCH  42  43
DOCKED: ATOM     43  C30 UNL     1       4.882   2.061   0.998 +0.00 +0.00    +0.216 C  
DOCKED: ATOM     44  O6  UNL     1       4.313   3.068   0.583 +0.00 -0.00    -0.276 OA 
DOCKED: ATOM     45  N4  UNL     1       5.575   2.027   2.183 +0.00 -0.00    -0.304 N  
DOCKED: ATOM     46  H47 UNL     1       6.260   1.282   2.324 +0.00 +0.00    +0.149 HD 
DOCKED: BRANCH  45  47
DOCKED: ATOM     47  C31 UNL     1       5.769   3.210   3.021 +0.00 +0.00    +0.161 C  
DOCKED: BRANCH  47  48
DOCKED: ATOM     48  C32 UNL     1       7.284   3.525   3.038 +0.00 +0.00    +0.234 C  
DOCKED: ATOM     49  O7  UNL     1       7.787   4.311   2.233 +0.00 -0.00    -0.274 OA 
DOCKED: ATOM     50  N5  UNL     1       8.008   2.879   4.016 +0.00 -0.00    -0.310 N  
DOCKED: ATOM     51  H49 UNL     1       7.555   2.196   4.610 +0.00 +0.00    +0.149 HD 
DOCKED: BRANCH  50  52
DOCKED: ATOM     52  C33 UNL     1       9.449   2.977   4.085 +0.00 +0.00    +0.139 C  
DOCKED: BRANCH  52  53
DOCKED: ATOM     53  C34 UNL     1      10.099   2.359   2.872 +0.00 -0.00    -0.030 A  
DOCKED: ATOM     54  C35 UNL     1       9.970   0.985   2.633 +0.00 +0.00    +0.006 A  
DOCKED: ATOM     55  C36 UNL     1      10.609   0.393   1.541 +0.00 +0.00    +0.015 A  
DOCKED: ATOM     56  C37 UNL     1      11.403   1.165   0.684 +0.00 +0.00    +0.059 A  
DOCKED: ATOM     57  C39 UNL     1      11.534   2.540   0.915 +0.00 +0.00    +0.015 A  
DOCKED: ATOM     58  C40 UNL     1      10.887   3.134   2.003 +0.00 +0.00    +0.006 A  
DOCKED: BRANCH  56  59
DOCKED: ATOM     59  C38 UNL     1      12.071   0.483  -0.451 +0.00 +0.00    +0.337 C  
DOCKED: ATOM     60  O8  UNL     1      12.714   1.029  -1.327 +0.00 -0.00    -0.245 OA 
DOCKED: BRANCH  59  61
DOCKED: ATOM     61  O9  UNL     1      11.895  -0.850  -0.435 +0.00 -0.00    -0.477 OA 
DOCKED: ATOM     62  H54 UNL     1      10.933  -0.956  -0.601 +0.00 +0.00    +0.295 HD 
DOCKED: ENDBRANCH  59  61
DOCKED: ENDBRANCH  56  59
DOCKED: ENDBRANCH  52  53
DOCKED: ENDBRANCH  50  52
DOCKED: ENDBRANCH  47  48
DOCKED: BRANCH  47  63
DOCKED: ATOM     63  C41 UNL     1       5.185   3.015   4.440 +0.00 +0.00    +0.012 C  
DOCKED: ATOM     64  C42 UNL     1       5.513   4.211   5.341 +0.00 +0.00    +0.009 C  
DOCKED: ATOM     65  C43 UNL     1       3.670   2.765   4.429 +0.00 +0.00    +0.009 C  
DOCKED: ENDBRANCH  47  63
DOCKED: ENDBRANCH  45  47
DOCKED: ENDBRANCH  42  43
DOCKED: ENDBRANCH  39  42
DOCKED: ENDBRANCH   1  39
DOCKED: TORSDOF 25
DOCKED: TER
DOCKED: ENDMDL
________________________________________________________________________________


    FINAL DOCKED STATE:
    ________________________


Run:   14 / 20
Time taken for this run:   3.634s

DOCKED: MODEL        14
DOCKED: USER    Run = 14
DOCKED: USER
DOCKED: USER    Estimated Free Energy of Binding    =  +7.46 kcal/mol  [=(1)+(2)+(3)-(4)]
DOCKED: USER
DOCKED: USER    (1) Final Intermolecular Energy     =  +0.00 kcal/mol
DOCKED: USER        vdW + Hbond + desolv Energy     =  +0.00 kcal/mol
DOCKED: USER        Electrostatic Energy            =  +0.00 kcal/mol
DOCKED: USER        Moving Ligand-Fixed Receptor    =  +0.00 kcal/mol
DOCKED: USER        Moving Ligand-Moving Receptor   =  +0.00 kcal/mol
DOCKED: USER    (2) Final Total Internal Energy     = -18.13 kcal/mol
DOCKED: USER    (3) Torsional Free Energy           =  +7.46 kcal/mol
DOCKED: USER    (4) Unbound System's Energy         = -18.13 kcal/mol
DOCKED: USER
DOCKED: USER
DOCKED: REMARK  Name = ligands/ligand_17.pdb
DOCKED: REMARK  30 active torsions:
DOCKED: REMARK  status: ('A' for Active; 'I' for Inactive)
DOCKED: REMARK    1  A    between atoms: C1_1  and  C2_2
DOCKED: REMARK    2  A    between atoms: N1_4  and  C3_5
DOCKED: REMARK    3  A    between atoms: C3_5  and  C4_6
DOCKED: REMARK    4  A    between atoms: C3_5  and  C8_10
DOCKED: REMARK    5  A    between atoms: C4_6  and  C5_7
DOCKED: REMARK    6  A    between atoms: C5_7  and  C6_8
DOCKED: REMARK    7  A    between atoms: C5_7  and  C7_9
DOCKED: REMARK    8  A    between atoms: N2_12  and  C9_13
DOCKED: REMARK    9  A    between atoms: C9_13  and  C10_14
DOCKED: REMARK   10  A    between atoms: C9_13  and  C17_21
DOCKED: REMARK   11  A    between atoms: C10_14  and  C11_15
DOCKED: REMARK   12  A    between atoms: C17_21  and  O3_22
DOCKED: REMARK   13  A    between atoms: C17_21  and  C18_23
DOCKED: REMARK   14  A    between atoms: C18_23  and  C19_24
DOCKED: REMARK   15  A    between atoms: N3_26  and  C20_27
DOCKED: REMARK   16  A    between atoms: C20_27  and  C21_28
DOCKED: REMARK   17  A    between atoms: C20_27  and  C28_35
DOCKED: REMARK   18  A    between atoms: C21_28  and  C22_29
DOCKED: REMARK   19  A    between atoms: C28_35  and  O5_36
DOCKED: REMARK   20  A    between atoms: C28_35  and  C29_37
DOCKED: REMARK   21  A    between atoms: C29_37  and  C30_38
DOCKED: REMARK   22  A    between atoms: N4_40  and  C31_41
DOCKED: REMARK   23  A    between atoms: C31_41  and  C32_42
DOCKED: REMARK   24  A    between atoms: C31_41  and  C41_55
DOCKED: REMARK   25  A    between atoms: N5_44  and  C33_45
DOCKED: REMARK   26  A    between atoms: C33_45  and  C34_46
DOCKED: REMARK   27  A    between atoms: C37_49  and  C38_50
DOCKED: REMARK   28  A    between atoms: C38_50  and  O9_52
DOCKED: REMARK   29  A    between atoms: C41_55  and  C42_56
DOCKED: REMARK   30  A    between atoms: C41_55  and  C43_57
DOCKED: REMARK                            x       y       z     vdW  Elec       q    Type
DOCKED: REMARK                         _______ _______ _______ _____ _____    ______ ____
DOCKED: USER                              x       y       z     vdW  Elec       q    Type
DOCKED: USER                           _______ _______ _______ _____ _____    ______ ____
DOCKED: ROOT
DOCKED: ATOM      1  C20 UNL     1      12.491  -0.936   1.086 +0.00 +0.00    +0.102 C  
DOCKED: ENDROOT
DOCKED: BRANCH   1   4
DOCKED: ATOM      2  C19 UNL     1      13.028   0.818   2.823 +0.00 +0.00    +0.216 C  
DOCKED: ATOM      3  O4  UNL     1      12.253   0.444   3.695 +0.00 -0.00    -0.276 OA 
DOCKED: ATOM      4  N3  UNL     1      13.331   0.115   1.667 +0.00 -0.00    -0.310 N  
DOCKED: ATOM      5  H28 UNL     1      13.795   0.679   0.959 +0.00 +0.00    +0.149 HD 
DOCKED: BRANCH   2   6
DOCKED: ATOM      6  C18 UNL     1      13.831   2.094   2.959 +0.00 +0.00    +0.129 C  
DOCKED: BRANCH   6   7
DOCKED: ATOM      7  C17 UNL     1      14.725   2.369   1.756 +0.00 +0.00    +0.144 C  
DOCKED: BRANCH   7   8
DOCKED: ATOM      8  O3  UNL     1      13.859   2.423   0.601 +0.00 -0.00    -0.389 OA 
DOCKED: ATOM      9  H25 UNL     1      14.111   1.673   0.030 +0.00 +0.00    +0.210 HD 
DOCKED: ENDBRANCH   7   8
DOCKED: BRANCH   7  10
DOCKED: ATOM     10  C9  UNL     1      15.870   1.371   1.435 +0.00 +0.00    +0.106 C  
DOCKED: BRANCH  10  13
DOCKED: ATOM     11  C8  UNL     1      15.791   0.105  -0.695 +0.00 +0.00    +0.234 C  
DOCKED: ATOM     12  O2  UNL     1      15.066  -0.770  -0.216 +0.00 -0.00    -0.274 OA 
DOCKED: ATOM     13  N2  UNL     1      16.158   1.233   0.009 +0.00 -0.00    -0.308 N  
DOCKED: ATOM     14  H15 UNL     1      16.129   2.108  -0.519 +0.00 +0.00    +0.149 HD 
DOCKED: BRANCH  11  15
DOCKED: ATOM     15  C3  UNL     1      16.486  -0.085  -2.068 +0.00 +0.00    +0.159 C  
DOCKED: BRANCH  15  19
DOCKED: ATOM     16  C1  UNL     1      13.810   1.539  -4.223 +0.00 +0.00    +0.109 C  
DOCKED: ATOM     17  C2  UNL     1      14.635   1.292  -2.989 +0.00 +0.00    +0.211 C  
DOCKED: ATOM     18  O1  UNL     1      14.510   1.972  -1.975 +0.00 -0.00    -0.276 OA 
DOCKED: ATOM     19  N1  UNL     1      15.524   0.255  -3.113 +0.00 -0.00    -0.304 N  
DOCKED: ATOM     20  H4  UNL     1      15.754  -0.086  -4.043 +0.00 +0.00    +0.149 HD 
DOCKED: ENDBRANCH  15  19
DOCKED: BRANCH  15  21
DOCKED: ATOM     21  C4  UNL     1      17.850   0.596  -2.250 +0.00 +0.00    +0.034 C  
DOCKED: BRANCH  21  22
DOCKED: ATOM     22  C5  UNL     1      19.098  -0.180  -1.787 +0.00 -0.00    -0.015 C  
DOCKED: ATOM     23  C6  UNL     1      18.790  -1.607  -1.337 +0.00 +0.00    +0.007 C  
DOCKED: ATOM     24  C7  UNL     1      19.734   0.575  -0.615 +0.00 +0.00    +0.007 C  
DOCKED: ENDBRANCH  21  22
DOCKED: ENDBRANCH  15  21
DOCKED: ENDBRANCH  11  15
DOCKED: ENDBRANCH  10  13
DOCKED: BRANCH  10  25
DOCKED: ATOM     25  C10 UNL     1      17.149   1.478   2.307 +0.00 +0.00    +0.060 C  
DOCKED: BRANCH  25  26
DOCKED: ATOM     26  C11 UNL     1      17.822   0.213   2.791 +0.00 -0.00    -0.046 A  
DOCKED: ATOM     27  C12 UNL     1      18.093  -0.845   1.911 +0.00 +0.00    +0.004 A  
DOCKED: ATOM     28  C13 UNL     1      18.695  -2.017   2.372 +0.00 +0.00    +0.000 A  
DOCKED: ATOM     29  C14 UNL     1      19.014  -2.158   3.720 +0.00 +0.00    +0.000 A  
DOCKED: ATOM     30  C15 UNL     1      18.725  -1.130   4.609 +0.00 +0.00    +0.000 A  
DOCKED: ATOM     31  C16 UNL     1      18.124   0.043   4.150 +0.00 +0.00    +0.004 A  
DOCKED: ENDBRANCH  25  26
DOCKED: ENDBRANCH  10  25
DOCKED: ENDBRANCH   7  10
DOCKED: ENDBRANCH   6   7
DOCKED: ENDBRANCH   2   6
DOCKED: ENDBRANCH   1   4
DOCKED: BRANCH   1  32
DOCKED: ATOM     32  C21 UNL     1      11.379  -1.480   2.012 +0.00 +0.00    +0.028 C  
DOCKED: BRANCH  32  33
DOCKED: ATOM     33  C22 UNL     1      11.567  -2.863   2.670 +0.00 -0.00    -0.009 C  
DOCKED: ATOM     34  C23 UNL     1      10.832  -2.999   4.012 +0.00 +0.00    +0.003 C  
DOCKED: ATOM     35  C24 UNL     1      11.197  -4.313   4.702 +0.00 +0.00    +0.000 C  
DOCKED: ATOM     36  C25 UNL     1      10.925  -5.516   3.805 +0.00 +0.00    +0.000 C  
DOCKED: ATOM     37  C26 UNL     1      11.585  -5.375   2.439 +0.00 +0.00    +0.000 C  
DOCKED: ATOM     38  C27 UNL     1      11.228  -4.051   1.761 +0.00 +0.00    +0.003 C  
DOCKED: ENDBRANCH  32  33
DOCKED: ENDBRANCH   1  32
DOCKED: BRANCH   1  39
DOCKED: ATOM     39  C28 UNL     1      11.899  -0.513  -0.303 +0.00 +0.00    +0.143 C  
DOCKED: BRANCH  39  40
DOCKED: ATOM     40  O5  UNL     1      12.808   0.251  -1.086 +0.00 -0.00    -0.389 OA 
DOCKED: ATOM     41  H44 UNL     1      13.507   0.616  -0.507 +0.00 +0.00    +0.210 HD 
DOCKED: ENDBRANCH  39  40
DOCKED: BRANCH  39  42
DOCKED: ATOM     42  C29 UNL     1      11.307  -1.679  -1.110 +0.00 +0.00    +0.129 C  
DOCKED: BRANCH  42  43
DOCKED: ATOM     43  C30 UNL     1      12.246  -2.841  -1.370 +0.00 +0.00    +0.216 C  
DOCKED: ATOM     44  O6  UNL     1      11.959  -4.015  -1.142 +0.00 -0.00    -0.276 OA 
DOCKED: ATOM     45  N4  UNL     1      13.457  -2.453  -1.888 +0.00 -0.00    -0.304 N  
DOCKED: ATOM     46  H47 UNL     1      13.745  -1.479  -1.772 +0.00 +0.00    +0.149 HD 
DOCKED: BRANCH  45  47
DOCKED: ATOM     47  C31 UNL     1      14.549  -3.393  -2.139 +0.00 +0.00    +0.161 C  
DOCKED: BRANCH  47  48
DOCKED: ATOM     48  C32 UNL     1      15.249  -3.667  -0.786 +0.00 +0.00    +0.234 C  
DOCKED: ATOM     49  O7  UNL     1      16.342  -3.167  -0.514 +0.00 -0.00    -0.274 OA 
DOCKED: ATOM     50  N5  UNL     1      14.556  -4.487   0.078 +0.00 -0.00    -0.310 N  
DOCKED: ATOM     51  H49 UNL     1      13.692  -4.920  -0.221 +0.00 +0.00    +0.149 HD 
DOCKED: BRANCH  50  52
DOCKED: ATOM     52  C33 UNL     1      15.132  -4.932   1.329 +0.00 +0.00    +0.139 C  
DOCKED: BRANCH  52  53
DOCKED: ATOM     53  C34 UNL     1      14.940  -3.904   2.416 +0.00 -0.00    -0.030 A  
DOCKED: ATOM     54  C35 UNL     1      15.229  -2.556   2.164 +0.00 +0.00    +0.006 A  
DOCKED: ATOM     55  C36 UNL     1      15.104  -1.603   3.177 +0.00 +0.00    +0.015 A  
DOCKED: ATOM     56  C37 UNL     1      14.705  -1.989   4.463 +0.00 +0.00    +0.059 A  
DOCKED: ATOM     57  C39 UNL     1      14.411  -3.333   4.722 +0.00 +0.00    +0.015 A  
DOCKED: ATOM     58  C40 UNL     1      14.529  -4.286   3.705 +0.00 +0.00    +0.006 A  
DOCKED: BRANCH  56  59
DOCKED: ATOM     59  C38 UNL     1      14.603  -0.939   5.506 +0.00 +0.00    +0.337 C  
DOCKED: ATOM     60  O8  UNL     1      15.528  -0.281   5.943 +0.00 -0.00    -0.245 OA 
DOCKED: BRANCH  59  61
DOCKED: ATOM     61  O9  UNL     1      13.348  -0.770   5.955 +0.00 -0.00    -0.477 OA 
DOCKED: ATOM     62  H54 UNL     1      12.904  -0.292   5.220 +0.00 +0.00    +0.295 HD 
DOCKED: ENDBRANCH  59  61
DOCKED: ENDBRANCH  56  59
DOCKED: ENDBRANCH  52  53
DOCKED: ENDBRANCH  50  52
DOCKED: ENDBRANCH  47  48
DOCKED: BRANCH  47  63
DOCKED: ATOM     63  C41 UNL     1      15.524  -2.870  -3.220 +0.00 +0.00    +0.012 C  
DOCKED: ATOM     64  C42 UNL     1      16.660  -3.868  -3.468 +0.00 +0.00    +0.009 C  
DOCKED: ATOM     65  C43 UNL     1      14.820  -2.535  -4.543 +0.00 +0.00    +0.009 C  
DOCKED: ENDBRANCH  47  63
DOCKED: ENDBRANCH  45  47
DOCKED: ENDBRANCH  42  43
DOCKED: ENDBRANCH  39  42
DOCKED: ENDBRANCH   1  39
DOCKED: TORSDOF 25
DOCKED: TER
DOCKED: ENDMDL
________________________________________________________________________________


    FINAL DOCKED STATE:
    ________________________


Run:   15 / 20
Time taken for this run:   3.634s

DOCKED: MODEL        15
DOCKED: USER    Run = 15
DOCKED: USER
DOCKED: USER    Estimated Free Energy of Binding    =  +7.46 kcal/mol  [=(1)+(2)+(3)-(4)]
DOCKED: USER
DOCKED: USER    (1) Final Intermolecular Energy     =  +0.00 kcal/mol
DOCKED: USER        vdW + Hbond + desolv Energy     =  +0.00 kcal/mol
DOCKED: USER        Electrostatic Energy            =  +0.00 kcal/mol
DOCKED: USER        Moving Ligand-Fixed Receptor    =  +0.00 kcal/mol
DOCKED: USER        Moving Ligand-Moving Receptor   =  +0.00 kcal/mol
DOCKED: USER    (2) Final Total Internal Energy     = -18.13 kcal/mol
DOCKED: USER    (3) Torsional Free Energy           =  +7.46 kcal/mol
DOCKED: USER    (4) Unbound System's Energy         = -18.13 kcal/mol
DOCKED: USER
DOCKED: USER
DOCKED: REMARK  Name = ligands/ligand_17.pdb
DOCKED: REMARK  30 active torsions:
DOCKED: REMARK  status: ('A' for Active; 'I' for Inactive)
DOCKED: REMARK    1  A    between atoms: C1_1  and  C2_2
DOCKED: REMARK    2  A    between atoms: N1_4  and  C3_5
DOCKED: REMARK    3  A    between atoms: C3_5  and  C4_6
DOCKED: REMARK    4  A    between atoms: C3_5  and  C8_10
DOCKED: REMARK    5  A    between atoms: C4_6  and  C5_7
DOCKED: REMARK    6  A    between atoms: C5_7  and  C6_8
DOCKED: REMARK    7  A    between atoms: C5_7  and  C7_9
DOCKED: REMARK    8  A    between atoms: N2_12  and  C9_13
DOCKED: REMARK    9  A    between atoms: C9_13  and  C10_14
DOCKED: REMARK   10  A    between atoms: C9_13  and  C17_21
DOCKED: REMARK   11  A    between atoms: C10_14  and  C11_15
DOCKED: REMARK   12  A    between atoms: C17_21  and  O3_22
DOCKED: REMARK   13  A    between atoms: C17_21  and  C18_23
DOCKED: REMARK   14  A    between atoms: C18_23  and  C19_24
DOCKED: REMARK   15  A    between atoms: N3_26  and  C20_27
DOCKED: REMARK   16  A    between atoms: C20_27  and  C21_28
DOCKED: REMARK   17  A    between atoms: C20_27  and  C28_35
DOCKED: REMARK   18  A    between atoms: C21_28  and  C22_29
DOCKED: REMARK   19  A    between atoms: C28_35  and  O5_36
DOCKED: REMARK   20  A    between atoms: C28_35  and  C29_37
DOCKED: REMARK   21  A    between atoms: C29_37  and  C30_38
DOCKED: REMARK   22  A    between atoms: N4_40  and  C31_41
DOCKED: REMARK   23  A    between atoms: C31_41  and  C32_42
DOCKED: REMARK   24  A    between atoms: C31_41  and  C41_55
DOCKED: REMARK   25  A    between atoms: N5_44  and  C33_45
DOCKED: REMARK   26  A    between atoms: C33_45  and  C34_46
DOCKED: REMARK   27  A    between atoms: C37_49  and  C38_50
DOCKED: REMARK   28  A    between atoms: C38_50  and  O9_52
DOCKED: REMARK   29  A    between atoms: C41_55  and  C42_56
DOCKED: REMARK   30  A    between atoms: C41_55  and  C43_57
DOCKED: REMARK                            x       y       z     vdW  Elec       q    Type
DOCKED: REMARK                         _______ _______ _______ _____ _____    ______ ____
DOCKED: USER                              x       y       z     vdW  Elec       q    Type
DOCKED: USER                           _______ _______ _______ _____ _____    ______ ____
DOCKED: ROOT
DOCKED: ATOM      1  C20 UNL     1       9.792  -5.163   2.913 +0.00 +0.00    +0.102 C  
DOCKED: ENDROOT
DOCKED: BRANCH   1   4
DOCKED: ATOM      2  C19 UNL     1       8.540  -6.867   1.530 +0.00 +0.00    +0.216 C  
DOCKED: ATOM      3  O4  UNL     1       7.661  -6.131   1.100 +0.00 -0.00    -0.276 OA 
DOCKED: ATOM      4  N3  UNL     1       9.669  -6.447   2.218 +0.00 -0.00    -0.310 N  
DOCKED: ATOM      5  H28 UNL     1      10.154  -7.200   2.701 +0.00 +0.00    +0.149 HD 
DOCKED: BRANCH   2   6
DOCKED: ATOM      6  C18 UNL     1       8.534  -8.359   1.274 +0.00 +0.00    +0.129 C  
DOCKED: BRANCH   6   7
DOCKED: ATOM      7  C17 UNL     1       9.687  -9.088   1.952 +0.00 +0.00    +0.144 C  
DOCKED: BRANCH   7   8
DOCKED: ATOM      8  O3  UNL     1       9.617  -8.758   3.357 +0.00 -0.00    -0.389 OA 
DOCKED: ATOM      9  H25 UNL     1      10.446  -8.294   3.574 +0.00 +0.00    +0.210 HD 
DOCKED: ENDBRANCH   7   8
DOCKED: BRANCH   7  10
DOCKED: ATOM     10  C9  UNL     1      11.136  -8.795   1.476 +0.00 +0.00    +0.106 C  
DOCKED: BRANCH  10  13
DOCKED: ATOM     11  C8  UNL     1      12.717  -7.752   3.075 +0.00 +0.00    +0.234 C  
DOCKED: ATOM     12  O2  UNL     1      12.313  -6.614   2.824 +0.00 -0.00    -0.274 OA 
DOCKED: ATOM     13  N2  UNL     1      12.141  -8.882   2.534 +0.00 -0.00    -0.308 N  
DOCKED: ATOM     14  H15 UNL     1      12.010  -9.661   3.183 +0.00 +0.00    +0.149 HD 
DOCKED: BRANCH  11  15
DOCKED: ATOM     15  C3  UNL     1      14.018  -7.985   3.885 +0.00 +0.00    +0.159 C  
DOCKED: BRANCH  15  19
DOCKED: ATOM     16  C1  UNL     1      12.436  -8.231   7.332 +0.00 +0.00    +0.109 C  
DOCKED: ATOM     17  C2  UNL     1      12.522  -8.350   5.834 +0.00 +0.00    +0.211 C  
DOCKED: ATOM     18  O1  UNL     1      11.614  -8.835   5.166 +0.00 -0.00    -0.276 OA 
DOCKED: ATOM     19  N1  UNL     1      13.694  -7.873   5.305 +0.00 -0.00    -0.304 N  
DOCKED: ATOM     20  H4  UNL     1      14.489  -7.730   5.923 +0.00 +0.00    +0.149 HD 
DOCKED: ENDBRANCH  15  19
DOCKED: BRANCH  15  21
DOCKED: ATOM     21  C4  UNL     1      14.827  -9.244   3.543 +0.00 +0.00    +0.034 C  
DOCKED: BRANCH  21  22
DOCKED: ATOM     22  C5  UNL     1      15.779  -9.167   2.333 +0.00 -0.00    -0.015 C  
DOCKED: ATOM     23  C6  UNL     1      15.932  -7.755   1.772 +0.00 +0.00    +0.007 C  
DOCKED: ATOM     24  C7  UNL     1      15.235 -10.077   1.227 +0.00 +0.00    +0.007 C  
DOCKED: ENDBRANCH  21  22
DOCKED: ENDBRANCH  15  21
DOCKED: ENDBRANCH  11  15
DOCKED: ENDBRANCH  10  13
DOCKED: BRANCH  10  25
DOCKED: ATOM     25  C10 UNL     1      11.583  -9.475   0.155 +0.00 +0.00    +0.060 C  
DOCKED: BRANCH  25  26
DOCKED: ATOM     26  C11 UNL     1      12.313  -8.658  -0.887 +0.00 -0.00    -0.046 A  
DOCKED: ATOM     27  C12 UNL     1      13.451  -7.907  -0.553 +0.00 +0.00    +0.004 A  
DOCKED: ATOM     28  C13 UNL     1      14.105  -7.140  -1.517 +0.00 +0.00    +0.000 A  
DOCKED: ATOM     29  C14 UNL     1      13.621  -7.091  -2.822 +0.00 +0.00    +0.000 A  
DOCKED: ATOM     30  C15 UNL     1      12.478  -7.805  -3.161 +0.00 +0.00    +0.000 A  
DOCKED: ATOM     31  C16 UNL     1      11.823  -8.575  -2.199 +0.00 +0.00    +0.004 A  
DOCKED: ENDBRANCH  25  26
DOCKED: ENDBRANCH  10  25
DOCKED: ENDBRANCH   7  10
DOCKED: ENDBRANCH   6   7
DOCKED: ENDBRANCH   2   6
DOCKED: ENDBRANCH   1   4
DOCKED: BRANCH   1  32
DOCKED: ATOM     32  C21 UNL     1       8.717  -4.112   2.554 +0.00 +0.00    +0.028 C  
DOCKED: BRANCH  32  33
DOCKED: ATOM     33  C22 UNL     1       9.103  -2.932   1.637 +0.00 -0.00    -0.009 C  
DOCKED: ATOM     34  C23 UNL     1       7.923  -2.392   0.817 +0.00 +0.00    +0.003 C  
DOCKED: ATOM     35  C24 UNL     1       8.396  -1.353  -0.199 +0.00 +0.00    +0.000 C  
DOCKED: ATOM     36  C25 UNL     1       9.164  -0.218   0.469 +0.00 +0.00    +0.000 C  
DOCKED: ATOM     37  C26 UNL     1      10.298  -0.730   1.347 +0.00 +0.00    +0.000 C  
DOCKED: ATOM     38  C27 UNL     1       9.820  -1.780   2.351 +0.00 +0.00    +0.003 C  
DOCKED: ENDBRANCH  32  33
DOCKED: ENDBRANCH   1  32
DOCKED: BRANCH   1  39
DOCKED: ATOM     39  C28 UNL     1       9.892  -5.345   4.467 +0.00 +0.00    +0.143 C  
DOCKED: BRANCH  39  40
DOCKED: ATOM     40  O5  UNL     1      10.621  -6.506   4.846 +0.00 -0.00    -0.389 OA 
DOCKED: ATOM     41  H44 UNL     1      10.738  -7.085   4.066 +0.00 +0.00    +0.210 HD 
DOCKED: ENDBRANCH  39  40
DOCKED: BRANCH  39  42
DOCKED: ATOM     42  C29 UNL     1      10.398  -4.099   5.210 +0.00 +0.00    +0.129 C  
DOCKED: BRANCH  42  43
DOCKED: ATOM     43  C30 UNL     1      11.719  -3.534   4.722 +0.00 +0.00    +0.216 C  
DOCKED: ATOM     44  O6  UNL     1      11.883  -2.358   4.404 +0.00 -0.00    -0.276 OA 
DOCKED: ATOM     45  N4  UNL     1      12.721  -4.472   4.669 +0.00 -0.00    -0.304 N  
DOCKED: ATOM     46  H47 UNL     1      12.461  -5.460   4.651 +0.00 +0.00    +0.149 HD 
DOCKED: BRANCH  45  47
DOCKED: ATOM     47  C31 UNL     1      14.056  -4.175   4.150 +0.00 +0.00    +0.161 C  
DOCKED: BRANCH  47  48
DOCKED: ATOM     48  C32 UNL     1      13.969  -4.193   2.605 +0.00 +0.00    +0.234 C  
DOCKED: ATOM     49  O7  UNL     1      14.395  -5.145   1.948 +0.00 -0.00    -0.274 OA 
DOCKED: ATOM     50  N5  UNL     1      13.376  -3.087   2.036 +0.00 -0.00    -0.310 N  
DOCKED: ATOM     51  H49 UNL     1      13.101  -2.307   2.619 +0.00 +0.00    +0.149 HD 
DOCKED: BRANCH  50  52
DOCKED: ATOM     52  C33 UNL     1      13.330  -2.903   0.603 +0.00 +0.00    +0.139 C  
DOCKED: BRANCH  52  53
DOCKED: ATOM     53  C34 UNL     1      12.176  -3.656  -0.009 +0.00 -0.00    -0.030 A  
DOCKED: ATOM     54  C35 UNL     1      11.972  -5.006   0.310 +0.00 +0.00    +0.006 A  
DOCKED: ATOM     55  C36 UNL     1      10.938  -5.727  -0.290 +0.00 +0.00    +0.015 A  
DOCKED: ATOM     56  C37 UNL     1      10.103  -5.113  -1.232 +0.00 +0.00    +0.059 A  
DOCKED: ATOM     57  C39 UNL     1      10.297  -3.765  -1.553 +0.00 +0.00    +0.015 A  
DOCKED: ATOM     58  C40 UNL     1      11.328  -3.040  -0.947 +0.00 +0.00    +0.006 A  
DOCKED: BRANCH  56  59
DOCKED: ATOM     59  C38 UNL     1       9.029  -5.930  -1.849 +0.00 +0.00    +0.337 C  
DOCKED: ATOM     60  O8  UNL     1       9.197  -6.910  -2.549 +0.00 -0.00    -0.245 OA 
DOCKED: BRANCH  59  61
DOCKED: ATOM     61  O9  UNL     1       7.797  -5.474  -1.563 +0.00 -0.00    -0.477 OA 
DOCKED: ATOM     62  H54 UNL     1       7.702  -5.659  -0.603 +0.00 +0.00    +0.295 HD 
DOCKED: ENDBRANCH  59  61
DOCKED: ENDBRANCH  56  59
DOCKED: ENDBRANCH  52  53
DOCKED: ENDBRANCH  50  52
DOCKED: ENDBRANCH  47  48
DOCKED: BRANCH  47  63
DOCKED: ATOM     63  C41 UNL     1      15.120  -5.154   4.700 +0.00 +0.00    +0.012 C  
DOCKED: ATOM     64  C42 UNL     1      16.500  -4.862   4.102 +0.00 +0.00    +0.009 C  
DOCKED: ATOM     65  C43 UNL     1      15.199  -5.146   6.233 +0.00 +0.00    +0.009 C  
DOCKED: ENDBRANCH  47  63
DOCKED: ENDBRANCH  45  47
DOCKED: ENDBRANCH  42  43
DOCKED: ENDBRANCH  39  42
DOCKED: ENDBRANCH   1  39
DOCKED: TORSDOF 25
DOCKED: TER
DOCKED: ENDMDL
________________________________________________________________________________


    FINAL DOCKED STATE:
    ________________________


Run:   16 / 20
Time taken for this run:   3.634s

DOCKED: MODEL        16
DOCKED: USER    Run = 16
DOCKED: USER
DOCKED: USER    Estimated Free Energy of Binding    =  +7.46 kcal/mol  [=(1)+(2)+(3)-(4)]
DOCKED: USER
DOCKED: USER    (1) Final Intermolecular Energy     =  +0.00 kcal/mol
DOCKED: USER        vdW + Hbond + desolv Energy     =  +0.00 kcal/mol
DOCKED: USER        Electrostatic Energy            =  +0.00 kcal/mol
DOCKED: USER        Moving Ligand-Fixed Receptor    =  +0.00 kcal/mol
DOCKED: USER        Moving Ligand-Moving Receptor   =  +0.00 kcal/mol
DOCKED: USER    (2) Final Total Internal Energy     = -17.71 kcal/mol
DOCKED: USER    (3) Torsional Free Energy           =  +7.46 kcal/mol
DOCKED: USER    (4) Unbound System's Energy         = -17.71 kcal/mol
DOCKED: USER
DOCKED: USER
DOCKED: REMARK  Name = ligands/ligand_17.pdb
DOCKED: REMARK  30 active torsions:
DOCKED: REMARK  status: ('A' for Active; 'I' for Inactive)
DOCKED: REMARK    1  A    between atoms: C1_1  and  C2_2
DOCKED: REMARK    2  A    between atoms: N1_4  and  C3_5
DOCKED: REMARK    3  A    between atoms: C3_5  and  C4_6
DOCKED: REMARK    4  A    between atoms: C3_5  and  C8_10
DOCKED: REMARK    5  A    between atoms: C4_6  and  C5_7
DOCKED: REMARK    6  A    between atoms: C5_7  and  C6_8
DOCKED: REMARK    7  A    between atoms: C5_7  and  C7_9
DOCKED: REMARK    8  A    between atoms: N2_12  and  C9_13
DOCKED: REMARK    9  A    between atoms: C9_13  and  C10_14
DOCKED: REMARK   10  A    between atoms: C9_13  and  C17_21
DOCKED: REMARK   11  A    between atoms: C10_14  and  C11_15
DOCKED: REMARK   12  A    between atoms: C17_21  and  O3_22
DOCKED: REMARK   13  A    between atoms: C17_21  and  C18_23
DOCKED: REMARK   14  A    between atoms: C18_23  and  C19_24
DOCKED: REMARK   15  A    between atoms: N3_26  and  C20_27
DOCKED: REMARK   16  A    between atoms: C20_27  and  C21_28
DOCKED: REMARK   17  A    between atoms: C20_27  and  C28_35
DOCKED: REMARK   18  A    between atoms: C21_28  and  C22_29
DOCKED: REMARK   19  A    between atoms: C28_35  and  O5_36
DOCKED: REMARK   20  A    between atoms: C28_35  and  C29_37
DOCKED: REMARK   21  A    between atoms: C29_37  and  C30_38
DOCKED: REMARK   22  A    between atoms: N4_40  and  C31_41
DOCKED: REMARK   23  A    between atoms: C31_41  and  C32_42
DOCKED: REMARK   24  A    between atoms: C31_41  and  C41_55
DOCKED: REMARK   25  A    between atoms: N5_44  and  C33_45
DOCKED: REMARK   26  A    between atoms: C33_45  and  C34_46
DOCKED: REMARK   27  A    between atoms: C37_49  and  C38_50
DOCKED: REMARK   28  A    between atoms: C38_50  and  O9_52
DOCKED: REMARK   29  A    between atoms: C41_55  and  C42_56
DOCKED: REMARK   30  A    between atoms: C41_55  and  C43_57
DOCKED: REMARK                            x       y       z     vdW  Elec       q    Type
DOCKED: REMARK                         _______ _______ _______ _____ _____    ______ ____
DOCKED: USER                              x       y       z     vdW  Elec       q    Type
DOCKED: USER                           _______ _______ _______ _____ _____    ______ ____
DOCKED: ROOT
DOCKED: ATOM      1  C20 UNL     1       5.253  -1.847  -2.917 +0.00 +0.00    +0.102 C  
DOCKED: ENDROOT
DOCKED: BRANCH   1   4
DOCKED: ATOM      2  C19 UNL     1       4.828  -3.643  -1.192 +0.00 +0.00    +0.216 C  
DOCKED: ATOM      3  O4  UNL     1       4.854  -2.936  -0.193 +0.00 -0.00    -0.276 OA 
DOCKED: ATOM      4  N3  UNL     1       4.812  -3.181  -2.500 +0.00 -0.00    -0.310 N  
DOCKED: ATOM      5  H28 UNL     1       5.033  -3.897  -3.186 +0.00 +0.00    +0.149 HD 
DOCKED: BRANCH   2   6
DOCKED: ATOM      6  C18 UNL     1       4.719  -5.150  -1.104 +0.00 +0.00    +0.129 C  
DOCKED: BRANCH   6   7
DOCKED: ATOM      7  C17 UNL     1       5.714  -5.875  -2.002 +0.00 +0.00    +0.144 C  
DOCKED: BRANCH   7   8
DOCKED: ATOM      8  O3  UNL     1       6.571  -4.863  -2.575 +0.00 -0.00    -0.389 OA 
DOCKED: ATOM      9  H25 UNL     1       6.372  -4.840  -3.530 +0.00 +0.00    +0.210 HD 
DOCKED: ENDBRANCH   7   8
DOCKED: BRANCH   7  10
DOCKED: ATOM     10  C9  UNL     1       5.169  -6.741  -3.171 +0.00 +0.00    +0.106 C  
DOCKED: BRANCH  10  13
DOCKED: ATOM     11  C8  UNL     1       5.514  -7.208  -5.581 +0.00 +0.00    +0.234 C  
DOCKED: ATOM     12  O2  UNL     1       4.384  -7.682  -5.711 +0.00 -0.00    -0.274 OA 
DOCKED: ATOM     13  N2  UNL     1       5.951  -6.642  -4.402 +0.00 -0.00    -0.308 N  
DOCKED: ATOM     14  H15 UNL     1       6.480  -5.773  -4.503 +0.00 +0.00    +0.149 HD 
DOCKED: BRANCH  11  15
DOCKED: ATOM     15  C3  UNL     1       6.591  -7.373  -6.685 +0.00 +0.00    +0.159 C  
DOCKED: BRANCH  15  19
DOCKED: ATOM     16  C1  UNL     1       7.850  -3.829  -7.232 +0.00 +0.00    +0.109 C  
DOCKED: ATOM     17  C2  UNL     1       7.524  -5.081  -6.464 +0.00 +0.00    +0.211 C  
DOCKED: ATOM     18  O1  UNL     1       7.801  -5.207  -5.275 +0.00 -0.00    -0.276 OA 
DOCKED: ATOM     19  N1  UNL     1       6.902  -6.047  -7.213 +0.00 -0.00    -0.304 N  
DOCKED: ATOM     20  H4  UNL     1       6.939  -5.980  -8.227 +0.00 +0.00    +0.149 HD 
DOCKED: ENDBRANCH  15  19
DOCKED: BRANCH  15  21
DOCKED: ATOM     21  C4  UNL     1       7.836  -8.190  -6.318 +0.00 +0.00    +0.034 C  
DOCKED: BRANCH  21  22
DOCKED: ATOM     22  C5  UNL     1       7.614  -9.610  -5.761 +0.00 -0.00    -0.015 C  
DOCKED: ATOM     23  C6  UNL     1       6.327 -10.261  -6.263 +0.00 +0.00    +0.007 C  
DOCKED: ATOM     24  C7  UNL     1       7.559  -9.531  -4.232 +0.00 +0.00    +0.007 C  
DOCKED: ENDBRANCH  21  22
DOCKED: ENDBRANCH  15  21
DOCKED: ENDBRANCH  11  15
DOCKED: ENDBRANCH  10  13
DOCKED: BRANCH  10  25
DOCKED: ATOM     25  C10 UNL     1       4.760  -8.197  -2.824 +0.00 +0.00    +0.060 C  
DOCKED: BRANCH  25  26
DOCKED: ATOM     26  C11 UNL     1       3.293  -8.557  -2.751 +0.00 -0.00    -0.046 A  
DOCKED: ATOM     27  C12 UNL     1       2.635  -9.138  -3.845 +0.00 +0.00    +0.004 A  
DOCKED: ATOM     28  C13 UNL     1       1.276  -9.446  -3.775 +0.00 +0.00    +0.000 A  
DOCKED: ATOM     29  C14 UNL     1       0.550  -9.158  -2.622 +0.00 +0.00    +0.000 A  
DOCKED: ATOM     30  C15 UNL     1       1.182  -8.554  -1.541 +0.00 +0.00    +0.000 A  
DOCKED: ATOM     31  C16 UNL     1       2.541  -8.247  -1.609 +0.00 +0.00    +0.004 A  
DOCKED: ENDBRANCH  25  26
DOCKED: ENDBRANCH  10  25
DOCKED: ENDBRANCH   7  10
DOCKED: ENDBRANCH   6   7
DOCKED: ENDBRANCH   2   6
DOCKED: ENDBRANCH   1   4
DOCKED: BRANCH   1  32
DOCKED: ATOM     32  C21 UNL     1       5.844  -0.965  -1.794 +0.00 +0.00    +0.028 C  
DOCKED: BRANCH  32  33
DOCKED: ATOM     33  C22 UNL     1       5.000   0.203  -1.240 +0.00 -0.00    -0.009 C  
DOCKED: ATOM     34  C23 UNL     1       3.690   0.421  -2.010 +0.00 +0.00    +0.003 C  
DOCKED: ATOM     35  C24 UNL     1       2.986   1.693  -1.539 +0.00 +0.00    +0.000 C  
DOCKED: ATOM     36  C25 UNL     1       2.740   1.678  -0.034 +0.00 +0.00    +0.000 C  
DOCKED: ATOM     37  C26 UNL     1       4.014   1.393   0.753 +0.00 +0.00    +0.000 C  
DOCKED: ATOM     38  C27 UNL     1       4.720   0.127   0.266 +0.00 +0.00    +0.003 C  
DOCKED: ENDBRANCH  32  33
DOCKED: ENDBRANCH   1  32
DOCKED: BRANCH   1  39
DOCKED: ATOM     39  C28 UNL     1       6.228  -1.909  -4.144 +0.00 +0.00    +0.143 C  
DOCKED: BRANCH  39  40
DOCKED: ATOM     40  O5  UNL     1       7.203  -2.937  -4.028 +0.00 -0.00    -0.389 OA 
DOCKED: ATOM     41  H44 UNL     1       6.849  -3.765  -4.412 +0.00 +0.00    +0.210 HD 
DOCKED: ENDBRANCH  39  40
DOCKED: BRANCH  39  42
DOCKED: ATOM     42  C29 UNL     1       5.515  -1.964  -5.504 +0.00 +0.00    +0.129 C  
DOCKED: BRANCH  42  43
DOCKED: ATOM     43  C30 UNL     1       4.756  -3.244  -5.797 +0.00 +0.00    +0.216 C  
DOCKED: ATOM     44  O6  UNL     1       4.970  -4.311  -5.225 +0.00 -0.00    -0.276 OA 
DOCKED: ATOM     45  N4  UNL     1       3.801  -3.096  -6.773 +0.00 -0.00    -0.304 N  
DOCKED: ATOM     46  H47 UNL     1       3.873  -2.297  -7.406 +0.00 +0.00    +0.149 HD 
DOCKED: BRANCH  45  47
DOCKED: ATOM     47  C31 UNL     1       3.005  -4.214  -7.278 +0.00 +0.00    +0.161 C  
DOCKED: BRANCH  47  48
DOCKED: ATOM     48  C32 UNL     1       2.023  -4.632  -6.158 +0.00 +0.00    +0.234 C  
DOCKED: ATOM     49  O7  UNL     1       0.861  -4.223  -6.135 +0.00 -0.00    -0.274 OA 
DOCKED: ATOM     50  N5  UNL     1       2.541  -5.492  -5.214 +0.00 -0.00    -0.310 N  
DOCKED: ATOM     51  H49 UNL     1       3.520  -5.746  -5.246 +0.00 +0.00    +0.149 HD 
DOCKED: BRANCH  50  52
DOCKED: ATOM     52  C33 UNL     1       1.786  -5.877  -4.042 +0.00 +0.00    +0.139 C  
DOCKED: BRANCH  52  53
DOCKED: ATOM     53  C34 UNL     1       1.761  -4.770  -3.018 +0.00 -0.00    -0.030 A  
DOCKED: ATOM     54  C35 UNL     1       1.516  -5.068  -1.670 +0.00 +0.00    +0.006 A  
DOCKED: ATOM     55  C36 UNL     1       1.441  -4.046  -0.721 +0.00 +0.00    +0.015 A  
DOCKED: ATOM     56  C37 UNL     1       1.590  -2.709  -1.110 +0.00 +0.00    +0.059 A  
DOCKED: ATOM     57  C39 UNL     1       1.838  -2.404  -2.454 +0.00 +0.00    +0.015 A  
DOCKED: ATOM     58  C40 UNL     1       1.922  -3.428  -3.403 +0.00 +0.00    +0.006 A  
DOCKED: BRANCH  56  59
DOCKED: ATOM     59  C38 UNL     1       1.485  -1.663  -0.064 +0.00 +0.00    +0.337 C  
DOCKED: ATOM     60  O8  UNL     1       0.689  -0.744  -0.057 +0.00 -0.00    -0.245 OA 
DOCKED: BRANCH  59  61
DOCKED: ATOM     61  O9  UNL     1       2.390  -1.815   0.919 +0.00 -0.00    -0.477 OA 
DOCKED: ATOM     62  H54 UNL     1       3.219  -2.026   0.436 +0.00 +0.00    +0.295 HD 
DOCKED: ENDBRANCH  59  61
DOCKED: ENDBRANCH  56  59
DOCKED: ENDBRANCH  52  53
DOCKED: ENDBRANCH  50  52
DOCKED: ENDBRANCH  47  48
DOCKED: BRANCH  47  63
DOCKED: ATOM     63  C41 UNL     1       3.895  -5.385  -7.758 +0.00 +0.00    +0.012 C  
DOCKED: ATOM     64  C42 UNL     1       3.052  -6.627  -8.071 +0.00 +0.00    +0.009 C  
DOCKED: ATOM     65  C43 UNL     1       4.758  -5.016  -8.973 +0.00 +0.00    +0.009 C  
DOCKED: ENDBRANCH  47  63
DOCKED: ENDBRANCH  45  47
DOCKED: ENDBRANCH  42  43
DOCKED: ENDBRANCH  39  42
DOCKED: ENDBRANCH   1  39
DOCKED: TORSDOF 25
DOCKED: TER
DOCKED: ENDMDL
________________________________________________________________________________


    FINAL DOCKED STATE:
    ________________________


Run:   17 / 20
Time taken for this run:   3.634s

DOCKED: MODEL        17
DOCKED: USER    Run = 17
DOCKED: USER
DOCKED: USER    Estimated Free Energy of Binding    =  +7.46 kcal/mol  [=(1)+(2)+(3)-(4)]
DOCKED: USER
DOCKED: USER    (1) Final Intermolecular Energy     =  +0.00 kcal/mol
DOCKED: USER        vdW + Hbond + desolv Energy     =  +0.00 kcal/mol
DOCKED: USER        Electrostatic Energy            =  +0.00 kcal/mol
DOCKED: USER        Moving Ligand-Fixed Receptor    =  +0.00 kcal/mol
DOCKED: USER        Moving Ligand-Moving Receptor   =  +0.00 kcal/mol
DOCKED: USER    (2) Final Total Internal Energy     = -18.14 kcal/mol
DOCKED: USER    (3) Torsional Free Energy           =  +7.46 kcal/mol
DOCKED: USER    (4) Unbound System's Energy         = -18.14 kcal/mol
DOCKED: USER
DOCKED: USER
DOCKED: REMARK  Name = ligands/ligand_17.pdb
DOCKED: REMARK  30 active torsions:
DOCKED: REMARK  status: ('A' for Active; 'I' for Inactive)
DOCKED: REMARK    1  A    between atoms: C1_1  and  C2_2
DOCKED: REMARK    2  A    between atoms: N1_4  and  C3_5
DOCKED: REMARK    3  A    between atoms: C3_5  and  C4_6
DOCKED: REMARK    4  A    between atoms: C3_5  and  C8_10
DOCKED: REMARK    5  A    between atoms: C4_6  and  C5_7
DOCKED: REMARK    6  A    between atoms: C5_7  and  C6_8
DOCKED: REMARK    7  A    between atoms: C5_7  and  C7_9
DOCKED: REMARK    8  A    between atoms: N2_12  and  C9_13
DOCKED: REMARK    9  A    between atoms: C9_13  and  C10_14
DOCKED: REMARK   10  A    between atoms: C9_13  and  C17_21
DOCKED: REMARK   11  A    between atoms: C10_14  and  C11_15
DOCKED: REMARK   12  A    between atoms: C17_21  and  O3_22
DOCKED: REMARK   13  A    between atoms: C17_21  and  C18_23
DOCKED: REMARK   14  A    between atoms: C18_23  and  C19_24
DOCKED: REMARK   15  A    between atoms: N3_26  and  C20_27
DOCKED: REMARK   16  A    between atoms: C20_27  and  C21_28
DOCKED: REMARK   17  A    between atoms: C20_27  and  C28_35
DOCKED: REMARK   18  A    between atoms: C21_28  and  C22_29
DOCKED: REMARK   19  A    between atoms: C28_35  and  O5_36
DOCKED: REMARK   20  A    between atoms: C28_35  and  C29_37
DOCKED: REMARK   21  A    between atoms: C29_37  and  C30_38
DOCKED: REMARK   22  A    between atoms: N4_40  and  C31_41
DOCKED: REMARK   23  A    between atoms: C31_41  and  C32_42
DOCKED: REMARK   24  A    between atoms: C31_41  and  C41_55
DOCKED: REMARK   25  A    between atoms: N5_44  and  C33_45
DOCKED: REMARK   26  A    between atoms: C33_45  and  C34_46
DOCKED: REMARK   27  A    between atoms: C37_49  and  C38_50
DOCKED: REMARK   28  A    between atoms: C38_50  and  O9_52
DOCKED: REMARK   29  A    between atoms: C41_55  and  C42_56
DOCKED: REMARK   30  A    between atoms: C41_55  and  C43_57
DOCKED: REMARK                            x       y       z     vdW  Elec       q    Type
DOCKED: REMARK                         _______ _______ _______ _____ _____    ______ ____
DOCKED: USER                              x       y       z     vdW  Elec       q    Type
DOCKED: USER                           _______ _______ _______ _____ _____    ______ ____
DOCKED: ROOT
DOCKED: ATOM      1  C20 UNL     1      13.820  -7.078   3.850 +0.00 +0.00    +0.102 C  
DOCKED: ENDROOT
DOCKED: BRANCH   1   4
DOCKED: ATOM      2  C19 UNL     1      13.231  -9.478   3.325 +0.00 +0.00    +0.216 C  
DOCKED: ATOM      3  O4  UNL     1      13.095  -9.881   4.473 +0.00 -0.00    -0.276 OA 
DOCKED: ATOM      4  N3  UNL     1      13.376  -8.149   2.954 +0.00 -0.00    -0.310 N  
DOCKED: ATOM      5  H28 UNL     1      13.715  -8.028   2.003 +0.00 +0.00    +0.149 HD 
DOCKED: BRANCH   2   6
DOCKED: ATOM      6  C18 UNL     1      13.168 -10.413   2.136 +0.00 +0.00    +0.129 C  
DOCKED: BRANCH   6   7
DOCKED: ATOM      7  C17 UNL     1      13.398  -9.706   0.806 +0.00 +0.00    +0.144 C  
DOCKED: BRANCH   7   8
DOCKED: ATOM      8  O3  UNL     1      14.691  -9.068   0.893 +0.00 -0.00    -0.389 OA 
DOCKED: ATOM      9  H25 UNL     1      14.530  -8.107   0.854 +0.00 +0.00    +0.210 HD 
DOCKED: ENDBRANCH   7   8
DOCKED: BRANCH   7  10
DOCKED: ATOM     10  C9  UNL     1      12.377  -8.628   0.349 +0.00 +0.00    +0.106 C  
DOCKED: BRANCH  10  13
DOCKED: ATOM     11  C8  UNL     1      13.134  -6.280   0.110 +0.00 +0.00    +0.234 C  
DOCKED: ATOM     12  O2  UNL     1      12.953  -6.038   1.305 +0.00 -0.00    -0.274 OA 
DOCKED: ATOM     13  N2  UNL     1      12.967  -7.539  -0.427 +0.00 -0.00    -0.308 N  
DOCKED: ATOM     14  H15 UNL     1      13.685  -7.830  -1.093 +0.00 +0.00    +0.149 HD 
DOCKED: BRANCH  11  15
DOCKED: ATOM     15  C3  UNL     1      13.395  -5.144  -0.914 +0.00 +0.00    +0.159 C  
DOCKED: BRANCH  15  19
DOCKED: ATOM     16  C1  UNL     1      17.192  -5.193  -0.764 +0.00 +0.00    +0.109 C  
DOCKED: ATOM     17  C2  UNL     1      15.794  -5.744  -0.682 +0.00 +0.00    +0.211 C  
DOCKED: ATOM     18  O1  UNL     1      15.574  -6.934  -0.479 +0.00 -0.00    -0.276 OA 
DOCKED: ATOM     19  N1  UNL     1      14.814  -4.801  -0.857 +0.00 -0.00    -0.304 N  
DOCKED: ATOM     20  H4  UNL     1      15.062  -3.906  -1.271 +0.00 +0.00    +0.149 HD 
DOCKED: ENDBRANCH  15  19
DOCKED: BRANCH  15  21
DOCKED: ATOM     21  C4  UNL     1      12.879  -5.370  -2.341 +0.00 +0.00    +0.034 C  
DOCKED: BRANCH  21  22
DOCKED: ATOM     22  C5  UNL     1      11.461  -4.864  -2.672 +0.00 -0.00    -0.015 C  
DOCKED: ATOM     23  C6  UNL     1      10.784  -4.154  -1.501 +0.00 +0.00    +0.007 C  
DOCKED: ATOM     24  C7  UNL     1      10.599  -6.063  -3.081 +0.00 +0.00    +0.007 C  
DOCKED: ENDBRANCH  21  22
DOCKED: ENDBRANCH  15  21
DOCKED: ENDBRANCH  11  15
DOCKED: ENDBRANCH  10  13
DOCKED: BRANCH  10  25
DOCKED: ATOM     25  C10 UNL     1      11.041  -9.146  -0.246 +0.00 +0.00    +0.060 C  
DOCKED: BRANCH  25  26
DOCKED: ATOM     26  C11 UNL     1       9.755  -8.418   0.078 +0.00 -0.00    -0.046 A  
DOCKED: ATOM     27  C12 UNL     1       9.677  -7.019   0.007 +0.00 +0.00    +0.004 A  
DOCKED: ATOM     28  C13 UNL     1       8.493  -6.355   0.328 +0.00 +0.00    +0.000 A  
DOCKED: ATOM     29  C14 UNL     1       7.378  -7.076   0.748 +0.00 +0.00    +0.000 A  
DOCKED: ATOM     30  C15 UNL     1       7.449  -8.460   0.852 +0.00 +0.00    +0.000 A  
DOCKED: ATOM     31  C16 UNL     1       8.632  -9.125   0.529 +0.00 +0.00    +0.004 A  
DOCKED: ENDBRANCH  25  26
DOCKED: ENDBRANCH  10  25
DOCKED: ENDBRANCH   7  10
DOCKED: ENDBRANCH   6   7
DOCKED: ENDBRANCH   2   6
DOCKED: ENDBRANCH   1   4
DOCKED: BRANCH   1  32
DOCKED: ATOM     32  C21 UNL     1      13.760  -7.411   5.358 +0.00 +0.00    +0.028 C  
DOCKED: BRANCH  32  33
DOCKED: ATOM     33  C22 UNL     1      12.616  -6.819   6.208 +0.00 -0.00    -0.009 C  
DOCKED: ATOM     34  C23 UNL     1      12.227  -7.704   7.401 +0.00 +0.00    +0.003 C  
DOCKED: ATOM     35  C24 UNL     1      10.979  -7.163   8.098 +0.00 +0.00    +0.000 C  
DOCKED: ATOM     36  C25 UNL     1      11.157  -5.711   8.529 +0.00 +0.00    +0.000 C  
DOCKED: ATOM     37  C26 UNL     1      11.612  -4.822   7.378 +0.00 +0.00    +0.000 C  
DOCKED: ATOM     38  C27 UNL     1      12.852  -5.377   6.676 +0.00 +0.00    +0.003 C  
DOCKED: ENDBRANCH  32  33
DOCKED: ENDBRANCH   1  32
DOCKED: BRANCH   1  39
DOCKED: ATOM     39  C28 UNL     1      15.238  -6.536   3.458 +0.00 +0.00    +0.143 C  
DOCKED: BRANCH  39  40
DOCKED: ATOM     40  O5  UNL     1      15.442  -6.476   2.052 +0.00 -0.00    -0.389 OA 
DOCKED: ATOM     41  H44 UNL     1      14.775  -7.035   1.603 +0.00 +0.00    +0.210 HD 
DOCKED: ENDBRANCH  39  40
DOCKED: BRANCH  39  42
DOCKED: ATOM     42  C29 UNL     1      15.606  -5.206   4.134 +0.00 +0.00    +0.129 C  
DOCKED: BRANCH  42  43
DOCKED: ATOM     43  C30 UNL     1      14.621  -4.070   3.930 +0.00 +0.00    +0.216 C  
DOCKED: ATOM     44  O6  UNL     1      14.160  -3.393   4.846 +0.00 -0.00    -0.276 OA 
DOCKED: ATOM     45  N4  UNL     1      14.290  -3.872   2.612 +0.00 -0.00    -0.304 N  
DOCKED: ATOM     46  H47 UNL     1      14.457  -4.632   1.949 +0.00 +0.00    +0.149 HD 
DOCKED: BRANCH  45  47
DOCKED: ATOM     47  C31 UNL     1      13.295  -2.889   2.185 +0.00 +0.00    +0.161 C  
DOCKED: BRANCH  47  48
DOCKED: ATOM     48  C32 UNL     1      11.897  -3.512   2.411 +0.00 +0.00    +0.234 C  
DOCKED: ATOM     49  O7  UNL     1      11.223  -3.939   1.472 +0.00 -0.00    -0.274 OA 
DOCKED: ATOM     50  N5  UNL     1      11.482  -3.563   3.724 +0.00 -0.00    -0.310 N  
DOCKED: ATOM     51  H49 UNL     1      12.048  -3.141   4.449 +0.00 +0.00    +0.149 HD 
DOCKED: BRANCH  50  52
DOCKED: ATOM     52  C33 UNL     1      10.153  -4.006   4.084 +0.00 +0.00    +0.139 C  
DOCKED: BRANCH  52  53
DOCKED: ATOM     53  C34 UNL     1      10.079  -5.510   4.158 +0.00 -0.00    -0.030 A  
DOCKED: ATOM     54  C35 UNL     1      10.643  -6.290   3.140 +0.00 +0.00    +0.006 A  
DOCKED: ATOM     55  C36 UNL     1      10.536  -7.682   3.172 +0.00 +0.00    +0.015 A  
DOCKED: ATOM     56  C37 UNL     1       9.846  -8.314   4.214 +0.00 +0.00    +0.059 A  
DOCKED: ATOM     57  C39 UNL     1       9.282  -7.542   5.237 +0.00 +0.00    +0.015 A  
DOCKED: ATOM     58  C40 UNL     1       9.397  -6.148   5.209 +0.00 +0.00    +0.006 A  
DOCKED: BRANCH  56  59
DOCKED: ATOM     59  C38 UNL     1       9.750  -9.794   4.191 +0.00 +0.00    +0.337 C  
DOCKED: ATOM     60  O8  UNL     1       9.106 -10.450   3.395 +0.00 -0.00    -0.245 OA 
DOCKED: BRANCH  59  61
DOCKED: ATOM     61  O9  UNL     1      10.460 -10.378   5.171 +0.00 -0.00    -0.477 OA 
DOCKED: ATOM     62  H54 UNL     1      11.386 -10.123   4.966 +0.00 +0.00    +0.295 HD 
DOCKED: ENDBRANCH  59  61
DOCKED: ENDBRANCH  56  59
DOCKED: ENDBRANCH  52  53
DOCKED: ENDBRANCH  50  52
DOCKED: ENDBRANCH  47  48
DOCKED: BRANCH  47  63
DOCKED: ATOM     63  C41 UNL     1      13.518  -2.440   0.721 +0.00 +0.00    +0.012 C  
DOCKED: ATOM     64  C42 UNL     1      12.469  -1.408   0.294 +0.00 +0.00    +0.009 C  
DOCKED: ATOM     65  C43 UNL     1      14.929  -1.886   0.479 +0.00 +0.00    +0.009 C  
DOCKED: ENDBRANCH  47  63
DOCKED: ENDBRANCH  45  47
DOCKED: ENDBRANCH  42  43
DOCKED: ENDBRANCH  39  42
DOCKED: ENDBRANCH   1  39
DOCKED: TORSDOF 25
DOCKED: TER
DOCKED: ENDMDL
________________________________________________________________________________


    FINAL DOCKED STATE:
    ________________________


Run:   18 / 20
Time taken for this run:   3.634s

DOCKED: MODEL        18
DOCKED: USER    Run = 18
DOCKED: USER
DOCKED: USER    Estimated Free Energy of Binding    =  +7.46 kcal/mol  [=(1)+(2)+(3)-(4)]
DOCKED: USER
DOCKED: USER    (1) Final Intermolecular Energy     =  +0.00 kcal/mol
DOCKED: USER        vdW + Hbond + desolv Energy     =  +0.00 kcal/mol
DOCKED: USER        Electrostatic Energy            =  +0.00 kcal/mol
DOCKED: USER        Moving Ligand-Fixed Receptor    =  +0.00 kcal/mol
DOCKED: USER        Moving Ligand-Moving Receptor   =  +0.00 kcal/mol
DOCKED: USER    (2) Final Total Internal Energy     = -17.29 kcal/mol
DOCKED: USER    (3) Torsional Free Energy           =  +7.46 kcal/mol
DOCKED: USER    (4) Unbound System's Energy         = -17.29 kcal/mol
DOCKED: USER
DOCKED: USER
DOCKED: REMARK  Name = ligands/ligand_17.pdb
DOCKED: REMARK  30 active torsions:
DOCKED: REMARK  status: ('A' for Active; 'I' for Inactive)
DOCKED: REMARK    1  A    between atoms: C1_1  and  C2_2
DOCKED: REMARK    2  A    between atoms: N1_4  and  C3_5
DOCKED: REMARK    3  A    between atoms: C3_5  and  C4_6
DOCKED: REMARK    4  A    between atoms: C3_5  and  C8_10
DOCKED: REMARK    5  A    between atoms: C4_6  and  C5_7
DOCKED: REMARK    6  A    between atoms: C5_7  and  C6_8
DOCKED: REMARK    7  A    between atoms: C5_7  and  C7_9
DOCKED: REMARK    8  A    between atoms: N2_12  and  C9_13
DOCKED: REMARK    9  A    between atoms: C9_13  and  C10_14
DOCKED: REMARK   10  A    between atoms: C9_13  and  C17_21
DOCKED: REMARK   11  A    between atoms: C10_14  and  C11_15
DOCKED: REMARK   12  A    between atoms: C17_21  and  O3_22
DOCKED: REMARK   13  A    between atoms: C17_21  and  C18_23
DOCKED: REMARK   14  A    between atoms: C18_23  and  C19_24
DOCKED: REMARK   15  A    between atoms: N3_26  and  C20_27
DOCKED: REMARK   16  A    between atoms: C20_27  and  C21_28
DOCKED: REMARK   17  A    between atoms: C20_27  and  C28_35
DOCKED: REMARK   18  A    between atoms: C21_28  and  C22_29
DOCKED: REMARK   19  A    between atoms: C28_35  and  O5_36
DOCKED: REMARK   20  A    between atoms: C28_35  and  C29_37
DOCKED: REMARK   21  A    between atoms: C29_37  and  C30_38
DOCKED: REMARK   22  A    between atoms: N4_40  and  C31_41
DOCKED: REMARK   23  A    between atoms: C31_41  and  C32_42
DOCKED: REMARK   24  A    between atoms: C31_41  and  C41_55
DOCKED: REMARK   25  A    between atoms: N5_44  and  C33_45
DOCKED: REMARK   26  A    between atoms: C33_45  and  C34_46
DOCKED: REMARK   27  A    between atoms: C37_49  and  C38_50
DOCKED: REMARK   28  A    between atoms: C38_50  and  O9_52
DOCKED: REMARK   29  A    between atoms: C41_55  and  C42_56
DOCKED: REMARK   30  A    between atoms: C41_55  and  C43_57
DOCKED: REMARK                            x       y       z     vdW  Elec       q    Type
DOCKED: REMARK                         _______ _______ _______ _____ _____    ______ ____
DOCKED: USER                              x       y       z     vdW  Elec       q    Type
DOCKED: USER                           _______ _______ _______ _____ _____    ______ ____
DOCKED: ROOT
DOCKED: ATOM      1  C20 UNL     1       9.064  -7.218   0.225 +0.00 +0.00    +0.102 C  
DOCKED: ENDROOT
DOCKED: BRANCH   1   4
DOCKED: ATOM      2  C19 UNL     1      11.024  -8.799   0.429 +0.00 +0.00    +0.216 C  
DOCKED: ATOM      3  O4  UNL     1      10.582  -9.715  -0.254 +0.00 -0.00    -0.276 OA 
DOCKED: ATOM      4  N3  UNL     1      10.460  -7.536   0.535 +0.00 -0.00    -0.310 N  
DOCKED: ATOM      5  H28 UNL     1      10.818  -6.997   1.319 +0.00 +0.00    +0.149 HD 
DOCKED: BRANCH   2   6
DOCKED: ATOM      6  C18 UNL     1      12.327  -8.923   1.189 +0.00 +0.00    +0.129 C  
DOCKED: BRANCH   6   7
DOCKED: ATOM      7  C17 UNL     1      12.147  -8.849   2.700 +0.00 +0.00    +0.144 C  
DOCKED: BRANCH   7   8
DOCKED: ATOM      8  O3  UNL     1      10.777  -8.456   2.936 +0.00 -0.00    -0.389 OA 
DOCKED: ATOM      9  H25 UNL     1      10.759  -7.481   2.907 +0.00 +0.00    +0.210 HD 
DOCKED: ENDBRANCH   7   8
DOCKED: BRANCH   7  10
DOCKED: ATOM     10  C9  UNL     1      13.055  -7.885   3.511 +0.00 +0.00    +0.106 C  
DOCKED: BRANCH  10  13
DOCKED: ATOM     11  C8  UNL     1      13.171  -5.451   3.054 +0.00 +0.00    +0.234 C  
DOCKED: ATOM     12  O2  UNL     1      14.122  -5.582   2.281 +0.00 -0.00    -0.274 OA 
DOCKED: ATOM     13  N2  UNL     1      12.528  -6.527   3.630 +0.00 -0.00    -0.308 N  
DOCKED: ATOM     14  H15 UNL     1      11.508  -6.466   3.655 +0.00 +0.00    +0.149 HD 
DOCKED: BRANCH  11  15
DOCKED: ATOM     15  C3  UNL     1      12.739  -4.056   3.574 +0.00 +0.00    +0.159 C  
DOCKED: BRANCH  15  19
DOCKED: ATOM     16  C1  UNL     1       9.901  -3.402   1.133 +0.00 +0.00    +0.109 C  
DOCKED: ATOM     17  C2  UNL     1      10.812  -4.213   2.014 +0.00 +0.00    +0.211 C  
DOCKED: ATOM     18  O1  UNL     1      10.657  -5.419   2.177 +0.00 -0.00    -0.276 OA 
DOCKED: ATOM     19  N1  UNL     1      11.809  -3.480   2.605 +0.00 -0.00    -0.304 N  
DOCKED: ATOM     20  H4  UNL     1      11.724  -2.467   2.634 +0.00 +0.00    +0.149 HD 
DOCKED: ENDBRANCH  15  19
DOCKED: BRANCH  15  21
DOCKED: ATOM     21  C4  UNL     1      12.231  -3.985   5.021 +0.00 +0.00    +0.034 C  
DOCKED: BRANCH  21  22
DOCKED: ATOM     22  C5  UNL     1      10.713  -3.824   5.233 +0.00 -0.00    -0.015 C  
DOCKED: ATOM     23  C6  UNL     1      10.254  -2.367   5.229 +0.00 +0.00    +0.007 C  
DOCKED: ATOM     24  C7  UNL     1      10.340  -4.450   6.581 +0.00 +0.00    +0.007 C  
DOCKED: ENDBRANCH  21  22
DOCKED: ENDBRANCH  15  21
DOCKED: ENDBRANCH  11  15
DOCKED: ENDBRANCH  10  13
DOCKED: BRANCH  10  25
DOCKED: ATOM     25  C10 UNL     1      13.633  -8.433   4.844 +0.00 +0.00    +0.060 C  
DOCKED: BRANCH  25  26
DOCKED: ATOM     26  C11 UNL     1      12.722  -8.574   6.042 +0.00 -0.00    -0.046 A  
DOCKED: ATOM     27  C12 UNL     1      12.385  -9.838   6.551 +0.00 +0.00    +0.004 A  
DOCKED: ATOM     28  C13 UNL     1      11.527  -9.959   7.643 +0.00 +0.00    +0.000 A  
DOCKED: ATOM     29  C14 UNL     1      10.973  -8.823   8.230 +0.00 +0.00    +0.000 A  
DOCKED: ATOM     30  C15 UNL     1      11.273  -7.566   7.718 +0.00 +0.00    +0.000 A  
DOCKED: ATOM     31  C16 UNL     1      12.133  -7.444   6.626 +0.00 +0.00    +0.004 A  
DOCKED: ENDBRANCH  25  26
DOCKED: ENDBRANCH  10  25
DOCKED: ENDBRANCH   7  10
DOCKED: ENDBRANCH   6   7
DOCKED: ENDBRANCH   2   6
DOCKED: ENDBRANCH   1   4
DOCKED: BRANCH   1  32
DOCKED: ATOM     32  C21 UNL     1       8.575  -7.679  -1.167 +0.00 +0.00    +0.028 C  
DOCKED: BRANCH  32  33
DOCKED: ATOM     33  C22 UNL     1       8.009  -9.106  -1.324 +0.00 -0.00    -0.009 C  
DOCKED: ATOM     34  C23 UNL     1       6.533  -9.220  -0.918 +0.00 +0.00    +0.003 C  
DOCKED: ATOM     35  C24 UNL     1       6.077 -10.679  -0.920 +0.00 +0.00    +0.000 C  
DOCKED: ATOM     36  C25 UNL     1       6.327 -11.346  -2.268 +0.00 +0.00    +0.000 C  
DOCKED: ATOM     37  C26 UNL     1       7.771 -11.187  -2.729 +0.00 +0.00    +0.000 C  
DOCKED: ATOM     38  C27 UNL     1       8.224  -9.727  -2.710 +0.00 +0.00    +0.003 C  
DOCKED: ENDBRANCH  32  33
DOCKED: ENDBRANCH   1  32
DOCKED: BRANCH   1  39
DOCKED: ATOM     39  C28 UNL     1       8.087  -7.713   1.347 +0.00 +0.00    +0.143 C  
DOCKED: BRANCH  39  40
DOCKED: ATOM     40  O5  UNL     1       8.442  -8.986   1.873 +0.00 -0.00    -0.389 OA 
DOCKED: ATOM     41  H44 UNL     1       9.319  -9.247   1.526 +0.00 +0.00    +0.210 HD 
DOCKED: ENDBRANCH  39  40
DOCKED: BRANCH  39  42
DOCKED: ATOM     42  C29 UNL     1       7.856  -6.688   2.469 +0.00 +0.00    +0.129 C  
DOCKED: BRANCH  42  43
DOCKED: ATOM     43  C30 UNL     1       8.571  -6.973   3.776 +0.00 +0.00    +0.216 C  
DOCKED: ATOM     44  O6  UNL     1       9.480  -6.277   4.223 +0.00 -0.00    -0.276 OA 
DOCKED: ATOM     45  N4  UNL     1       8.101  -8.094   4.417 +0.00 -0.00    -0.304 N  
DOCKED: ATOM     46  H47 UNL     1       7.576  -8.781   3.872 +0.00 +0.00    +0.149 HD 
DOCKED: BRANCH  45  47
DOCKED: ATOM     47  C31 UNL     1       8.696  -8.608   5.650 +0.00 +0.00    +0.161 C  
DOCKED: BRANCH  47  48
DOCKED: ATOM     48  C32 UNL     1       8.929 -10.126   5.457 +0.00 +0.00    +0.234 C  
DOCKED: ATOM     49  O7  UNL     1       8.718 -10.930   6.365 +0.00 -0.00    -0.274 OA 
DOCKED: ATOM     50  N5  UNL     1       9.370 -10.497   4.205 +0.00 -0.00    -0.310 N  
DOCKED: ATOM     51  H49 UNL     1       9.587  -9.789   3.516 +0.00 +0.00    +0.149 HD 
DOCKED: BRANCH  50  52
DOCKED: ATOM     52  C33 UNL     1       9.747 -11.862   3.907 +0.00 +0.00    +0.139 C  
DOCKED: BRANCH  52  53
DOCKED: ATOM     53  C34 UNL     1       9.968 -12.058   2.428 +0.00 -0.00    -0.030 A  
DOCKED: ATOM     54  C35 UNL     1       8.871 -12.099   1.556 +0.00 +0.00    +0.006 A  
DOCKED: ATOM     55  C36 UNL     1       9.059 -12.331   0.192 +0.00 +0.00    +0.015 A  
DOCKED: ATOM     56  C37 UNL     1      10.347 -12.544  -0.317 +0.00 +0.00    +0.059 A  
DOCKED: ATOM     57  C39 UNL     1      11.447 -12.502   0.547 +0.00 +0.00    +0.015 A  
DOCKED: ATOM     58  C40 UNL     1      11.259 -12.261   1.912 +0.00 +0.00    +0.006 A  
DOCKED: BRANCH  56  59
DOCKED: ATOM     59  C38 UNL     1      10.488 -12.801  -1.771 +0.00 +0.00    +0.337 C  
DOCKED: ATOM     60  O8  UNL     1      10.232 -13.848  -2.334 +0.00 -0.00    -0.245 OA 
DOCKED: BRANCH  59  61
DOCKED: ATOM     61  O9  UNL     1      10.949 -11.735  -2.447 +0.00 -0.00    -0.477 OA 
DOCKED: ATOM     62  H54 UNL     1      10.819 -10.991  -1.819 +0.00 +0.00    +0.295 HD 
DOCKED: ENDBRANCH  59  61
DOCKED: ENDBRANCH  56  59
DOCKED: ENDBRANCH  52  53
DOCKED: ENDBRANCH  50  52
DOCKED: ENDBRANCH  47  48
DOCKED: BRANCH  47  63
DOCKED: ATOM     63  C41 UNL     1       7.823  -8.292   6.887 +0.00 +0.00    +0.012 C  
DOCKED: ATOM     64  C42 UNL     1       7.894  -6.804   7.247 +0.00 +0.00    +0.009 C  
DOCKED: ATOM     65  C43 UNL     1       6.359  -8.719   6.706 +0.00 +0.00    +0.009 C  
DOCKED: ENDBRANCH  47  63
DOCKED: ENDBRANCH  45  47
DOCKED: ENDBRANCH  42  43
DOCKED: ENDBRANCH  39  42
DOCKED: ENDBRANCH   1  39
DOCKED: TORSDOF 25
DOCKED: TER
DOCKED: ENDMDL
________________________________________________________________________________


    FINAL DOCKED STATE:
    ________________________


Run:   19 / 20
Time taken for this run:   3.634s

DOCKED: MODEL        19
DOCKED: USER    Run = 19
DOCKED: USER
DOCKED: USER    Estimated Free Energy of Binding    =  +7.46 kcal/mol  [=(1)+(2)+(3)-(4)]
DOCKED: USER
DOCKED: USER    (1) Final Intermolecular Energy     =  +0.00 kcal/mol
DOCKED: USER        vdW + Hbond + desolv Energy     =  +0.00 kcal/mol
DOCKED: USER        Electrostatic Energy            =  +0.00 kcal/mol
DOCKED: USER        Moving Ligand-Fixed Receptor    =  +0.00 kcal/mol
DOCKED: USER        Moving Ligand-Moving Receptor   =  +0.00 kcal/mol
DOCKED: USER    (2) Final Total Internal Energy     = -18.05 kcal/mol
DOCKED: USER    (3) Torsional Free Energy           =  +7.46 kcal/mol
DOCKED: USER    (4) Unbound System's Energy         = -18.05 kcal/mol
DOCKED: USER
DOCKED: USER
DOCKED: REMARK  Name = ligands/ligand_17.pdb
DOCKED: REMARK  30 active torsions:
DOCKED: REMARK  status: ('A' for Active; 'I' for Inactive)
DOCKED: REMARK    1  A    between atoms: C1_1  and  C2_2
DOCKED: REMARK    2  A    between atoms: N1_4  and  C3_5
DOCKED: REMARK    3  A    between atoms: C3_5  and  C4_6
DOCKED: REMARK    4  A    between atoms: C3_5  and  C8_10
DOCKED: REMARK    5  A    between atoms: C4_6  and  C5_7
DOCKED: REMARK    6  A    between atoms: C5_7  and  C6_8
DOCKED: REMARK    7  A    between atoms: C5_7  and  C7_9
DOCKED: REMARK    8  A    between atoms: N2_12  and  C9_13
DOCKED: REMARK    9  A    between atoms: C9_13  and  C10_14
DOCKED: REMARK   10  A    between atoms: C9_13  and  C17_21
DOCKED: REMARK   11  A    between atoms: C10_14  and  C11_15
DOCKED: REMARK   12  A    between atoms: C17_21  and  O3_22
DOCKED: REMARK   13  A    between atoms: C17_21  and  C18_23
DOCKED: REMARK   14  A    between atoms: C18_23  and  C19_24
DOCKED: REMARK   15  A    between atoms: N3_26  and  C20_27
DOCKED: REMARK   16  A    between atoms: C20_27  and  C21_28
DOCKED: REMARK   17  A    between atoms: C20_27  and  C28_35
DOCKED: REMARK   18  A    between atoms: C21_28  and  C22_29
DOCKED: REMARK   19  A    between atoms: C28_35  and  O5_36
DOCKED: REMARK   20  A    between atoms: C28_35  and  C29_37
DOCKED: REMARK   21  A    between atoms: C29_37  and  C30_38
DOCKED: REMARK   22  A    between atoms: N4_40  and  C31_41
DOCKED: REMARK   23  A    between atoms: C31_41  and  C32_42
DOCKED: REMARK   24  A    between atoms: C31_41  and  C41_55
DOCKED: REMARK   25  A    between atoms: N5_44  and  C33_45
DOCKED: REMARK   26  A    between atoms: C33_45  and  C34_46
DOCKED: REMARK   27  A    between atoms: C37_49  and  C38_50
DOCKED: REMARK   28  A    between atoms: C38_50  and  O9_52
DOCKED: REMARK   29  A    between atoms: C41_55  and  C42_56
DOCKED: REMARK   30  A    between atoms: C41_55  and  C43_57
DOCKED: REMARK                            x       y       z     vdW  Elec       q    Type
DOCKED: REMARK                         _______ _______ _______ _____ _____    ______ ____
DOCKED: USER                              x       y       z     vdW  Elec       q    Type
DOCKED: USER                           _______ _______ _______ _____ _____    ______ ____
DOCKED: ROOT
DOCKED: ATOM      1  C20 UNL     1      12.655  -5.574  -2.895 +0.00 +0.00    +0.102 C  
DOCKED: ENDROOT
DOCKED: BRANCH   1   4
DOCKED: ATOM      2  C19 UNL     1      10.360  -6.626  -2.977 +0.00 +0.00    +0.216 C  
DOCKED: ATOM      3  O4  UNL     1      10.060  -6.303  -4.120 +0.00 -0.00    -0.276 OA 
DOCKED: ATOM      4  N3  UNL     1      11.619  -6.490  -2.411 +0.00 -0.00    -0.310 N  
DOCKED: ATOM      5  H28 UNL     1      11.621  -6.581  -1.399 +0.00 +0.00    +0.149 HD 
DOCKED: BRANCH   2   6
DOCKED: ATOM      6  C18 UNL     1       9.375  -7.311  -2.054 +0.00 +0.00    +0.129 C  
DOCKED: BRANCH   6   7
DOCKED: ATOM      7  C17 UNL     1       9.874  -7.416  -0.618 +0.00 +0.00    +0.144 C  
DOCKED: BRANCH   7   8
DOCKED: ATOM      8  O3  UNL     1      10.309  -6.093  -0.232 +0.00 -0.00    -0.389 OA 
DOCKED: ATOM      9  H25 UNL     1      11.274  -6.145  -0.103 +0.00 +0.00    +0.210 HD 
DOCKED: ENDBRANCH   7   8
DOCKED: BRANCH   7  10
DOCKED: ATOM     10  C9  UNL     1      11.035  -8.398  -0.304 +0.00 +0.00    +0.106 C  
DOCKED: BRANCH  10  13
DOCKED: ATOM     11  C8  UNL     1      13.159  -7.439   0.541 +0.00 +0.00    +0.234 C  
DOCKED: ATOM     12  O2  UNL     1      13.552  -7.158  -0.593 +0.00 -0.00    -0.274 OA 
DOCKED: ATOM     13  N2  UNL     1      11.907  -7.962   0.786 +0.00 -0.00    -0.308 N  
DOCKED: ATOM     14  H15 UNL     1      11.418  -7.569   1.592 +0.00 +0.00    +0.149 HD 
DOCKED: BRANCH  11  15
DOCKED: ATOM     15  C3  UNL     1      14.114  -7.387   1.762 +0.00 +0.00    +0.159 C  
DOCKED: BRANCH  15  19
DOCKED: ATOM     16  C1  UNL     1      13.354  -3.823   2.844 +0.00 +0.00    +0.109 C  
DOCKED: ATOM     17  C2  UNL     1      13.092  -5.171   2.226 +0.00 +0.00    +0.211 C  
DOCKED: ATOM     18  O1  UNL     1      11.992  -5.477   1.775 +0.00 -0.00    -0.276 OA 
DOCKED: ATOM     19  N1  UNL     1      14.182  -6.002   2.224 +0.00 -0.00    -0.304 N  
DOCKED: ATOM     20  H4  UNL     1      14.966  -5.786   2.834 +0.00 +0.00    +0.149 HD 
DOCKED: ENDBRANCH  15  19
DOCKED: BRANCH  15  21
DOCKED: ATOM     21  C4  UNL     1      13.847  -8.392   2.890 +0.00 +0.00    +0.034 C  
DOCKED: BRANCH  21  22
DOCKED: ATOM     22  C5  UNL     1      14.168  -9.873   2.611 +0.00 -0.00    -0.015 C  
DOCKED: ATOM     23  C6  UNL     1      15.003 -10.083   1.349 +0.00 +0.00    +0.007 C  
DOCKED: ATOM     24  C7  UNL     1      12.849 -10.638   2.458 +0.00 +0.00    +0.007 C  
DOCKED: ENDBRANCH  21  22
DOCKED: ENDBRANCH  15  21
DOCKED: ENDBRANCH  11  15
DOCKED: ENDBRANCH  10  13
DOCKED: BRANCH  10  25
DOCKED: ATOM     25  C10 UNL     1      10.668  -9.904  -0.225 +0.00 +0.00    +0.060 C  
DOCKED: BRANCH  25  26
DOCKED: ATOM     26  C11 UNL     1      11.334 -10.878  -1.170 +0.00 -0.00    -0.046 A  
DOCKED: ATOM     27  C12 UNL     1      10.709 -11.273  -2.362 +0.00 +0.00    +0.004 A  
DOCKED: ATOM     28  C13 UNL     1      11.322 -12.189  -3.218 +0.00 +0.00    +0.000 A  
DOCKED: ATOM     29  C14 UNL     1      12.556 -12.741  -2.885 +0.00 +0.00    +0.000 A  
DOCKED: ATOM     30  C15 UNL     1      13.174 -12.383  -1.693 +0.00 +0.00    +0.000 A  
DOCKED: ATOM     31  C16 UNL     1      12.563 -11.466  -0.837 +0.00 +0.00    +0.004 A  
DOCKED: ENDBRANCH  25  26
DOCKED: ENDBRANCH  10  25
DOCKED: ENDBRANCH   7  10
DOCKED: ENDBRANCH   6   7
DOCKED: ENDBRANCH   2   6
DOCKED: ENDBRANCH   1   4
DOCKED: BRANCH   1  32
DOCKED: ATOM     32  C21 UNL     1      12.521  -5.147  -4.375 +0.00 +0.00    +0.028 C  
DOCKED: BRANCH  32  33
DOCKED: ATOM     33  C22 UNL     1      13.685  -5.442  -5.345 +0.00 -0.00    -0.009 C  
DOCKED: ATOM     34  C23 UNL     1      14.865  -6.158  -4.673 +0.00 +0.00    +0.003 C  
DOCKED: ATOM     35  C24 UNL     1      16.054  -6.262  -5.629 +0.00 +0.00    +0.000 C  
DOCKED: ATOM     36  C25 UNL     1      15.670  -6.947  -6.936 +0.00 +0.00    +0.000 C  
DOCKED: ATOM     37  C26 UNL     1      14.455  -6.299  -7.588 +0.00 +0.00    +0.000 C  
DOCKED: ATOM     38  C27 UNL     1      13.275  -6.185  -6.622 +0.00 +0.00    +0.003 C  
DOCKED: ENDBRANCH  32  33
DOCKED: ENDBRANCH   1  32
DOCKED: BRANCH   1  39
DOCKED: ATOM     39  C28 UNL     1      12.808  -4.319  -1.967 +0.00 +0.00    +0.143 C  
DOCKED: BRANCH  39  40
DOCKED: ATOM     40  O5  UNL     1      12.866  -4.652  -0.586 +0.00 -0.00    -0.389 OA 
DOCKED: ATOM     41  H44 UNL     1      12.277  -5.414  -0.411 +0.00 +0.00    +0.210 HD 
DOCKED: ENDBRANCH  39  40
DOCKED: BRANCH  39  42
DOCKED: ATOM     42  C29 UNL     1      13.960  -3.385  -2.367 +0.00 +0.00    +0.129 C  
DOCKED: BRANCH  42  43
DOCKED: ATOM     43  C30 UNL     1      15.355  -3.883  -2.038 +0.00 +0.00    +0.216 C  
DOCKED: ATOM     44  O6  UNL     1      16.382  -3.261  -2.301 +0.00 -0.00    -0.276 OA 
DOCKED: ATOM     45  N4  UNL     1      15.359  -5.106  -1.414 +0.00 -0.00    -0.304 N  
DOCKED: ATOM     46  H47 UNL     1      14.528  -5.696  -1.494 +0.00 +0.00    +0.149 HD 
DOCKED: BRANCH  45  47
DOCKED: ATOM     47  C31 UNL     1      16.591  -5.820  -1.079 +0.00 +0.00    +0.161 C  
DOCKED: BRANCH  47  48
DOCKED: ATOM     48  C32 UNL     1      16.588  -7.150  -1.869 +0.00 +0.00    +0.234 C  
DOCKED: ATOM     49  O7  UNL     1      17.136  -7.248  -2.968 +0.00 -0.00    -0.274 OA 
DOCKED: ATOM     50  N5  UNL     1      15.948  -8.201  -1.247 +0.00 -0.00    -0.310 N  
DOCKED: ATOM     51  H49 UNL     1      15.462  -8.049  -0.373 +0.00 +0.00    +0.149 HD 
DOCKED: BRANCH  50  52
DOCKED: ATOM     52  C33 UNL     1      15.758  -9.473  -1.909 +0.00 +0.00    +0.139 C  
DOCKED: BRANCH  52  53
DOCKED: ATOM     53  C34 UNL     1      14.765  -9.359  -3.039 +0.00 -0.00    -0.030 A  
DOCKED: ATOM     54  C35 UNL     1      13.447  -8.963  -2.775 +0.00 +0.00    +0.006 A  
DOCKED: ATOM     55  C36 UNL     1      12.506  -8.903  -3.805 +0.00 +0.00    +0.015 A  
DOCKED: ATOM     56  C37 UNL     1      12.866  -9.257  -5.112 +0.00 +0.00    +0.059 A  
DOCKED: ATOM     57  C39 UNL     1      14.181  -9.651  -5.384 +0.00 +0.00    +0.015 A  
DOCKED: ATOM     58  C40 UNL     1      15.125  -9.703  -4.353 +0.00 +0.00    +0.006 A  
DOCKED: BRANCH  56  59
DOCKED: ATOM     59  C38 UNL     1      11.823  -9.190  -6.164 +0.00 +0.00    +0.337 C  
DOCKED: ATOM     60  O8  UNL     1      11.991  -9.428  -7.345 +0.00 -0.00    -0.245 OA 
DOCKED: BRANCH  59  61
DOCKED: ATOM     61  O9  UNL     1      10.622  -8.821  -5.686 +0.00 -0.00    -0.477 OA 
DOCKED: ATOM     62  H54 UNL     1      10.761  -7.889  -5.412 +0.00 +0.00    +0.295 HD 
DOCKED: ENDBRANCH  59  61
DOCKED: ENDBRANCH  56  59
DOCKED: ENDBRANCH  52  53
DOCKED: ENDBRANCH  50  52
DOCKED: ENDBRANCH  47  48
DOCKED: BRANCH  47  63
DOCKED: ATOM     63  C41 UNL     1      16.738  -6.032   0.447 +0.00 +0.00    +0.012 C  
DOCKED: ATOM     64  C42 UNL     1      17.956  -6.906   0.767 +0.00 +0.00    +0.009 C  
DOCKED: ATOM     65  C43 UNL     1      16.820  -4.711   1.225 +0.00 +0.00    +0.009 C  
DOCKED: ENDBRANCH  47  63
DOCKED: ENDBRANCH  45  47
DOCKED: ENDBRANCH  42  43
DOCKED: ENDBRANCH  39  42
DOCKED: ENDBRANCH   1  39
DOCKED: TORSDOF 25
DOCKED: TER
DOCKED: ENDMDL
________________________________________________________________________________


    FINAL DOCKED STATE:
    ________________________


Run:   20 / 20
Time taken for this run:   3.634s

DOCKED: MODEL        20
DOCKED: USER    Run = 20
DOCKED: USER
DOCKED: USER    Estimated Free Energy of Binding    =  +7.46 kcal/mol  [=(1)+(2)+(3)-(4)]
DOCKED: USER
DOCKED: USER    (1) Final Intermolecular Energy     =  +0.00 kcal/mol
DOCKED: USER        vdW + Hbond + desolv Energy     =  +0.00 kcal/mol
DOCKED: USER        Electrostatic Energy            =  +0.00 kcal/mol
DOCKED: USER        Moving Ligand-Fixed Receptor    =  +0.00 kcal/mol
DOCKED: USER        Moving Ligand-Moving Receptor   =  +0.00 kcal/mol
DOCKED: USER    (2) Final Total Internal Energy     = -18.00 kcal/mol
DOCKED: USER    (3) Torsional Free Energy           =  +7.46 kcal/mol
DOCKED: USER    (4) Unbound System's Energy         = -18.00 kcal/mol
DOCKED: USER
DOCKED: USER
DOCKED: REMARK  Name = ligands/ligand_17.pdb
DOCKED: REMARK  30 active torsions:
DOCKED: REMARK  status: ('A' for Active; 'I' for Inactive)
DOCKED: REMARK    1  A    between atoms: C1_1  and  C2_2
DOCKED: REMARK    2  A    between atoms: N1_4  and  C3_5
DOCKED: REMARK    3  A    between atoms: C3_5  and  C4_6
DOCKED: REMARK    4  A    between atoms: C3_5  and  C8_10
DOCKED: REMARK    5  A    between atoms: C4_6  and  C5_7
DOCKED: REMARK    6  A    between atoms: C5_7  and  C6_8
DOCKED: REMARK    7  A    between atoms: C5_7  and  C7_9
DOCKED: REMARK    8  A    between atoms: N2_12  and  C9_13
DOCKED: REMARK    9  A    between atoms: C9_13  and  C10_14
DOCKED: REMARK   10  A    between atoms: C9_13  and  C17_21
DOCKED: REMARK   11  A    between atoms: C10_14  and  C11_15
DOCKED: REMARK   12  A    between atoms: C17_21  and  O3_22
DOCKED: REMARK   13  A    between atoms: C17_21  and  C18_23
DOCKED: REMARK   14  A    between atoms: C18_23  and  C19_24
DOCKED: REMARK   15  A    between atoms: N3_26  and  C20_27
DOCKED: REMARK   16  A    between atoms: C20_27  and  C21_28
DOCKED: REMARK   17  A    between atoms: C20_27  and  C28_35
DOCKED: REMARK   18  A    between atoms: C21_28  and  C22_29
DOCKED: REMARK   19  A    between atoms: C28_35  and  O5_36
DOCKED: REMARK   20  A    between atoms: C28_35  and  C29_37
DOCKED: REMARK   21  A    between atoms: C29_37  and  C30_38
DOCKED: REMARK   22  A    between atoms: N4_40  and  C31_41
DOCKED: REMARK   23  A    between atoms: C31_41  and  C32_42
DOCKED: REMARK   24  A    between atoms: C31_41  and  C41_55
DOCKED: REMARK   25  A    between atoms: N5_44  and  C33_45
DOCKED: REMARK   26  A    between atoms: C33_45  and  C34_46
DOCKED: REMARK   27  A    between atoms: C37_49  and  C38_50
DOCKED: REMARK   28  A    between atoms: C38_50  and  O9_52
DOCKED: REMARK   29  A    between atoms: C41_55  and  C42_56
DOCKED: REMARK   30  A    between atoms: C41_55  and  C43_57
DOCKED: REMARK                            x       y       z     vdW  Elec       q    Type
DOCKED: REMARK                         _______ _______ _______ _____ _____    ______ ____
DOCKED: USER                              x       y       z     vdW  Elec       q    Type
DOCKED: USER                           _______ _______ _______ _____ _____    ______ ____
DOCKED: ROOT
DOCKED: ATOM      1  C20 UNL     1      11.803  -5.010   3.579 +0.00 +0.00    +0.102 C  
DOCKED: ENDROOT
DOCKED: BRANCH   1   4
DOCKED: ATOM      2  C19 UNL     1      12.202  -7.354   4.433 +0.00 +0.00    +0.216 C  
DOCKED: ATOM      3  O4  UNL     1      12.909  -7.073   5.393 +0.00 -0.00    -0.276 OA 
DOCKED: ATOM      4  N3  UNL     1      11.497  -6.440   3.664 +0.00 -0.00    -0.310 N  
DOCKED: ATOM      5  H28 UNL     1      11.169  -6.822   2.780 +0.00 +0.00    +0.149 HD 
DOCKED: BRANCH   2   6
DOCKED: ATOM      6  C18 UNL     1      11.945  -8.787   4.021 +0.00 +0.00    +0.129 C  
DOCKED: BRANCH   6   7
DOCKED: ATOM      7  C17 UNL     1      10.993  -8.908   2.837 +0.00 +0.00    +0.144 C  
DOCKED: BRANCH   7   8
DOCKED: ATOM      8  O3  UNL     1      11.551  -8.106   1.772 +0.00 -0.00    -0.389 OA 
DOCKED: ATOM      9  H25 UNL     1      10.903  -7.402   1.586 +0.00 +0.00    +0.210 HD 
DOCKED: ENDBRANCH   7   8
DOCKED: BRANCH   7  10
DOCKED: ATOM     10  C9  UNL     1       9.514  -8.470   3.024 +0.00 +0.00    +0.106 C  
DOCKED: BRANCH  10  13
DOCKED: ATOM     11  C8  UNL     1       8.693  -6.587   1.636 +0.00 +0.00    +0.234 C  
DOCKED: ATOM     12  O2  UNL     1       9.166  -5.742   2.400 +0.00 -0.00    -0.274 OA 
DOCKED: ATOM     13  N2  UNL     1       8.892  -7.940   1.812 +0.00 -0.00    -0.308 N  
DOCKED: ATOM     14  H15 UNL     1       9.099  -8.467   0.960 +0.00 +0.00    +0.149 HD 
DOCKED: BRANCH  11  15
DOCKED: ATOM     15  C3  UNL     1       7.692  -6.196   0.519 +0.00 +0.00    +0.159 C  
DOCKED: BRANCH  15  19
DOCKED: ATOM     16  C1  UNL     1      10.234  -5.707  -2.264 +0.00 +0.00    +0.109 C  
DOCKED: ATOM     17  C2  UNL     1       9.666  -6.267  -0.988 +0.00 +0.00    +0.211 C  
DOCKED: ATOM     18  O1  UNL     1      10.245  -7.137  -0.343 +0.00 -0.00    -0.276 OA 
DOCKED: ATOM     19  N1  UNL     1       8.460  -5.721  -0.630 +0.00 -0.00    -0.304 N  
DOCKED: ATOM     20  H4  UNL     1       7.926  -5.210  -1.328 +0.00 +0.00    +0.149 HD 
DOCKED: ENDBRANCH  15  19
DOCKED: BRANCH  15  21
DOCKED: ATOM     21  C4  UNL     1       6.627  -7.237   0.152 +0.00 +0.00    +0.034 C  
DOCKED: BRANCH  21  22
DOCKED: ATOM     22  C5  UNL     1       5.303  -7.206   0.940 +0.00 -0.00    -0.015 C  
DOCKED: ATOM     23  C6  UNL     1       5.217  -6.047   1.932 +0.00 +0.00    +0.007 C  
DOCKED: ATOM     24  C7  UNL     1       5.164  -8.522   1.712 +0.00 +0.00    +0.007 C  
DOCKED: ENDBRANCH  21  22
DOCKED: ENDBRANCH  15  21
DOCKED: ENDBRANCH  11  15
DOCKED: ENDBRANCH  10  13
DOCKED: BRANCH  10  25
DOCKED: ATOM     25  C10 UNL     1       8.595  -9.447   3.803 +0.00 +0.00    +0.060 C  
DOCKED: BRANCH  25  26
DOCKED: ATOM     26  C11 UNL     1       7.514  -8.888   4.701 +0.00 -0.00    -0.046 A  
DOCKED: ATOM     27  C12 UNL     1       6.913  -7.650   4.427 +0.00 +0.00    +0.004 A  
DOCKED: ATOM     28  C13 UNL     1       5.932  -7.133   5.273 +0.00 +0.00    +0.000 A  
DOCKED: ATOM     29  C14 UNL     1       5.553  -7.832   6.417 +0.00 +0.00    +0.000 A  
DOCKED: ATOM     30  C15 UNL     1       6.160  -9.046   6.718 +0.00 +0.00    +0.000 A  
DOCKED: ATOM     31  C16 UNL     1       7.140  -9.565   5.871 +0.00 +0.00    +0.004 A  
DOCKED: ENDBRANCH  25  26
DOCKED: ENDBRANCH  10  25
DOCKED: ENDBRANCH   7  10
DOCKED: ENDBRANCH   6   7
DOCKED: ENDBRANCH   2   6
DOCKED: ENDBRANCH   1   4
DOCKED: BRANCH   1  32
DOCKED: ATOM     32  C21 UNL     1      12.907  -4.513   4.540 +0.00 +0.00    +0.028 C  
DOCKED: BRANCH  32  33
DOCKED: ATOM     33  C22 UNL     1      12.505  -3.664   5.764 +0.00 -0.00    -0.009 C  
DOCKED: ATOM     34  C23 UNL     1      11.467  -2.581   5.435 +0.00 +0.00    +0.003 C  
DOCKED: ATOM     35  C24 UNL     1      11.241  -1.660   6.633 +0.00 +0.00    +0.000 C  
DOCKED: ATOM     36  C25 UNL     1      10.839  -2.442   7.879 +0.00 +0.00    +0.000 C  
DOCKED: ATOM     37  C26 UNL     1      11.816  -3.570   8.189 +0.00 +0.00    +0.000 C  
DOCKED: ATOM     38  C27 UNL     1      12.048  -4.478   6.981 +0.00 +0.00    +0.003 C  
DOCKED: ENDBRANCH  32  33
DOCKED: ENDBRANCH   1  32
DOCKED: BRANCH   1  39
DOCKED: ATOM     39  C28 UNL     1      12.105  -4.561   2.108 +0.00 +0.00    +0.143 C  
DOCKED: BRANCH  39  40
DOCKED: ATOM     40  O5  UNL     1      11.273  -5.201   1.148 +0.00 -0.00    -0.389 OA 
DOCKED: ATOM     41  H44 UNL     1      11.066  -6.108   1.452 +0.00 +0.00    +0.210 HD 
DOCKED: ENDBRANCH  39  40
DOCKED: BRANCH  39  42
DOCKED: ATOM     42  C29 UNL     1      12.118  -3.037   1.910 +0.00 +0.00    +0.129 C  
DOCKED: BRANCH  42  43
DOCKED: ATOM     43  C30 UNL     1      10.786  -2.338   2.112 +0.00 +0.00    +0.216 C  
DOCKED: ATOM     44  O6  UNL     1      10.660  -1.269   2.705 +0.00 -0.00    -0.276 OA 
DOCKED: ATOM     45  N4  UNL     1       9.728  -3.020   1.564 +0.00 -0.00    -0.304 N  
DOCKED: ATOM     46  H47 UNL     1       9.845  -4.015   1.360 +0.00 +0.00    +0.149 HD 
DOCKED: BRANCH  45  47
DOCKED: ATOM     47  C31 UNL     1       8.341  -2.579   1.708 +0.00 +0.00    +0.161 C  
DOCKED: BRANCH  47  48
DOCKED: ATOM     48  C32 UNL     1       7.841  -3.057   3.092 +0.00 +0.00    +0.234 C  
DOCKED: ATOM     49  O7  UNL     1       7.035  -3.983   3.200 +0.00 -0.00    -0.274 OA 
DOCKED: ATOM     50  N5  UNL     1       8.372  -2.387   4.172 +0.00 -0.00    -0.310 N  
DOCKED: ATOM     51  H49 UNL     1       8.982  -1.594   4.023 +0.00 +0.00    +0.149 HD 
DOCKED: BRANCH  50  52
DOCKED: ATOM     52  C33 UNL     1       7.914  -2.637   5.521 +0.00 +0.00    +0.139 C  
DOCKED: BRANCH  52  53
DOCKED: ATOM     53  C34 UNL     1       8.329  -4.007   5.995 +0.00 -0.00    -0.030 A  
DOCKED: ATOM     54  C35 UNL     1       8.070  -4.400   7.315 +0.00 +0.00    +0.006 A  
DOCKED: ATOM     55  C36 UNL     1       8.495  -5.646   7.780 +0.00 +0.00    +0.015 A  
DOCKED: ATOM     56  C37 UNL     1       9.201  -6.511   6.935 +0.00 +0.00    +0.059 A  
DOCKED: ATOM     57  C39 UNL     1       9.461  -6.128   5.615 +0.00 +0.00    +0.015 A  
DOCKED: ATOM     58  C40 UNL     1       9.029  -4.883   5.147 +0.00 +0.00    +0.006 A  
DOCKED: BRANCH  56  59
DOCKED: ATOM     59  C38 UNL     1       9.642  -7.816   7.485 +0.00 +0.00    +0.337 C  
DOCKED: ATOM     60  O8  UNL     1       9.134  -8.398   8.425 +0.00 -0.00    -0.245 OA 
DOCKED: BRANCH  59  61
DOCKED: ATOM     61  O9  UNL     1      10.702  -8.326   6.834 +0.00 -0.00    -0.477 OA 
DOCKED: ATOM     62  H54 UNL     1      11.325  -7.568   6.784 +0.00 +0.00    +0.295 HD 
DOCKED: ENDBRANCH  59  61
DOCKED: ENDBRANCH  56  59
DOCKED: ENDBRANCH  52  53
DOCKED: ENDBRANCH  50  52
DOCKED: ENDBRANCH  47  48
DOCKED: BRANCH  47  63
DOCKED: ATOM     63  C41 UNL     1       7.452  -3.082   0.546 +0.00 +0.00    +0.012 C  
DOCKED: ATOM     64  C42 UNL     1       5.996  -2.643   0.736 +0.00 +0.00    +0.009 C  
DOCKED: ATOM     65  C43 UNL     1       7.962  -2.630  -0.830 +0.00 +0.00    +0.009 C  
DOCKED: ENDBRANCH  47  63
DOCKED: ENDBRANCH  45  47
DOCKED: ENDBRANCH  42  43
DOCKED: ENDBRANCH  39  42
DOCKED: ENDBRANCH   1  39
DOCKED: TORSDOF 25
DOCKED: TER
DOCKED: ENDMDL
________________________________________________________________________________


    CLUSTERING HISTOGRAM
    ____________________


________________________________________________________________________________
     |           |     |           |     |
Clus | Lowest    | Run | Mean      | Num | Histogram
-ter | Binding   |     | Binding   | in  |
Rank | Energy    |     | Energy    | Clus|    5    10   15   20   25   30   35
_____|___________|_____|___________|_____|____:____|____:____|____:____|____:___
   1 |     +7.46 |   1 |     +7.46 |   1 |#
   2 |     +7.46 |   2 |     +7.46 |   1 |#
   3 |     +7.46 |   3 |     +7.46 |   1 |#
   4 |     +7.46 |   4 |     +7.46 |   1 |#
   5 |     +7.46 |   5 |     +7.46 |   1 |#
   6 |     +7.46 |   6 |     +7.46 |   1 |#
   7 |     +7.46 |   7 |     +7.46 |   1 |#
   8 |     +7.46 |   8 |     +7.46 |   1 |#
   9 |     +7.46 |   9 |     +7.46 |   1 |#
  10 |     +7.46 |  10 |     +7.46 |   1 |#
  11 |     +7.46 |  11 |     +7.46 |   1 |#
  12 |     +7.46 |  12 |     +7.46 |   1 |#
  13 |     +7.46 |  13 |     +7.46 |   1 |#
  14 |     +7.46 |  14 |     +7.46 |   1 |#
  15 |     +7.46 |  15 |     +7.46 |   1 |#
  16 |     +7.46 |  16 |     +7.46 |   1 |#
  17 |     +7.46 |  17 |     +7.46 |   1 |#
  18 |     +7.46 |  18 |     +7.46 |   1 |#
  19 |     +7.46 |  19 |     +7.46 |   1 |#
  20 |     +7.46 |  20 |     +7.46 |   1 |#
_____|___________|_____|___________|_____|______________________________________


    RMSD TABLE
    __________


_______________________________________________________________________
     |      |      |           |         |                 |
Rank | Sub- | Run  | Binding   | Cluster | Reference       | Grep
     | Rank |      | Energy    | RMSD    | RMSD            | Pattern
_____|______|______|___________|_________|_________________|___________
   1      1      1       +7.46      0.00      6.83           RANKING
   2      1      2       +7.46      0.00      4.68           RANKING
   3      1      3       +7.46      0.00      6.72           RANKING
   4      1      4       +7.46      0.00      7.60           RANKING
   5      1      5       +7.46      0.00     10.35           RANKING
   6      1      6       +7.46      0.00      6.28           RANKING
   7      1      7       +7.46      0.00      8.66           RANKING
   8      1      8       +7.46      0.00     13.48           RANKING
   9      1      9       +7.46      0.00      8.66           RANKING
  10      1     10       +7.46      0.00     10.20           RANKING
  11      1     11       +7.46      0.00      9.88           RANKING
  12      1     12       +7.46      0.00      6.78           RANKING
  13      1     13       +7.46      0.00      5.12           RANKING
  14      1     14       +7.46      0.00     10.37           RANKING
  15      1     15       +7.46      0.00      9.07           RANKING
  16      1     16       +7.46      0.00      6.90           RANKING
  17      1     17       +7.46      0.00     10.09           RANKING
  18      1     18       +7.46      0.00     10.49           RANKING
  19      1     19       +7.46      0.00     11.83           RANKING
  20      1     20       +7.46      0.00      8.28           RANKING

Run time 73.311 sec
Idle time 0.282 sec
