REMARK  Name = ligands/ligand_17.pdb
REMARK  30 active torsions:
REMARK  status: ('A' for Active; 'I' for Inactive)
REMARK    1  A    between atoms: C1_1  and  C2_2
REMARK    2  A    between atoms: N1_4  and  C3_5
REMARK    3  A    between atoms: C3_5  and  C4_6
REMARK    4  A    between atoms: C3_5  and  C8_10
REMARK    5  A    between atoms: C4_6  and  C5_7
REMARK    6  A    between atoms: C5_7  and  C6_8
REMARK    7  A    between atoms: C5_7  and  C7_9
REMARK    8  A    between atoms: N2_12  and  C9_13
REMARK    9  A    between atoms: C9_13  and  C10_14
REMARK   10  A    between atoms: C9_13  and  C17_21
REMARK   11  A    between atoms: C10_14  and  C11_15
REMARK   12  A    between atoms: C17_21  and  O3_22
REMARK   13  A    between atoms: C17_21  and  C18_23
REMARK   14  A    between atoms: C18_23  and  C19_24
REMARK   15  A    between atoms: N3_26  and  C20_27
REMARK   16  A    between atoms: C20_27  and  C21_28
REMARK   17  A    between atoms: C20_27  and  C28_35
REMARK   18  A    between atoms: C21_28  and  C22_29
REMARK   19  A    between atoms: C28_35  and  O5_36
REMARK   20  A    between atoms: C28_35  and  C29_37
REMARK   21  A    between atoms: C29_37  and  C30_38
REMARK   22  A    between atoms: N4_40  and  C31_41
REMARK   23  A    between atoms: C31_41  and  C32_42
REMARK   24  A    between atoms: C31_41  and  C41_55
REMARK   25  A    between atoms: N5_44  and  C33_45
REMARK   26  A    between atoms: C33_45  and  C34_46
REMARK   27  A    between atoms: C37_49  and  C38_50
REMARK   28  A    between atoms: C38_50  and  O9_52
REMARK   29  A    between atoms: C41_55  and  C42_56
REMARK   30  A    between atoms: C41_55  and  C43_57
REMARK                            x       y       z     vdW  Elec       q    Type
REMARK                         _______ _______ _______ _____ _____    ______ ____
ROOT
ATOM      1  C20 UNL     1       0.124  -1.604  -1.263  0.00  0.00    +0.102 C 
ENDROOT
BRANCH   1   4
ATOM      2  C19 UNL     1       1.272   0.601  -0.812  0.00  0.00    +0.216 C 
ATOM      3  O4  UNL     1       2.417   0.182  -0.698  0.00  0.00    -0.276 OA
ATOM      4  N3  UNL     1       0.190  -0.140  -1.264  0.00  0.00    -0.310 N 
ATOM      5  H28 UNL     1      -0.709   0.291  -1.064  0.00  0.00    +0.149 HD
BRANCH   2   6
ATOM      6  C18 UNL     1       0.918   2.048  -0.544  0.00  0.00    +0.129 C 
BRANCH   6   7
ATOM      7  C17 UNL     1       1.584   2.605   0.708  0.00  0.00    +0.144 C 
BRANCH   7   8
ATOM      8  O3  UNL     1       0.868   3.810   1.058  0.00  0.00    -0.389 OA
ATOM      9  H25 UNL     1       0.103   3.532   1.595  0.00  0.00    +0.210 HD
ENDBRANCH   7   8
BRANCH   7  10
ATOM     10  C9  UNL     1       3.095   2.960   0.652  0.00  0.00    +0.106 C 
BRANCH  10  13
ATOM     11  C8  UNL     1       4.244   1.314   2.107  0.00  0.00    +0.234 C 
ATOM     12  O2  UNL     1       3.630   1.684   3.110  0.00  0.00    -0.274 OA
ATOM     13  N2  UNL     1       3.984   1.816   0.849  0.00  0.00    -0.308 N 
ATOM     14  H15 UNL     1       3.962   1.124   0.097  0.00  0.00    +0.149 HD
BRANCH  11  15
ATOM     15  C3  UNL     1       5.478   0.381   2.214  0.00  0.00    +0.159 C 
BRANCH  15  19
ATOM     16  C1  UNL     1       6.666  -0.772   5.635  0.00  0.00    +0.109 C 
ATOM     17  C2  UNL     1       6.771  -0.434   4.172  0.00  0.00    +0.211 C 
ATOM     18  O1  UNL     1       7.839  -0.476   3.569  0.00  0.00    -0.276 OA
ATOM     19  N1  UNL     1       5.578  -0.079   3.597  0.00  0.00    -0.304 N 
ATOM     20  H4  UNL     1       4.801   0.182   4.199  0.00  0.00    +0.149 HD
ENDBRANCH  15  19
BRANCH  15  21
ATOM     21  C4  UNL     1       5.576  -0.754   1.186  0.00  0.00    +0.034 C 
BRANCH  21  22
ATOM     22  C5  UNL     1       4.467  -1.824   1.203  0.00  0.00    -0.015 C 
ATOM     23  C6  UNL     1       4.551  -2.763   2.405  0.00  0.00    +0.007 C 
ATOM     24  C7  UNL     1       4.575  -2.658  -0.078  0.00  0.00    +0.007 C 
ENDBRANCH  21  22
ENDBRANCH  15  21
ENDBRANCH  11  15
ENDBRANCH  10  13
BRANCH  10  25
ATOM     25  C10 UNL     1       3.547   3.890  -0.505  0.00  0.00    +0.060 C 
BRANCH  25  26
ATOM     26  C11 UNL     1       3.821   3.295  -1.868  0.00  0.00    -0.046 A 
ATOM     27  C12 UNL     1       4.916   2.444  -2.080  0.00  0.00    +0.004 A 
ATOM     28  C13 UNL     1       5.173   1.917  -3.346  0.00  0.00    +0.000 A 
ATOM     29  C14 UNL     1       4.355   2.250  -4.423  0.00  0.00    +0.000 A 
ATOM     30  C15 UNL     1       3.284   3.116  -4.235  0.00  0.00    +0.000 A 
ATOM     31  C16 UNL     1       3.025   3.642  -2.969  0.00  0.00    +0.004 A 
ENDBRANCH  25  26
ENDBRANCH  10  25
ENDBRANCH   7  10
ENDBRANCH   6   7
ENDBRANCH   2   6
ENDBRANCH   1   4
BRANCH   1  32
ATOM     32  C21 UNL     1       1.309  -2.319  -1.951  0.00  0.00    +0.028 C 
BRANCH  32  33
ATOM     33  C22 UNL     1       1.465  -2.200  -3.482  0.00  0.00    -0.009 C 
ATOM     34  C23 UNL     1       0.252  -2.735  -4.257  0.00  0.00    +0.003 C 
ATOM     35  C24 UNL     1       0.533  -2.760  -5.759  0.00  0.00    +0.000 C 
ATOM     36  C25 UNL     1       0.953  -1.389  -6.278  0.00  0.00    +0.000 C 
ATOM     37  C26 UNL     1       2.111  -0.803  -5.480  0.00  0.00    +0.000 C 
ATOM     38  C27 UNL     1       1.829  -0.795  -3.977  0.00  0.00    +0.003 C 
ENDBRANCH  32  33
ENDBRANCH   1  32
BRANCH   1  39
ATOM     39  C28 UNL     1      -0.110  -2.179   0.177  0.00  0.00    +0.143 C 
BRANCH  39  40
ATOM     40  O5  UNL     1       0.643  -1.502   1.176  0.00  0.00    -0.389 OA
ATOM     41  H44 UNL     1       0.086  -0.812   1.590  0.00  0.00    +0.210 HD
ENDBRANCH  39  40
BRANCH  39  42
ATOM     42  C29 UNL     1      -1.591  -2.290   0.571  0.00  0.00    +0.129 C 
BRANCH  42  43
ATOM     43  C30 UNL     1      -2.372  -0.989   0.564  0.00  0.00    +0.216 C 
ATOM     44  O6  UNL     1      -1.853   0.118   0.437  0.00  0.00    -0.276 OA
ATOM     45  N4  UNL     1      -3.725  -1.169   0.716  0.00  0.00    -0.304 N 
ATOM     46  H47 UNL     1      -4.056  -2.052   1.111  0.00  0.00    +0.149 HD
BRANCH  45  47
ATOM     47  C31 UNL     1      -4.665  -0.054   0.823  0.00  0.00    +0.161 C 
BRANCH  47  48
ATOM     48  C32 UNL     1      -5.548  -0.307   2.068  0.00  0.00    +0.234 C 
ATOM     49  O7  UNL     1      -5.438  -1.336   2.737  0.00  0.00    -0.274 OA
ATOM     50  N5  UNL     1      -6.440   0.699   2.370  0.00  0.00    -0.310 N 
ATOM     51  H49 UNL     1      -6.532   1.494   1.751  0.00  0.00    +0.149 HD
BRANCH  50  52
ATOM     52  C33 UNL     1      -7.414   0.558   3.430  0.00  0.00    +0.139 C 
BRANCH  52  53
ATOM     53  C34 UNL     1      -8.574  -0.303   2.997  0.00  0.00    -0.030 A 
ATOM     54  C35 UNL     1      -8.699  -1.609   3.490  0.00  0.00    +0.006 A 
ATOM     55  C36 UNL     1      -9.740  -2.433   3.057  0.00  0.00    +0.015 A 
ATOM     56  C37 UNL     1     -10.661  -1.968   2.110  0.00  0.00    +0.059 A 
ATOM     57  C39 UNL     1     -10.545  -0.664   1.615  0.00  0.00    +0.015 A 
ATOM     58  C40 UNL     1      -9.507   0.164   2.055  0.00  0.00    +0.006 A 
BRANCH  56  59
ATOM     59  C38 UNL     1     -11.738  -2.890   1.674  0.00  0.00    +0.337 C 
ATOM     60  O8  UNL     1     -11.928  -4.012   2.103  0.00  0.00    -0.245 OA
BRANCH  59  61
ATOM     61  O9  UNL     1     -12.520  -2.363   0.716  0.00  0.00    -0.477 OA
ATOM     62  H54 UNL     1     -13.175  -3.073   0.539  0.00  0.00    +0.295 HD
ENDBRANCH  59  61
ENDBRANCH  56  59
ENDBRANCH  52  53
ENDBRANCH  50  52
ENDBRANCH  47  48
BRANCH  47  63
ATOM     63  C41 UNL     1      -5.495   0.127  -0.470  0.00  0.00    +0.012 C 
ATOM     64  C42 UNL     1      -4.603   0.547  -1.644  0.00  0.00    +0.009 C 
ATOM     65  C43 UNL     1      -6.296  -1.129  -0.842  0.00  0.00    +0.009 C 
ENDBRANCH  47  63
ENDBRANCH  45  47
ENDBRANCH  42  43
ENDBRANCH  39  42
ENDBRANCH   1  39
TORSDOF 25
