AutoDock-GPU version: v1.6

**********************************************************
**    AutoDock-GPU AUTODOCKTOOLS-COMPATIBLE DLG FILE    **
**********************************************************


    DOCKING PARAMETERS
    ________________________


Ligand file:                               ligands/ligand_49.pdbqt
Grid fld file:                             protein.maps.fld

Random seed:                               1770973657, 32553
Number of runs:                            20
Number of energy evaluations:              9755677
Number of generations:                     42000
Size of population:                        150
Rate of crossover:                         80.000000%
Tournament selection probability limit:    60.000000%
Rate of mutation:                          2.000000%
Maximal allowed delta movement:            +/- 6.000000A
Maximal allowed delta angle:               +/- 90.000000

Rate of local search:                      100.000000%
Maximal number of local search iterations: 300
Rho lower bound:                           0.010000
Spread of local search delta movement:     2.000000A
Spread of local search delta angle:        74.999999
Limit of consecutive successes/failures:   4

Handle symmetry during clustering:         YES
RMSD tolerance:                            2.000000A

Program call in command line was:          ./autodock-gpu --ffile protein.maps.fld --lfile ligands/ligand_49.pdbqt --nrun 20 


    GRID PARAMETERS
    ________________________


Receptor name:                             #MACROMOLECULE
Number of grid points (x, y, z):           61, 61, 61
Grid center (x, y, z):                     10.261000, -3.492000, -0.127000A
Grid size (x, y, z):                       22.500000, 22.500000, 22.500000A
Grid spacing:                              0.375000A


    LIGAND PARAMETERS
    ________________________


Ligand name:                               ligands/ligand_49
Number of atoms:                           53
Number of rotatable bonds:                 21
Number of atom types:                      5


    DUMMY DATA (only for ADT-compatibility)
    ________________________


DPF> outlev 1
DPF> ga_run 20
DPF> fld protein.maps.fld
DPF> move ligands/ligand_49.pdbqt


    COUNTER STATES
    ________________________


Number of energy evaluations performed:    4984384
Number of generations used:                180


    INPUT LIGAND PDBQT FILE:
    ________________________


INPUT-LIGAND-PDBQT: REMARK  Name = ligands/ligand_49.pdb
INPUT-LIGAND-PDBQT: REMARK  31 active torsions:
INPUT-LIGAND-PDBQT: REMARK  status: ('A' for Active; 'I' for Inactive)
INPUT-LIGAND-PDBQT: REMARK    1  A    between atoms: C1_1  and  S1_2
INPUT-LIGAND-PDBQT: REMARK    2  A    between atoms: S1_2  and  C2_3
INPUT-LIGAND-PDBQT: REMARK    3  A    between atoms: C2_3  and  C3_4
INPUT-LIGAND-PDBQT: REMARK    4  A    between atoms: C3_4  and  C4_5
INPUT-LIGAND-PDBQT: REMARK    5  A    between atoms: C4_5  and  N1_6
INPUT-LIGAND-PDBQT: REMARK    6  A    between atoms: C4_5  and  C15_21
INPUT-LIGAND-PDBQT: REMARK    7  A    between atoms: C5_7  and  C6_9
INPUT-LIGAND-PDBQT: REMARK    8  A    between atoms: C6_9  and  N2_10
INPUT-LIGAND-PDBQT: REMARK    9  A    between atoms: C6_9  and  C12_18
INPUT-LIGAND-PDBQT: REMARK   10  A    between atoms: C7_11  and  O3_13
INPUT-LIGAND-PDBQT: REMARK   11  A    between atoms: O3_13  and  C8_14
INPUT-LIGAND-PDBQT: REMARK   12  A    between atoms: C8_14  and  C9_15
INPUT-LIGAND-PDBQT: REMARK   13  A    between atoms: C8_14  and  C10_16
INPUT-LIGAND-PDBQT: REMARK   14  A    between atoms: C8_14  and  C11_17
INPUT-LIGAND-PDBQT: REMARK   15  A    between atoms: C12_18  and  C13_19
INPUT-LIGAND-PDBQT: REMARK   16  A    between atoms: C12_18  and  C14_20
INPUT-LIGAND-PDBQT: REMARK   17  A    between atoms: N3_23  and  C16_24
INPUT-LIGAND-PDBQT: REMARK   18  A    between atoms: C16_24  and  C17_25
INPUT-LIGAND-PDBQT: REMARK   19  A    between atoms: C16_24  and  C21_29
INPUT-LIGAND-PDBQT: REMARK   20  A    between atoms: C17_25  and  C18_26
INPUT-LIGAND-PDBQT: REMARK   21  A    between atoms: C18_26  and  C19_27
INPUT-LIGAND-PDBQT: REMARK   22  A    between atoms: C18_26  and  C20_28
INPUT-LIGAND-PDBQT: REMARK   23  A    between atoms: C21_29  and  O5_30
INPUT-LIGAND-PDBQT: REMARK   24  A    between atoms: C21_29  and  C22_31
INPUT-LIGAND-PDBQT: REMARK   25  A    between atoms: C22_31  and  C23_32
INPUT-LIGAND-PDBQT: REMARK   26  A    between atoms: N4_34  and  C24_35
INPUT-LIGAND-PDBQT: REMARK   27  A    between atoms: C24_35  and  C25_36
INPUT-LIGAND-PDBQT: REMARK   28  A    between atoms: C24_35  and  C32_45
INPUT-LIGAND-PDBQT: REMARK   29  A    between atoms: N5_38  and  C26_39
INPUT-LIGAND-PDBQT: REMARK   30  A    between atoms: C32_45  and  C33_46
INPUT-LIGAND-PDBQT: REMARK   31  A    between atoms: C32_45  and  C34_47
INPUT-LIGAND-PDBQT: REMARK                            x       y       z     vdW  Elec       q    Type
INPUT-LIGAND-PDBQT: REMARK                         _______ _______ _______ _____ _____    ______ ____
INPUT-LIGAND-PDBQT: ROOT
INPUT-LIGAND-PDBQT: ATOM      1  C16 UNL     1      -3.227  -1.547  -1.201  0.00  0.00    +0.102 C 
INPUT-LIGAND-PDBQT: ENDROOT
INPUT-LIGAND-PDBQT: BRANCH   1   4
INPUT-LIGAND-PDBQT: ATOM      2  C15 UNL     1      -0.860  -2.138  -1.653  0.00  0.00    +0.234 C 
INPUT-LIGAND-PDBQT: ATOM      3  O4  UNL     1      -0.449  -1.160  -1.032  0.00  0.00    -0.274 OA
INPUT-LIGAND-PDBQT: ATOM      4  N3  UNL     1      -2.209  -2.374  -1.857  0.00  0.00    -0.308 N 
INPUT-LIGAND-PDBQT: ATOM      5  H28 UNL     1      -2.487  -3.290  -2.186  0.00  0.00    +0.149 HD
INPUT-LIGAND-PDBQT: BRANCH   2   6
INPUT-LIGAND-PDBQT: ATOM      6  C4  UNL     1       0.068  -3.199  -2.279  0.00  0.00    +0.160 C 
INPUT-LIGAND-PDBQT: BRANCH   6   7
INPUT-LIGAND-PDBQT: ATOM      7  N1  UNL     1       1.384  -2.605  -2.526  0.00  0.00    -0.302 N 
INPUT-LIGAND-PDBQT: ATOM      8  C5  UNL     1       2.396  -2.531  -1.592  0.00  0.00    +0.234 C 
INPUT-LIGAND-PDBQT: ATOM      9  O1  UNL     1       2.408  -3.170  -0.541  0.00  0.00    -0.274 OA
INPUT-LIGAND-PDBQT: ATOM     10  H9  UNL     1       1.375  -1.853  -3.204  0.00  0.00    +0.150 HD
INPUT-LIGAND-PDBQT: BRANCH   8  11
INPUT-LIGAND-PDBQT: ATOM     11  C6  UNL     1       3.575  -1.610  -1.987  0.00  0.00    +0.165 C 
INPUT-LIGAND-PDBQT: BRANCH  11  12
INPUT-LIGAND-PDBQT: ATOM     12  N2  UNL     1       4.285  -1.277  -0.759  0.00  0.00    -0.270 N 
INPUT-LIGAND-PDBQT: ATOM     13  C7  UNL     1       4.932  -0.103  -0.560  0.00  0.00    +0.401 C 
INPUT-LIGAND-PDBQT: ATOM     14  O2  UNL     1       5.057   0.776  -1.400  0.00  0.00    -0.226 OA
INPUT-LIGAND-PDBQT: ATOM     15  H11 UNL     1       4.150  -1.871   0.051  0.00  0.00    +0.153 HD
INPUT-LIGAND-PDBQT: BRANCH  13  16
INPUT-LIGAND-PDBQT: ATOM     16  O3  UNL     1       5.392  -0.073   0.711  0.00  0.00    -0.445 OA
INPUT-LIGAND-PDBQT: BRANCH  16  17
INPUT-LIGAND-PDBQT: ATOM     17  C8  UNL     1       6.106   1.081   1.222  0.00  0.00    +0.107 C 
INPUT-LIGAND-PDBQT: ATOM     18  C9  UNL     1       5.200   2.317   1.253  0.00  0.00    +0.055 C 
INPUT-LIGAND-PDBQT: ATOM     19  C10 UNL     1       7.398   1.330   0.434  0.00  0.00    +0.055 C 
INPUT-LIGAND-PDBQT: ATOM     20  C11 UNL     1       6.478   0.707   2.664  0.00  0.00    +0.055 C 
INPUT-LIGAND-PDBQT: ENDBRANCH  16  17
INPUT-LIGAND-PDBQT: ENDBRANCH  13  16
INPUT-LIGAND-PDBQT: ENDBRANCH  11  12
INPUT-LIGAND-PDBQT: BRANCH  11  21
INPUT-LIGAND-PDBQT: ATOM     21  C12 UNL     1       4.532  -2.224  -3.034  0.00  0.00    +0.012 C 
INPUT-LIGAND-PDBQT: ATOM     22  C13 UNL     1       3.899  -2.338  -4.422  0.00  0.00    +0.009 C 
INPUT-LIGAND-PDBQT: ATOM     23  C14 UNL     1       5.098  -3.581  -2.606  0.00  0.00    +0.009 C 
INPUT-LIGAND-PDBQT: ENDBRANCH  11  21
INPUT-LIGAND-PDBQT: ENDBRANCH   8  11
INPUT-LIGAND-PDBQT: ENDBRANCH   6   7
INPUT-LIGAND-PDBQT: BRANCH   6  24
INPUT-LIGAND-PDBQT: ATOM     24  C3  UNL     1       0.019  -4.499  -1.460  0.00  0.00    +0.042 C 
INPUT-LIGAND-PDBQT: BRANCH  24  25
INPUT-LIGAND-PDBQT: ATOM     25  C2  UNL     1       0.819  -5.647  -2.073  0.00  0.00    +0.071 C 
INPUT-LIGAND-PDBQT: BRANCH  25  27
INPUT-LIGAND-PDBQT: ATOM     26  C1  UNL     1      -1.170  -7.477  -2.676  0.00  0.00    +0.084 C 
INPUT-LIGAND-PDBQT: ATOM     27  S1  UNL     1      -0.021  -6.365  -3.530  0.00  0.00    -0.164 S 
INPUT-LIGAND-PDBQT: ENDBRANCH  25  27
INPUT-LIGAND-PDBQT: ENDBRANCH  24  25
INPUT-LIGAND-PDBQT: ENDBRANCH   6  24
INPUT-LIGAND-PDBQT: ENDBRANCH   2   6
INPUT-LIGAND-PDBQT: ENDBRANCH   1   4
INPUT-LIGAND-PDBQT: BRANCH   1  28
INPUT-LIGAND-PDBQT: ATOM     28  C21 UNL     1      -3.505  -2.132   0.219  0.00  0.00    +0.143 C 
INPUT-LIGAND-PDBQT: BRANCH  28  29
INPUT-LIGAND-PDBQT: ATOM     29  O5  UNL     1      -2.297  -2.245   0.989  0.00  0.00    -0.389 OA
INPUT-LIGAND-PDBQT: ATOM     30  H40 UNL     1      -1.697  -1.523   0.704  0.00  0.00    +0.210 HD
INPUT-LIGAND-PDBQT: ENDBRANCH  28  29
INPUT-LIGAND-PDBQT: BRANCH  28  31
INPUT-LIGAND-PDBQT: ATOM     31  C22 UNL     1      -4.557  -1.428   1.073  0.00  0.00    +0.129 C 
INPUT-LIGAND-PDBQT: BRANCH  31  32
INPUT-LIGAND-PDBQT: ATOM     32  C23 UNL     1      -4.263   0.029   1.346  0.00  0.00    +0.216 C 
INPUT-LIGAND-PDBQT: ATOM     33  O6  UNL     1      -3.329   0.649   0.852  0.00  0.00    -0.276 OA
INPUT-LIGAND-PDBQT: ATOM     34  N4  UNL     1      -5.170   0.605   2.207  0.00  0.00    -0.304 N 
INPUT-LIGAND-PDBQT: ATOM     35  H43 UNL     1      -5.750  -0.015   2.763  0.00  0.00    +0.149 HD
INPUT-LIGAND-PDBQT: BRANCH  34  36
INPUT-LIGAND-PDBQT: ATOM     36  C24 UNL     1      -5.054   1.981   2.705  0.00  0.00    +0.161 C 
INPUT-LIGAND-PDBQT: BRANCH  36  37
INPUT-LIGAND-PDBQT: ATOM     37  C25 UNL     1      -3.902   2.036   3.735  0.00  0.00    +0.234 C 
INPUT-LIGAND-PDBQT: ATOM     38  O7  UNL     1      -4.123   2.080   4.944  0.00  0.00    -0.274 OA
INPUT-LIGAND-PDBQT: ATOM     39  N5  UNL     1      -2.639   1.963   3.192  0.00  0.00    -0.311 N 
INPUT-LIGAND-PDBQT: ATOM     40  H45 UNL     1      -2.577   1.683   2.211  0.00  0.00    +0.149 HD
INPUT-LIGAND-PDBQT: BRANCH  39  41
INPUT-LIGAND-PDBQT: ATOM     41  C26 UNL     1      -1.432   1.889   4.003  0.00  0.00    +0.073 C 
INPUT-LIGAND-PDBQT: ATOM     42  C27 UNL     1      -1.067   3.262   4.586  0.00  0.00    +0.022 C 
INPUT-LIGAND-PDBQT: ATOM     43  C28 UNL     1      -0.559   4.230   3.517  0.00  0.00    +0.002 C 
INPUT-LIGAND-PDBQT: ATOM     44  C29 UNL     1       0.607   3.638   2.732  0.00  0.00    +0.000 C 
INPUT-LIGAND-PDBQT: ATOM     45  C30 UNL     1       0.255   2.283   2.129  0.00  0.00    +0.002 C 
INPUT-LIGAND-PDBQT: ATOM     46  C31 UNL     1      -0.267   1.311   3.186  0.00  0.00    +0.022 C 
INPUT-LIGAND-PDBQT: ENDBRANCH  39  41
INPUT-LIGAND-PDBQT: ENDBRANCH  36  37
INPUT-LIGAND-PDBQT: BRANCH  36  47
INPUT-LIGAND-PDBQT: ATOM     47  C32 UNL     1      -4.968   3.074   1.614  0.00  0.00    +0.012 C 
INPUT-LIGAND-PDBQT: ATOM     48  C33 UNL     1      -5.037   4.471   2.243  0.00  0.00    +0.009 C 
INPUT-LIGAND-PDBQT: ATOM     49  C34 UNL     1      -6.094   2.933   0.584  0.00  0.00    +0.009 C 
INPUT-LIGAND-PDBQT: ENDBRANCH  36  47
INPUT-LIGAND-PDBQT: ENDBRANCH  34  36
INPUT-LIGAND-PDBQT: ENDBRANCH  31  32
INPUT-LIGAND-PDBQT: ENDBRANCH  28  31
INPUT-LIGAND-PDBQT: ENDBRANCH   1  28
INPUT-LIGAND-PDBQT: BRANCH   1  50
INPUT-LIGAND-PDBQT: ATOM     50  C17 UNL     1      -4.504  -1.468  -2.060  0.00  0.00    +0.028 C 
INPUT-LIGAND-PDBQT: BRANCH  50  51
INPUT-LIGAND-PDBQT: ATOM     51  C18 UNL     1      -4.390  -0.767  -3.435  0.00  0.00    -0.015 C 
INPUT-LIGAND-PDBQT: ATOM     52  C19 UNL     1      -3.841   0.657  -3.330  0.00  0.00    +0.007 C 
INPUT-LIGAND-PDBQT: ATOM     53  C20 UNL     1      -3.606  -1.570  -4.472  0.00  0.00    +0.007 C 
INPUT-LIGAND-PDBQT: ENDBRANCH  50  51
INPUT-LIGAND-PDBQT: ENDBRANCH   1  50
INPUT-LIGAND-PDBQT: TORSDOF 21


    FINAL DOCKED STATE:
    ________________________


Run:   1 / 20
Time taken for this run:   1.281s

DOCKED: MODEL        1
DOCKED: USER    Run = 1
DOCKED: USER
DOCKED: USER    Estimated Free Energy of Binding    =  +6.26 kcal/mol  [=(1)+(2)+(3)-(4)]
DOCKED: USER
DOCKED: USER    (1) Final Intermolecular Energy     =  +0.00 kcal/mol
DOCKED: USER        vdW + Hbond + desolv Energy     =  +0.00 kcal/mol
DOCKED: USER        Electrostatic Energy            =  +0.00 kcal/mol
DOCKED: USER        Moving Ligand-Fixed Receptor    =  +0.00 kcal/mol
DOCKED: USER        Moving Ligand-Moving Receptor   =  +0.00 kcal/mol
DOCKED: USER    (2) Final Total Internal Energy     = -13.91 kcal/mol
DOCKED: USER    (3) Torsional Free Energy           =  +6.26 kcal/mol
DOCKED: USER    (4) Unbound System's Energy         = -13.91 kcal/mol
DOCKED: USER
DOCKED: USER
DOCKED: REMARK  Name = ligands/ligand_49.pdb
DOCKED: REMARK  31 active torsions:
DOCKED: REMARK  status: ('A' for Active; 'I' for Inactive)
DOCKED: REMARK    1  A    between atoms: C1_1  and  S1_2
DOCKED: REMARK    2  A    between atoms: S1_2  and  C2_3
DOCKED: REMARK    3  A    between atoms: C2_3  and  C3_4
DOCKED: REMARK    4  A    between atoms: C3_4  and  C4_5
DOCKED: REMARK    5  A    between atoms: C4_5  and  N1_6
DOCKED: REMARK    6  A    between atoms: C4_5  and  C15_21
DOCKED: REMARK    7  A    between atoms: C5_7  and  C6_9
DOCKED: REMARK    8  A    between atoms: C6_9  and  N2_10
DOCKED: REMARK    9  A    between atoms: C6_9  and  C12_18
DOCKED: REMARK   10  A    between atoms: C7_11  and  O3_13
DOCKED: REMARK   11  A    between atoms: O3_13  and  C8_14
DOCKED: REMARK   12  A    between atoms: C8_14  and  C9_15
DOCKED: REMARK   13  A    between atoms: C8_14  and  C10_16
DOCKED: REMARK   14  A    between atoms: C8_14  and  C11_17
DOCKED: REMARK   15  A    between atoms: C12_18  and  C13_19
DOCKED: REMARK   16  A    between atoms: C12_18  and  C14_20
DOCKED: REMARK   17  A    between atoms: N3_23  and  C16_24
DOCKED: REMARK   18  A    between atoms: C16_24  and  C17_25
DOCKED: REMARK   19  A    between atoms: C16_24  and  C21_29
DOCKED: REMARK   20  A    between atoms: C17_25  and  C18_26
DOCKED: REMARK   21  A    between atoms: C18_26  and  C19_27
DOCKED: REMARK   22  A    between atoms: C18_26  and  C20_28
DOCKED: REMARK   23  A    between atoms: C21_29  and  O5_30
DOCKED: REMARK   24  A    between atoms: C21_29  and  C22_31
DOCKED: REMARK   25  A    between atoms: C22_31  and  C23_32
DOCKED: REMARK   26  A    between atoms: N4_34  and  C24_35
DOCKED: REMARK   27  A    between atoms: C24_35  and  C25_36
DOCKED: REMARK   28  A    between atoms: C24_35  and  C32_45
DOCKED: REMARK   29  A    between atoms: N5_38  and  C26_39
DOCKED: REMARK   30  A    between atoms: C32_45  and  C33_46
DOCKED: REMARK   31  A    between atoms: C32_45  and  C34_47
DOCKED: REMARK                            x       y       z     vdW  Elec       q    Type
DOCKED: REMARK                         _______ _______ _______ _____ _____    ______ ____
DOCKED: USER                              x       y       z     vdW  Elec       q    Type
DOCKED: USER                           _______ _______ _______ _____ _____    ______ ____
DOCKED: ROOT
DOCKED: ATOM      1  C16 UNL     1      11.763 -10.192   1.334 +0.00 +0.00    +0.102 C  
DOCKED: ENDROOT
DOCKED: BRANCH   1   4
DOCKED: ATOM      2  C15 UNL     1       9.377 -10.345   0.670 +0.00 +0.00    +0.234 C  
DOCKED: ATOM      3  O4  UNL     1       9.184 -11.307   1.410 +0.00 -0.00    -0.274 OA 
DOCKED: ATOM      4  N3  UNL     1      10.628  -9.774   0.505 +0.00 -0.00    -0.308 N  
DOCKED: ATOM      5  H28 UNL     1      10.682  -8.869   0.056 +0.00 +0.00    +0.149 HD 
DOCKED: BRANCH   2   6
DOCKED: ATOM      6  C4  UNL     1       8.263  -9.675  -0.160 +0.00 +0.00    +0.160 C  
DOCKED: BRANCH   6   7
DOCKED: ATOM      7  N1  UNL     1       8.461  -8.223  -0.153 +0.00 -0.00    -0.302 N  
DOCKED: ATOM      8  C5  UNL     1       7.512  -7.303  -0.546 +0.00 +0.00    +0.234 C  
DOCKED: ATOM      9  O1  UNL     1       6.322  -7.569  -0.704 +0.00 -0.00    -0.274 OA 
DOCKED: ATOM     10  H9  UNL     1       9.420  -7.938  -0.308 +0.00 +0.00    +0.150 HD 
DOCKED: BRANCH   8  11
DOCKED: ATOM     11  C6  UNL     1       8.045  -5.861  -0.727 +0.00 +0.00    +0.165 C  
DOCKED: BRANCH  11  12
DOCKED: ATOM     12  N2  UNL     1       8.869  -5.563   0.437 +0.00 -0.00    -0.270 N  
DOCKED: ATOM     13  C7  UNL     1      10.148  -5.988   0.580 +0.00 +0.00    +0.401 C  
DOCKED: ATOM     14  O2  UNL     1      10.733  -6.721  -0.204 +0.00 -0.00    -0.226 OA 
DOCKED: ATOM     15  H11 UNL     1       8.540  -4.865   1.094 +0.00 +0.00    +0.153 HD 
DOCKED: BRANCH  13  16
DOCKED: ATOM     16  O3  UNL     1      10.656  -5.455   1.715 +0.00 -0.00    -0.445 OA 
DOCKED: BRANCH  16  17
DOCKED: ATOM     17  C8  UNL     1      10.368  -6.039   3.010 +0.00 +0.00    +0.107 C  
DOCKED: ATOM     18  C9  UNL     1      11.539  -5.832   3.978 +0.00 +0.00    +0.055 C  
DOCKED: ATOM     19  C10 UNL     1       9.978  -7.517   2.881 +0.00 +0.00    +0.055 C  
DOCKED: ATOM     20  C11 UNL     1       9.154  -5.258   3.533 +0.00 +0.00    +0.055 C  
DOCKED: ENDBRANCH  16  17
DOCKED: ENDBRANCH  13  16
DOCKED: ENDBRANCH  11  12
DOCKED: BRANCH  11  21
DOCKED: ATOM     21  C12 UNL     1       8.833  -5.640  -2.038 +0.00 +0.00    +0.012 C  
DOCKED: ATOM     22  C13 UNL     1       9.093  -4.161  -2.332 +0.00 +0.00    +0.009 C  
DOCKED: ATOM     23  C14 UNL     1       8.176  -6.304  -3.251 +0.00 +0.00    +0.009 C  
DOCKED: ENDBRANCH  11  21
DOCKED: ENDBRANCH   8  11
DOCKED: ENDBRANCH   6   7
DOCKED: BRANCH   6  24
DOCKED: ATOM     24  C3  UNL     1       8.130 -10.365  -1.527 +0.00 +0.00    +0.042 C  
DOCKED: BRANCH  24  25
DOCKED: ATOM     25  C2  UNL     1       9.058  -9.799  -2.600 +0.00 +0.00    +0.071 C  
DOCKED: BRANCH  25  27
DOCKED: ATOM     26  C1  UNL     1       9.320 -12.555  -2.665 +0.00 +0.00    +0.084 C  
DOCKED: ATOM     27  S1  UNL     1      10.165 -11.079  -3.293 +0.00 -0.00    -0.164 S  
DOCKED: ENDBRANCH  25  27
DOCKED: ENDBRANCH  24  25
DOCKED: ENDBRANCH   6  24
DOCKED: ENDBRANCH   2   6
DOCKED: ENDBRANCH   1   4
DOCKED: BRANCH   1  28
DOCKED: ATOM     28  C21 UNL     1      12.920  -9.161   1.152 +0.00 +0.00    +0.143 C  
DOCKED: BRANCH  28  29
DOCKED: ATOM     29  O5  UNL     1      12.658  -8.261   0.063 +0.00 -0.00    -0.389 OA 
DOCKED: ATOM     30  H40 UNL     1      11.963  -7.635   0.359 +0.00 +0.00    +0.210 HD 
DOCKED: ENDBRANCH  28  29
DOCKED: BRANCH  28  31
DOCKED: ATOM     31  C22 UNL     1      13.322  -8.337   2.373 +0.00 +0.00    +0.129 C  
DOCKED: BRANCH  31  32
DOCKED: ATOM     32  C23 UNL     1      14.080  -7.070   2.046 +0.00 +0.00    +0.216 C  
DOCKED: ATOM     33  O6  UNL     1      15.212  -6.822   2.442 +0.00 -0.00    -0.276 OA 
DOCKED: ATOM     34  N4  UNL     1      13.368  -6.216   1.235 +0.00 -0.00    -0.304 N  
DOCKED: ATOM     35  H43 UNL     1      12.367  -6.365   1.158 +0.00 +0.00    +0.149 HD 
DOCKED: BRANCH  34  36
DOCKED: ATOM     36  C24 UNL     1      13.841  -4.881   0.850 +0.00 +0.00    +0.161 C  
DOCKED: BRANCH  36  37
DOCKED: ATOM     37  C25 UNL     1      13.997  -4.839  -0.688 +0.00 +0.00    +0.234 C  
DOCKED: ATOM     38  O7  UNL     1      14.892  -4.189  -1.225 +0.00 -0.00    -0.274 OA 
DOCKED: ATOM     39  N5  UNL     1      13.108  -5.630  -1.380 +0.00 -0.00    -0.311 N  
DOCKED: ATOM     40  H45 UNL     1      12.576  -6.309  -0.832 +0.00 +0.00    +0.149 HD 
DOCKED: BRANCH  39  41
DOCKED: ATOM     41  C26 UNL     1      13.165  -5.810  -2.824 +0.00 +0.00    +0.073 C  
DOCKED: ATOM     42  C27 UNL     1      11.819  -6.296  -3.379 +0.00 +0.00    +0.022 C  
DOCKED: ATOM     43  C28 UNL     1      11.517  -7.742  -2.986 +0.00 +0.00    +0.002 C  
DOCKED: ATOM     44  C29 UNL     1      12.650  -8.682  -3.388 +0.00 +0.00    +0.000 C  
DOCKED: ATOM     45  C30 UNL     1      13.992  -8.224  -2.828 +0.00 +0.00    +0.002 C  
DOCKED: ATOM     46  C31 UNL     1      14.298  -6.775  -3.203 +0.00 +0.00    +0.022 C  
DOCKED: ENDBRANCH  39  41
DOCKED: ENDBRANCH  36  37
DOCKED: BRANCH  36  47
DOCKED: ATOM     47  C32 UNL     1      13.027  -3.699   1.427 +0.00 +0.00    +0.012 C  
DOCKED: ATOM     48  C33 UNL     1      12.172  -3.048   0.333 +0.00 +0.00    +0.009 C  
DOCKED: ATOM     49  C34 UNL     1      13.940  -2.635   2.047 +0.00 +0.00    +0.009 C  
DOCKED: ENDBRANCH  36  47
DOCKED: ENDBRANCH  34  36
DOCKED: ENDBRANCH  31  32
DOCKED: ENDBRANCH  28  31
DOCKED: ENDBRANCH   1  28
DOCKED: BRANCH   1  50
DOCKED: ATOM     50  C17 UNL     1      12.198 -11.627   0.981 +0.00 +0.00    +0.028 C  
DOCKED: BRANCH  50  51
DOCKED: ATOM     51  C18 UNL     1      12.116 -12.046  -0.507 +0.00 -0.00    -0.015 C  
DOCKED: ATOM     52  C19 UNL     1      13.233 -11.437  -1.357 +0.00 +0.00    +0.007 C  
DOCKED: ATOM     53  C20 UNL     1      12.044 -13.557  -0.718 +0.00 +0.00    +0.007 C  
DOCKED: ENDBRANCH  50  51
DOCKED: ENDBRANCH   1  50
DOCKED: TORSDOF 21
DOCKED: TER
DOCKED: ENDMDL
________________________________________________________________________________


    FINAL DOCKED STATE:
    ________________________


Run:   2 / 20
Time taken for this run:   1.281s

DOCKED: MODEL        2
DOCKED: USER    Run = 2
DOCKED: USER
DOCKED: USER    Estimated Free Energy of Binding    =  +6.26 kcal/mol  [=(1)+(2)+(3)-(4)]
DOCKED: USER
DOCKED: USER    (1) Final Intermolecular Energy     =  +0.00 kcal/mol
DOCKED: USER        vdW + Hbond + desolv Energy     =  +0.00 kcal/mol
DOCKED: USER        Electrostatic Energy            =  +0.00 kcal/mol
DOCKED: USER        Moving Ligand-Fixed Receptor    =  +0.00 kcal/mol
DOCKED: USER        Moving Ligand-Moving Receptor   =  +0.00 kcal/mol
DOCKED: USER    (2) Final Total Internal Energy     = -13.47 kcal/mol
DOCKED: USER    (3) Torsional Free Energy           =  +6.26 kcal/mol
DOCKED: USER    (4) Unbound System's Energy         = -13.47 kcal/mol
DOCKED: USER
DOCKED: USER
DOCKED: REMARK  Name = ligands/ligand_49.pdb
DOCKED: REMARK  31 active torsions:
DOCKED: REMARK  status: ('A' for Active; 'I' for Inactive)
DOCKED: REMARK    1  A    between atoms: C1_1  and  S1_2
DOCKED: REMARK    2  A    between atoms: S1_2  and  C2_3
DOCKED: REMARK    3  A    between atoms: C2_3  and  C3_4
DOCKED: REMARK    4  A    between atoms: C3_4  and  C4_5
DOCKED: REMARK    5  A    between atoms: C4_5  and  N1_6
DOCKED: REMARK    6  A    between atoms: C4_5  and  C15_21
DOCKED: REMARK    7  A    between atoms: C5_7  and  C6_9
DOCKED: REMARK    8  A    between atoms: C6_9  and  N2_10
DOCKED: REMARK    9  A    between atoms: C6_9  and  C12_18
DOCKED: REMARK   10  A    between atoms: C7_11  and  O3_13
DOCKED: REMARK   11  A    between atoms: O3_13  and  C8_14
DOCKED: REMARK   12  A    between atoms: C8_14  and  C9_15
DOCKED: REMARK   13  A    between atoms: C8_14  and  C10_16
DOCKED: REMARK   14  A    between atoms: C8_14  and  C11_17
DOCKED: REMARK   15  A    between atoms: C12_18  and  C13_19
DOCKED: REMARK   16  A    between atoms: C12_18  and  C14_20
DOCKED: REMARK   17  A    between atoms: N3_23  and  C16_24
DOCKED: REMARK   18  A    between atoms: C16_24  and  C17_25
DOCKED: REMARK   19  A    between atoms: C16_24  and  C21_29
DOCKED: REMARK   20  A    between atoms: C17_25  and  C18_26
DOCKED: REMARK   21  A    between atoms: C18_26  and  C19_27
DOCKED: REMARK   22  A    between atoms: C18_26  and  C20_28
DOCKED: REMARK   23  A    between atoms: C21_29  and  O5_30
DOCKED: REMARK   24  A    between atoms: C21_29  and  C22_31
DOCKED: REMARK   25  A    between atoms: C22_31  and  C23_32
DOCKED: REMARK   26  A    between atoms: N4_34  and  C24_35
DOCKED: REMARK   27  A    between atoms: C24_35  and  C25_36
DOCKED: REMARK   28  A    between atoms: C24_35  and  C32_45
DOCKED: REMARK   29  A    between atoms: N5_38  and  C26_39
DOCKED: REMARK   30  A    between atoms: C32_45  and  C33_46
DOCKED: REMARK   31  A    between atoms: C32_45  and  C34_47
DOCKED: REMARK                            x       y       z     vdW  Elec       q    Type
DOCKED: REMARK                         _______ _______ _______ _____ _____    ______ ____
DOCKED: USER                              x       y       z     vdW  Elec       q    Type
DOCKED: USER                           _______ _______ _______ _____ _____    ______ ____
DOCKED: ROOT
DOCKED: ATOM      1  C16 UNL     1      13.042  -9.928  -1.194 +0.00 +0.00    +0.102 C  
DOCKED: ENDROOT
DOCKED: BRANCH   1   4
DOCKED: ATOM      2  C15 UNL     1      11.876  -9.618   0.974 +0.00 +0.00    +0.234 C  
DOCKED: ATOM      3  O4  UNL     1      12.747 -10.236   1.583 +0.00 -0.00    -0.274 OA 
DOCKED: ATOM      4  N3  UNL     1      11.892  -9.478  -0.404 +0.00 -0.00    -0.308 N  
DOCKED: ATOM      5  H28 UNL     1      11.274  -8.792  -0.819 +0.00 +0.00    +0.149 HD 
DOCKED: BRANCH   2   6
DOCKED: ATOM      6  C4  UNL     1      10.672  -8.944   1.663 +0.00 +0.00    +0.160 C  
DOCKED: BRANCH   6   7
DOCKED: ATOM      7  N1  UNL     1      10.252  -7.782   0.875 +0.00 -0.00    -0.302 N  
DOCKED: ATOM      8  C5  UNL     1       9.006  -7.197   0.949 +0.00 +0.00    +0.234 C  
DOCKED: ATOM      9  O1  UNL     1       8.199  -7.413   1.851 +0.00 -0.00    -0.274 OA 
DOCKED: ATOM     10  H9  UNL     1      10.700  -7.716  -0.031 +0.00 +0.00    +0.150 HD 
DOCKED: BRANCH   8  11
DOCKED: ATOM     11  C6  UNL     1       8.702  -6.179  -0.176 +0.00 +0.00    +0.165 C  
DOCKED: BRANCH  11  12
DOCKED: ATOM     12  N2  UNL     1       8.129  -6.930  -1.286 +0.00 -0.00    -0.270 N  
DOCKED: ATOM     13  C7  UNL     1       8.818  -7.845  -2.009 +0.00 +0.00    +0.401 C  
DOCKED: ATOM     14  O2  UNL     1      10.006  -8.096  -1.867 +0.00 -0.00    -0.226 OA 
DOCKED: ATOM     15  H11 UNL     1       7.125  -6.899  -1.420 +0.00 +0.00    +0.153 HD 
DOCKED: BRANCH  13  16
DOCKED: ATOM     16  O3  UNL     1       7.972  -8.429  -2.887 +0.00 -0.00    -0.445 OA 
DOCKED: BRANCH  16  17
DOCKED: ATOM     17  C8  UNL     1       8.069  -8.164  -4.310 +0.00 +0.00    +0.107 C  
DOCKED: ATOM     18  C9  UNL     1       9.525  -8.231  -4.782 +0.00 +0.00    +0.055 C  
DOCKED: ATOM     19  C10 UNL     1       7.403  -6.831  -4.674 +0.00 +0.00    +0.055 C  
DOCKED: ATOM     20  C11 UNL     1       7.282  -9.301  -4.977 +0.00 +0.00    +0.055 C  
DOCKED: ENDBRANCH  16  17
DOCKED: ENDBRANCH  13  16
DOCKED: ENDBRANCH  11  12
DOCKED: BRANCH  11  21
DOCKED: ATOM     21  C12 UNL     1       7.770  -5.023   0.253 +0.00 +0.00    +0.012 C  
DOCKED: ATOM     22  C13 UNL     1       6.800  -4.601  -0.852 +0.00 +0.00    +0.009 C  
DOCKED: ATOM     23  C14 UNL     1       8.531  -3.801   0.774 +0.00 +0.00    +0.009 C  
DOCKED: ENDBRANCH  11  21
DOCKED: ENDBRANCH   8  11
DOCKED: ENDBRANCH   6   7
DOCKED: BRANCH   6  24
DOCKED: ATOM     24  C3  UNL     1       9.601  -9.991   2.009 +0.00 +0.00    +0.042 C  
DOCKED: BRANCH  24  25
DOCKED: ATOM     25  C2  UNL     1       9.193 -10.871   0.829 +0.00 +0.00    +0.071 C  
DOCKED: BRANCH  25  27
DOCKED: ATOM     26  C1  UNL     1       7.747 -11.195  -1.510 +0.00 +0.00    +0.084 C  
DOCKED: ATOM     27  S1  UNL     1       7.626 -10.312   0.069 +0.00 -0.00    -0.164 S  
DOCKED: ENDBRANCH  25  27
DOCKED: ENDBRANCH  24  25
DOCKED: ENDBRANCH   6  24
DOCKED: ENDBRANCH   2   6
DOCKED: ENDBRANCH   1   4
DOCKED: BRANCH   1  28
DOCKED: ATOM     28  C21 UNL     1      13.488  -8.763  -2.132 +0.00 +0.00    +0.143 C  
DOCKED: BRANCH  28  29
DOCKED: ATOM     29  O5  UNL     1      12.415  -8.332  -2.985 +0.00 -0.00    -0.389 OA 
DOCKED: ATOM     30  H40 UNL     1      11.672  -8.056  -2.407 +0.00 +0.00    +0.210 HD 
DOCKED: ENDBRANCH  28  29
DOCKED: BRANCH  28  31
DOCKED: ATOM     31  C22 UNL     1      14.106  -7.532  -1.474 +0.00 +0.00    +0.129 C  
DOCKED: BRANCH  31  32
DOCKED: ATOM     32  C23 UNL     1      13.117  -6.658  -0.738 +0.00 +0.00    +0.216 C  
DOCKED: ATOM     33  O6  UNL     1      11.903  -6.709  -0.892 +0.00 -0.00    -0.276 OA 
DOCKED: ATOM     34  N4  UNL     1      13.723  -5.794   0.147 +0.00 -0.00    -0.304 N  
DOCKED: ATOM     35  H43 UNL     1      14.718  -5.631   0.039 +0.00 +0.00    +0.149 HD 
DOCKED: BRANCH  34  36
DOCKED: ATOM     36  C24 UNL     1      12.994  -4.778   0.915 +0.00 +0.00    +0.161 C  
DOCKED: BRANCH  36  37
DOCKED: ATOM     37  C25 UNL     1      12.462  -3.707  -0.066 +0.00 +0.00    +0.234 C  
DOCKED: ATOM     38  O7  UNL     1      12.995  -2.603  -0.162 +0.00 -0.00    -0.274 OA 
DOCKED: ATOM     39  N5  UNL     1      11.409  -4.117  -0.852 +0.00 -0.00    -0.311 N  
DOCKED: ATOM     40  H45 UNL     1      11.209  -5.119  -0.864 +0.00 +0.00    +0.149 HD 
DOCKED: BRANCH  39  41
DOCKED: ATOM     41  C26 UNL     1      10.843  -3.292  -1.910 +0.00 +0.00    +0.073 C  
DOCKED: ATOM     42  C27 UNL     1       9.648  -3.987  -2.580 +0.00 +0.00    +0.022 C  
DOCKED: ATOM     43  C28 UNL     1      10.075  -5.182  -3.432 +0.00 +0.00    +0.002 C  
DOCKED: ATOM     44  C29 UNL     1      11.131  -4.790  -4.460 +0.00 +0.00    +0.000 C  
DOCKED: ATOM     45  C30 UNL     1      12.334  -4.117  -3.810 +0.00 +0.00    +0.002 C  
DOCKED: ATOM     46  C31 UNL     1      11.918  -2.928  -2.944 +0.00 +0.00    +0.022 C  
DOCKED: ENDBRANCH  39  41
DOCKED: ENDBRANCH  36  37
DOCKED: BRANCH  36  47
DOCKED: ATOM     47  C32 UNL     1      11.918  -5.325   1.883 +0.00 +0.00    +0.012 C  
DOCKED: ATOM     48  C33 UNL     1      11.290  -4.184   2.693 +0.00 +0.00    +0.009 C  
DOCKED: ATOM     49  C34 UNL     1      12.503  -6.361   2.849 +0.00 +0.00    +0.009 C  
DOCKED: ENDBRANCH  36  47
DOCKED: ENDBRANCH  34  36
DOCKED: ENDBRANCH  31  32
DOCKED: ENDBRANCH  28  31
DOCKED: ENDBRANCH   1  28
DOCKED: BRANCH   1  50
DOCKED: ATOM     50  C17 UNL     1      12.699 -11.210  -1.978 +0.00 +0.00    +0.028 C  
DOCKED: BRANCH  50  51
DOCKED: ATOM     51  C18 UNL     1      11.200 -11.546  -2.165 +0.00 -0.00    -0.015 C  
DOCKED: ATOM     52  C19 UNL     1      10.710 -11.293  -3.592 +0.00 +0.00    +0.007 C  
DOCKED: ATOM     53  C20 UNL     1      10.823 -12.955  -1.710 +0.00 +0.00    +0.007 C  
DOCKED: ENDBRANCH  50  51
DOCKED: ENDBRANCH   1  50
DOCKED: TORSDOF 21
DOCKED: TER
DOCKED: ENDMDL
________________________________________________________________________________


    FINAL DOCKED STATE:
    ________________________


Run:   3 / 20
Time taken for this run:   1.281s

DOCKED: MODEL        3
DOCKED: USER    Run = 3
DOCKED: USER
DOCKED: USER    Estimated Free Energy of Binding    =  +6.26 kcal/mol  [=(1)+(2)+(3)-(4)]
DOCKED: USER
DOCKED: USER    (1) Final Intermolecular Energy     =  +0.00 kcal/mol
DOCKED: USER        vdW + Hbond + desolv Energy     =  +0.00 kcal/mol
DOCKED: USER        Electrostatic Energy            =  +0.00 kcal/mol
DOCKED: USER        Moving Ligand-Fixed Receptor    =  +0.00 kcal/mol
DOCKED: USER        Moving Ligand-Moving Receptor   =  +0.00 kcal/mol
DOCKED: USER    (2) Final Total Internal Energy     = -13.63 kcal/mol
DOCKED: USER    (3) Torsional Free Energy           =  +6.26 kcal/mol
DOCKED: USER    (4) Unbound System's Energy         = -13.63 kcal/mol
DOCKED: USER
DOCKED: USER
DOCKED: REMARK  Name = ligands/ligand_49.pdb
DOCKED: REMARK  31 active torsions:
DOCKED: REMARK  status: ('A' for Active; 'I' for Inactive)
DOCKED: REMARK    1  A    between atoms: C1_1  and  S1_2
DOCKED: REMARK    2  A    between atoms: S1_2  and  C2_3
DOCKED: REMARK    3  A    between atoms: C2_3  and  C3_4
DOCKED: REMARK    4  A    between atoms: C3_4  and  C4_5
DOCKED: REMARK    5  A    between atoms: C4_5  and  N1_6
DOCKED: REMARK    6  A    between atoms: C4_5  and  C15_21
DOCKED: REMARK    7  A    between atoms: C5_7  and  C6_9
DOCKED: REMARK    8  A    between atoms: C6_9  and  N2_10
DOCKED: REMARK    9  A    between atoms: C6_9  and  C12_18
DOCKED: REMARK   10  A    between atoms: C7_11  and  O3_13
DOCKED: REMARK   11  A    between atoms: O3_13  and  C8_14
DOCKED: REMARK   12  A    between atoms: C8_14  and  C9_15
DOCKED: REMARK   13  A    between atoms: C8_14  and  C10_16
DOCKED: REMARK   14  A    between atoms: C8_14  and  C11_17
DOCKED: REMARK   15  A    between atoms: C12_18  and  C13_19
DOCKED: REMARK   16  A    between atoms: C12_18  and  C14_20
DOCKED: REMARK   17  A    between atoms: N3_23  and  C16_24
DOCKED: REMARK   18  A    between atoms: C16_24  and  C17_25
DOCKED: REMARK   19  A    between atoms: C16_24  and  C21_29
DOCKED: REMARK   20  A    between atoms: C17_25  and  C18_26
DOCKED: REMARK   21  A    between atoms: C18_26  and  C19_27
DOCKED: REMARK   22  A    between atoms: C18_26  and  C20_28
DOCKED: REMARK   23  A    between atoms: C21_29  and  O5_30
DOCKED: REMARK   24  A    between atoms: C21_29  and  C22_31
DOCKED: REMARK   25  A    between atoms: C22_31  and  C23_32
DOCKED: REMARK   26  A    between atoms: N4_34  and  C24_35
DOCKED: REMARK   27  A    between atoms: C24_35  and  C25_36
DOCKED: REMARK   28  A    between atoms: C24_35  and  C32_45
DOCKED: REMARK   29  A    between atoms: N5_38  and  C26_39
DOCKED: REMARK   30  A    between atoms: C32_45  and  C33_46
DOCKED: REMARK   31  A    between atoms: C32_45  and  C34_47
DOCKED: REMARK                            x       y       z     vdW  Elec       q    Type
DOCKED: REMARK                         _______ _______ _______ _____ _____    ______ ____
DOCKED: USER                              x       y       z     vdW  Elec       q    Type
DOCKED: USER                           _______ _______ _______ _____ _____    ______ ____
DOCKED: ROOT
DOCKED: ATOM      1  C16 UNL     1       6.995  -7.250  -4.865 +0.00 +0.00    +0.102 C  
DOCKED: ENDROOT
DOCKED: BRANCH   1   4
DOCKED: ATOM      2  C15 UNL     1       8.239  -5.731  -6.381 +0.00 +0.00    +0.234 C  
DOCKED: ATOM      3  O4  UNL     1       7.209  -5.392  -6.961 +0.00 -0.00    -0.274 OA 
DOCKED: ATOM      4  N3  UNL     1       8.247  -6.695  -5.388 +0.00 -0.00    -0.308 N  
DOCKED: ATOM      5  H28 UNL     1       9.075  -6.777  -4.811 +0.00 +0.00    +0.149 HD 
DOCKED: BRANCH   2   6
DOCKED: ATOM      6  C4  UNL     1       9.627  -5.136  -6.695 +0.00 +0.00    +0.160 C  
DOCKED: BRANCH   6   7
DOCKED: ATOM      7  N1  UNL     1       9.993  -4.183  -5.644 +0.00 -0.00    -0.302 N  
DOCKED: ATOM      8  C5  UNL     1      11.211  -4.163  -4.998 +0.00 +0.00    +0.234 C  
DOCKED: ATOM      9  O1  UNL     1      12.208  -4.764  -5.394 +0.00 -0.00    -0.274 OA 
DOCKED: ATOM     10  H9  UNL     1       9.210  -3.865  -5.087 +0.00 +0.00    +0.150 HD 
DOCKED: BRANCH   8  11
DOCKED: ATOM     11  C6  UNL     1      11.260  -3.265  -3.738 +0.00 +0.00    +0.165 C  
DOCKED: BRANCH  11  12
DOCKED: ATOM     12  N2  UNL     1      10.984  -4.123  -2.593 +0.00 -0.00    -0.270 N  
DOCKED: ATOM     13  C7  UNL     1      10.015  -5.071  -2.581 +0.00 +0.00    +0.401 C  
DOCKED: ATOM     14  O2  UNL     1       9.221  -5.269  -3.489 +0.00 -0.00    -0.226 OA 
DOCKED: ATOM     15  H11 UNL     1      11.652  -4.137  -1.831 +0.00 +0.00    +0.153 HD 
DOCKED: BRANCH  13  16
DOCKED: ATOM     16  O3  UNL     1      10.093  -5.752  -1.416 +0.00 -0.00    -0.445 OA 
DOCKED: BRANCH  16  17
DOCKED: ATOM     17  C8  UNL     1      11.041  -6.836  -1.243 +0.00 +0.00    +0.107 C  
DOCKED: ATOM     18  C9  UNL     1      11.685  -7.219  -2.580 +0.00 +0.00    +0.055 C  
DOCKED: ATOM     19  C10 UNL     1      10.392  -8.038  -0.547 +0.00 +0.00    +0.055 C  
DOCKED: ATOM     20  C11 UNL     1      12.127  -6.264  -0.320 +0.00 +0.00    +0.055 C  
DOCKED: ENDBRANCH  16  17
DOCKED: ENDBRANCH  13  16
DOCKED: ENDBRANCH  11  12
DOCKED: BRANCH  11  21
DOCKED: ATOM     21  C12 UNL     1      12.594  -2.506  -3.556 +0.00 +0.00    +0.012 C  
DOCKED: ATOM     22  C13 UNL     1      13.037  -1.772  -4.823 +0.00 +0.00    +0.009 C  
DOCKED: ATOM     23  C14 UNL     1      13.728  -3.400  -3.047 +0.00 +0.00    +0.009 C  
DOCKED: ENDBRANCH  11  21
DOCKED: ENDBRANCH   8  11
DOCKED: ENDBRANCH   6   7
DOCKED: BRANCH   6  24
DOCKED: ATOM     24  C3  UNL     1      10.627  -6.258  -7.015 +0.00 +0.00    +0.042 C  
DOCKED: BRANCH  24  25
DOCKED: ATOM     25  C2  UNL     1      10.052  -7.369  -7.892 +0.00 +0.00    +0.071 C  
DOCKED: BRANCH  25  27
DOCKED: ATOM     26  C1  UNL     1      10.900  -8.547  -5.534 +0.00 +0.00    +0.084 C  
DOCKED: ATOM     27  S1  UNL     1       9.878  -8.943  -6.978 +0.00 -0.00    -0.164 S  
DOCKED: ENDBRANCH  25  27
DOCKED: ENDBRANCH  24  25
DOCKED: ENDBRANCH   6  24
DOCKED: ENDBRANCH   2   6
DOCKED: ENDBRANCH   1   4
DOCKED: BRANCH   1  28
DOCKED: ATOM     28  C21 UNL     1       7.295  -7.970  -3.512 +0.00 +0.00    +0.143 C  
DOCKED: BRANCH  28  29
DOCKED: ATOM     29  O5  UNL     1       8.648  -7.744  -3.083 +0.00 -0.00    -0.389 OA 
DOCKED: ATOM     30  H40 UNL     1       8.628  -7.034  -2.407 +0.00 +0.00    +0.210 HD 
DOCKED: ENDBRANCH  28  29
DOCKED: BRANCH  28  31
DOCKED: ATOM     31  C22 UNL     1       6.362  -7.675  -2.340 +0.00 +0.00    +0.129 C  
DOCKED: BRANCH  31  32
DOCKED: ATOM     32  C23 UNL     1       6.018  -6.213  -2.172 +0.00 +0.00    +0.216 C  
DOCKED: ATOM     33  O6  UNL     1       4.884  -5.757  -2.252 +0.00 -0.00    -0.276 OA 
DOCKED: ATOM     34  N4  UNL     1       7.119  -5.432  -1.900 +0.00 -0.00    -0.304 N  
DOCKED: ATOM     35  H43 UNL     1       8.034  -5.825  -2.097 +0.00 +0.00    +0.149 HD 
DOCKED: BRANCH  34  36
DOCKED: ATOM     36  C24 UNL     1       7.068  -3.970  -1.787 +0.00 +0.00    +0.161 C  
DOCKED: BRANCH  36  37
DOCKED: ATOM     37  C25 UNL     1       7.081  -3.365  -3.210 +0.00 +0.00    +0.234 C  
DOCKED: ATOM     38  O7  UNL     1       8.055  -2.746  -3.636 +0.00 -0.00    -0.274 OA 
DOCKED: ATOM     39  N5  UNL     1       5.960  -3.635  -3.962 +0.00 -0.00    -0.311 N  
DOCKED: ATOM     40  H45 UNL     1       5.330  -4.356  -3.603 +0.00 +0.00    +0.149 HD 
DOCKED: BRANCH  39  41
DOCKED: ATOM     41  C26 UNL     1       5.832  -3.247  -5.359 +0.00 +0.00    +0.073 C  
DOCKED: ATOM     42  C27 UNL     1       5.599  -1.736  -5.499 +0.00 +0.00    +0.022 C  
DOCKED: ATOM     43  C28 UNL     1       4.209  -1.316  -5.022 +0.00 +0.00    +0.002 C  
DOCKED: ATOM     44  C29 UNL     1       3.111  -2.108  -5.724 +0.00 +0.00    +0.000 C  
DOCKED: ATOM     45  C30 UNL     1       3.315  -3.612  -5.578 +0.00 +0.00    +0.002 C  
DOCKED: ATOM     46  C31 UNL     1       4.707  -4.042  -6.039 +0.00 +0.00    +0.022 C  
DOCKED: ENDBRANCH  39  41
DOCKED: ENDBRANCH  36  37
DOCKED: BRANCH  36  47
DOCKED: ATOM     47  C32 UNL     1       5.941  -3.415  -0.884 +0.00 +0.00    +0.012 C  
DOCKED: ATOM     48  C33 UNL     1       5.629  -1.957  -1.243 +0.00 +0.00    +0.009 C  
DOCKED: ATOM     49  C34 UNL     1       6.316  -3.496   0.600 +0.00 +0.00    +0.009 C  
DOCKED: ENDBRANCH  36  47
DOCKED: ENDBRANCH  34  36
DOCKED: ENDBRANCH  31  32
DOCKED: ENDBRANCH  28  31
DOCKED: ENDBRANCH   1  28
DOCKED: BRANCH   1  50
DOCKED: ATOM     50  C17 UNL     1       6.342  -8.193  -5.894 +0.00 +0.00    +0.028 C  
DOCKED: BRANCH  50  51
DOCKED: ATOM     51  C18 UNL     1       4.845  -7.964  -6.214 +0.00 -0.00    -0.015 C  
DOCKED: ATOM     52  C19 UNL     1       4.100  -7.252  -5.084 +0.00 +0.00    +0.007 C  
DOCKED: ATOM     53  C20 UNL     1       4.602  -7.257  -7.547 +0.00 +0.00    +0.007 C  
DOCKED: ENDBRANCH  50  51
DOCKED: ENDBRANCH   1  50
DOCKED: TORSDOF 21
DOCKED: TER
DOCKED: ENDMDL
________________________________________________________________________________


    FINAL DOCKED STATE:
    ________________________


Run:   4 / 20
Time taken for this run:   1.281s

DOCKED: MODEL        4
DOCKED: USER    Run = 4
DOCKED: USER
DOCKED: USER    Estimated Free Energy of Binding    =  +6.26 kcal/mol  [=(1)+(2)+(3)-(4)]
DOCKED: USER
DOCKED: USER    (1) Final Intermolecular Energy     =  +0.00 kcal/mol
DOCKED: USER        vdW + Hbond + desolv Energy     =  +0.00 kcal/mol
DOCKED: USER        Electrostatic Energy            =  +0.00 kcal/mol
DOCKED: USER        Moving Ligand-Fixed Receptor    =  +0.00 kcal/mol
DOCKED: USER        Moving Ligand-Moving Receptor   =  +0.00 kcal/mol
DOCKED: USER    (2) Final Total Internal Energy     = -13.57 kcal/mol
DOCKED: USER    (3) Torsional Free Energy           =  +6.26 kcal/mol
DOCKED: USER    (4) Unbound System's Energy         = -13.57 kcal/mol
DOCKED: USER
DOCKED: USER
DOCKED: REMARK  Name = ligands/ligand_49.pdb
DOCKED: REMARK  31 active torsions:
DOCKED: REMARK  status: ('A' for Active; 'I' for Inactive)
DOCKED: REMARK    1  A    between atoms: C1_1  and  S1_2
DOCKED: REMARK    2  A    between atoms: S1_2  and  C2_3
DOCKED: REMARK    3  A    between atoms: C2_3  and  C3_4
DOCKED: REMARK    4  A    between atoms: C3_4  and  C4_5
DOCKED: REMARK    5  A    between atoms: C4_5  and  N1_6
DOCKED: REMARK    6  A    between atoms: C4_5  and  C15_21
DOCKED: REMARK    7  A    between atoms: C5_7  and  C6_9
DOCKED: REMARK    8  A    between atoms: C6_9  and  N2_10
DOCKED: REMARK    9  A    between atoms: C6_9  and  C12_18
DOCKED: REMARK   10  A    between atoms: C7_11  and  O3_13
DOCKED: REMARK   11  A    between atoms: O3_13  and  C8_14
DOCKED: REMARK   12  A    between atoms: C8_14  and  C9_15
DOCKED: REMARK   13  A    between atoms: C8_14  and  C10_16
DOCKED: REMARK   14  A    between atoms: C8_14  and  C11_17
DOCKED: REMARK   15  A    between atoms: C12_18  and  C13_19
DOCKED: REMARK   16  A    between atoms: C12_18  and  C14_20
DOCKED: REMARK   17  A    between atoms: N3_23  and  C16_24
DOCKED: REMARK   18  A    between atoms: C16_24  and  C17_25
DOCKED: REMARK   19  A    between atoms: C16_24  and  C21_29
DOCKED: REMARK   20  A    between atoms: C17_25  and  C18_26
DOCKED: REMARK   21  A    between atoms: C18_26  and  C19_27
DOCKED: REMARK   22  A    between atoms: C18_26  and  C20_28
DOCKED: REMARK   23  A    between atoms: C21_29  and  O5_30
DOCKED: REMARK   24  A    between atoms: C21_29  and  C22_31
DOCKED: REMARK   25  A    between atoms: C22_31  and  C23_32
DOCKED: REMARK   26  A    between atoms: N4_34  and  C24_35
DOCKED: REMARK   27  A    between atoms: C24_35  and  C25_36
DOCKED: REMARK   28  A    between atoms: C24_35  and  C32_45
DOCKED: REMARK   29  A    between atoms: N5_38  and  C26_39
DOCKED: REMARK   30  A    between atoms: C32_45  and  C33_46
DOCKED: REMARK   31  A    between atoms: C32_45  and  C34_47
DOCKED: REMARK                            x       y       z     vdW  Elec       q    Type
DOCKED: REMARK                         _______ _______ _______ _____ _____    ______ ____
DOCKED: USER                              x       y       z     vdW  Elec       q    Type
DOCKED: USER                           _______ _______ _______ _____ _____    ______ ____
DOCKED: ROOT
DOCKED: ATOM      1  C16 UNL     1      12.961  -6.813   1.299 +0.00 +0.00    +0.102 C  
DOCKED: ENDROOT
DOCKED: BRANCH   1   4
DOCKED: ATOM      2  C15 UNL     1      14.549  -7.431  -0.505 +0.00 +0.00    +0.234 C  
DOCKED: ATOM      3  O4  UNL     1      14.335  -6.385  -1.115 +0.00 -0.00    -0.274 OA 
DOCKED: ATOM      4  N3  UNL     1      13.867  -7.768   0.652 +0.00 -0.00    -0.308 N  
DOCKED: ATOM      5  H28 UNL     1      14.230  -8.527   1.214 +0.00 +0.00    +0.149 HD 
DOCKED: BRANCH   2   6
DOCKED: ATOM      6  C4  UNL     1      15.583  -8.482  -0.957 +0.00 +0.00    +0.160 C  
DOCKED: BRANCH   6   7
DOCKED: ATOM      7  N1  UNL     1      16.714  -8.479  -0.027 +0.00 -0.00    -0.302 N  
DOCKED: ATOM      8  C5  UNL     1      17.315  -9.614   0.477 +0.00 +0.00    +0.234 C  
DOCKED: ATOM      9  O1  UNL     1      17.144 -10.742   0.017 +0.00 -0.00    -0.274 OA 
DOCKED: ATOM     10  H9  UNL     1      16.737  -7.676   0.589 +0.00 +0.00    +0.150 HD 
DOCKED: BRANCH   8  11
DOCKED: ATOM     11  C6  UNL     1      18.287  -9.363   1.654 +0.00 +0.00    +0.165 C  
DOCKED: BRANCH  11  12
DOCKED: ATOM     12  N2  UNL     1      17.525  -9.545   2.882 +0.00 -0.00    -0.270 N  
DOCKED: ATOM     13  C7  UNL     1      16.302  -9.001   3.095 +0.00 +0.00    +0.401 C  
DOCKED: ATOM     14  O2  UNL     1      15.731  -8.244   2.323 +0.00 -0.00    -0.226 OA 
DOCKED: ATOM     15  H11 UNL     1      17.837 -10.247   3.543 +0.00 +0.00    +0.153 HD 
DOCKED: BRANCH  13  16
DOCKED: ATOM     16  O3  UNL     1      15.831  -9.446   4.282 +0.00 -0.00    -0.445 OA 
DOCKED: BRANCH  16  17
DOCKED: ATOM     17  C8  UNL     1      15.260 -10.772   4.411 +0.00 +0.00    +0.107 C  
DOCKED: ATOM     18  C9  UNL     1      16.218 -11.713   5.149 +0.00 +0.00    +0.055 C  
DOCKED: ATOM     19  C10 UNL     1      14.836 -11.331   3.047 +0.00 +0.00    +0.055 C  
DOCKED: ATOM     20  C11 UNL     1      14.002 -10.577   5.270 +0.00 +0.00    +0.055 C  
DOCKED: ENDBRANCH  16  17
DOCKED: ENDBRANCH  13  16
DOCKED: ENDBRANCH  11  12
DOCKED: BRANCH  11  21
DOCKED: ATOM     21  C12 UNL     1      19.542 -10.266   1.639 +0.00 +0.00    +0.012 C  
DOCKED: ATOM     22  C13 UNL     1      20.345 -10.186   2.938 +0.00 +0.00    +0.009 C  
DOCKED: ATOM     23  C14 UNL     1      20.458  -9.999   0.442 +0.00 +0.00    +0.009 C  
DOCKED: ENDBRANCH  11  21
DOCKED: ENDBRANCH   8  11
DOCKED: ENDBRANCH   6   7
DOCKED: BRANCH   6  24
DOCKED: ATOM     24  C3  UNL     1      14.890  -9.828  -1.228 +0.00 +0.00    +0.042 C  
DOCKED: BRANCH  24  25
DOCKED: ATOM     25  C2  UNL     1      13.594  -9.707  -2.028 +0.00 +0.00    +0.071 C  
DOCKED: BRANCH  25  27
DOCKED: ATOM     26  C1  UNL     1      12.904 -10.816   0.414 +0.00 +0.00    +0.084 C  
DOCKED: ATOM     27  S1  UNL     1      12.117  -9.968  -0.982 +0.00 -0.00    -0.164 S  
DOCKED: ENDBRANCH  25  27
DOCKED: ENDBRANCH  24  25
DOCKED: ENDBRANCH   6  24
DOCKED: ENDBRANCH   2   6
DOCKED: ENDBRANCH   1   4
DOCKED: BRANCH   1  28
DOCKED: ATOM     28  C21 UNL     1      12.595  -7.356   2.716 +0.00 +0.00    +0.143 C  
DOCKED: BRANCH  28  29
DOCKED: ATOM     29  O5  UNL     1      13.347  -8.536   3.040 +0.00 -0.00    -0.389 OA 
DOCKED: ATOM     30  H40 UNL     1      14.268  -8.256   3.231 +0.00 +0.00    +0.210 HD 
DOCKED: ENDBRANCH  28  29
DOCKED: BRANCH  28  31
DOCKED: ATOM     31  C22 UNL     1      12.698  -6.381   3.887 +0.00 +0.00    +0.129 C  
DOCKED: BRANCH  31  32
DOCKED: ATOM     32  C23 UNL     1      14.024  -5.662   3.982 +0.00 +0.00    +0.216 C  
DOCKED: ATOM     33  O6  UNL     1      14.169  -4.458   3.810 +0.00 -0.00    -0.276 OA 
DOCKED: ATOM     34  N4  UNL     1      15.066  -6.503   4.300 +0.00 -0.00    -0.304 N  
DOCKED: ATOM     35  H43 UNL     1      14.921  -7.500   4.179 +0.00 +0.00    +0.149 HD 
DOCKED: BRANCH  34  36
DOCKED: ATOM     36  C24 UNL     1      16.468  -6.069   4.361 +0.00 +0.00    +0.161 C  
DOCKED: BRANCH  36  37
DOCKED: ATOM     37  C25 UNL     1      16.876  -5.530   2.971 +0.00 +0.00    +0.234 C  
DOCKED: ATOM     38  O7  UNL     1      17.291  -6.279   2.088 +0.00 -0.00    -0.274 OA 
DOCKED: ATOM     39  N5  UNL     1      16.673  -4.180   2.793 +0.00 -0.00    -0.311 N  
DOCKED: ATOM     40  H45 UNL     1      16.102  -3.706   3.495 +0.00 +0.00    +0.149 HD 
DOCKED: BRANCH  39  41
DOCKED: ATOM     41  C26 UNL     1      16.893  -3.507   1.521 +0.00 +0.00    +0.073 C  
DOCKED: ATOM     42  C27 UNL     1      16.552  -2.013   1.614 +0.00 +0.00    +0.022 C  
DOCKED: ATOM     43  C28 UNL     1      15.049  -1.767   1.741 +0.00 +0.00    +0.002 C  
DOCKED: ATOM     44  C29 UNL     1      14.273  -2.438   0.612 +0.00 +0.00    +0.000 C  
DOCKED: ATOM     45  C30 UNL     1      14.584  -3.927   0.518 +0.00 +0.00    +0.002 C  
DOCKED: ATOM     46  C31 UNL     1      16.085  -4.186   0.405 +0.00 +0.00    +0.022 C  
DOCKED: ENDBRANCH  39  41
DOCKED: ENDBRANCH  36  37
DOCKED: BRANCH  36  47
DOCKED: ATOM     47  C32 UNL     1      16.815  -5.114   5.527 +0.00 +0.00    +0.012 C  
DOCKED: ATOM     48  C33 UNL     1      18.331  -4.902   5.618 +0.00 +0.00    +0.009 C  
DOCKED: ATOM     49  C34 UNL     1      16.304  -5.652   6.868 +0.00 +0.00    +0.009 C  
DOCKED: ENDBRANCH  36  47
DOCKED: ENDBRANCH  34  36
DOCKED: ENDBRANCH  31  32
DOCKED: ENDBRANCH  28  31
DOCKED: ENDBRANCH   1  28
DOCKED: BRANCH   1  50
DOCKED: ATOM     50  C17 UNL     1      11.714  -6.566   0.428 +0.00 +0.00    +0.028 C  
DOCKED: BRANCH  50  51
DOCKED: ATOM     51  C18 UNL     1      11.172  -5.118   0.363 +0.00 -0.00    -0.015 C  
DOCKED: ATOM     52  C19 UNL     1      11.491  -4.309   1.622 +0.00 +0.00    +0.007 C  
DOCKED: ATOM     53  C20 UNL     1      11.601  -4.355  -0.889 +0.00 +0.00    +0.007 C  
DOCKED: ENDBRANCH  50  51
DOCKED: ENDBRANCH   1  50
DOCKED: TORSDOF 21
DOCKED: TER
DOCKED: ENDMDL
________________________________________________________________________________


    FINAL DOCKED STATE:
    ________________________


Run:   5 / 20
Time taken for this run:   1.281s

DOCKED: MODEL        5
DOCKED: USER    Run = 5
DOCKED: USER
DOCKED: USER    Estimated Free Energy of Binding    =  +6.26 kcal/mol  [=(1)+(2)+(3)-(4)]
DOCKED: USER
DOCKED: USER    (1) Final Intermolecular Energy     =  +0.00 kcal/mol
DOCKED: USER        vdW + Hbond + desolv Energy     =  +0.00 kcal/mol
DOCKED: USER        Electrostatic Energy            =  +0.00 kcal/mol
DOCKED: USER        Moving Ligand-Fixed Receptor    =  +0.00 kcal/mol
DOCKED: USER        Moving Ligand-Moving Receptor   =  +0.00 kcal/mol
DOCKED: USER    (2) Final Total Internal Energy     = -13.94 kcal/mol
DOCKED: USER    (3) Torsional Free Energy           =  +6.26 kcal/mol
DOCKED: USER    (4) Unbound System's Energy         = -13.94 kcal/mol
DOCKED: USER
DOCKED: USER
DOCKED: REMARK  Name = ligands/ligand_49.pdb
DOCKED: REMARK  31 active torsions:
DOCKED: REMARK  status: ('A' for Active; 'I' for Inactive)
DOCKED: REMARK    1  A    between atoms: C1_1  and  S1_2
DOCKED: REMARK    2  A    between atoms: S1_2  and  C2_3
DOCKED: REMARK    3  A    between atoms: C2_3  and  C3_4
DOCKED: REMARK    4  A    between atoms: C3_4  and  C4_5
DOCKED: REMARK    5  A    between atoms: C4_5  and  N1_6
DOCKED: REMARK    6  A    between atoms: C4_5  and  C15_21
DOCKED: REMARK    7  A    between atoms: C5_7  and  C6_9
DOCKED: REMARK    8  A    between atoms: C6_9  and  N2_10
DOCKED: REMARK    9  A    between atoms: C6_9  and  C12_18
DOCKED: REMARK   10  A    between atoms: C7_11  and  O3_13
DOCKED: REMARK   11  A    between atoms: O3_13  and  C8_14
DOCKED: REMARK   12  A    between atoms: C8_14  and  C9_15
DOCKED: REMARK   13  A    between atoms: C8_14  and  C10_16
DOCKED: REMARK   14  A    between atoms: C8_14  and  C11_17
DOCKED: REMARK   15  A    between atoms: C12_18  and  C13_19
DOCKED: REMARK   16  A    between atoms: C12_18  and  C14_20
DOCKED: REMARK   17  A    between atoms: N3_23  and  C16_24
DOCKED: REMARK   18  A    between atoms: C16_24  and  C17_25
DOCKED: REMARK   19  A    between atoms: C16_24  and  C21_29
DOCKED: REMARK   20  A    between atoms: C17_25  and  C18_26
DOCKED: REMARK   21  A    between atoms: C18_26  and  C19_27
DOCKED: REMARK   22  A    between atoms: C18_26  and  C20_28
DOCKED: REMARK   23  A    between atoms: C21_29  and  O5_30
DOCKED: REMARK   24  A    between atoms: C21_29  and  C22_31
DOCKED: REMARK   25  A    between atoms: C22_31  and  C23_32
DOCKED: REMARK   26  A    between atoms: N4_34  and  C24_35
DOCKED: REMARK   27  A    between atoms: C24_35  and  C25_36
DOCKED: REMARK   28  A    between atoms: C24_35  and  C32_45
DOCKED: REMARK   29  A    between atoms: N5_38  and  C26_39
DOCKED: REMARK   30  A    between atoms: C32_45  and  C33_46
DOCKED: REMARK   31  A    between atoms: C32_45  and  C34_47
DOCKED: REMARK                            x       y       z     vdW  Elec       q    Type
DOCKED: REMARK                         _______ _______ _______ _____ _____    ______ ____
DOCKED: USER                              x       y       z     vdW  Elec       q    Type
DOCKED: USER                           _______ _______ _______ _____ _____    ______ ____
DOCKED: ROOT
DOCKED: ATOM      1  C16 UNL     1       9.441  -8.385  -2.018 +0.00 +0.00    +0.102 C  
DOCKED: ENDROOT
DOCKED: BRANCH   1   4
DOCKED: ATOM      2  C15 UNL     1       8.484  -6.228  -1.251 +0.00 +0.00    +0.234 C  
DOCKED: ATOM      3  O4  UNL     1       7.629  -6.795  -0.574 +0.00 -0.00    -0.274 OA 
DOCKED: ATOM      4  N3  UNL     1       9.372  -6.921  -2.056 +0.00 -0.00    -0.308 N  
DOCKED: ATOM      5  H28 UNL     1      10.175  -6.421  -2.419 +0.00 +0.00    +0.149 HD 
DOCKED: BRANCH   2   6
DOCKED: ATOM      6  C4  UNL     1       8.658  -4.696  -1.291 +0.00 +0.00    +0.160 C  
DOCKED: BRANCH   6   7
DOCKED: ATOM      7  N1  UNL     1       9.731  -4.308  -0.373 +0.00 -0.00    -0.302 N  
DOCKED: ATOM      8  C5  UNL     1      11.069  -4.573  -0.578 +0.00 +0.00    +0.234 C  
DOCKED: ATOM      9  O1  UNL     1      11.541  -4.933  -1.655 +0.00 -0.00    -0.274 OA 
DOCKED: ATOM     10  H9  UNL     1       9.448  -4.272   0.598 +0.00 +0.00    +0.150 HD 
DOCKED: BRANCH   8  11
DOCKED: ATOM     11  C6  UNL     1      11.973  -4.328   0.654 +0.00 +0.00    +0.165 C  
DOCKED: BRANCH  11  12
DOCKED: ATOM     12  N2  UNL     1      11.321  -4.961   1.793 +0.00 -0.00    -0.270 N  
DOCKED: ATOM     13  C7  UNL     1      10.628  -6.122   1.712 +0.00 +0.00    +0.401 C  
DOCKED: ATOM     14  O2  UNL     1      10.409  -6.733   0.676 +0.00 -0.00    -0.226 OA 
DOCKED: ATOM     15  H11 UNL     1      11.534  -4.616   2.722 +0.00 +0.00    +0.153 HD 
DOCKED: BRANCH  13  16
DOCKED: ATOM     16  O3  UNL     1      10.244  -6.484   2.957 +0.00 -0.00    -0.445 OA 
DOCKED: BRANCH  16  17
DOCKED: ATOM     17  C8  UNL     1      10.935  -7.535   3.679 +0.00 +0.00    +0.107 C  
DOCKED: ATOM     18  C9  UNL     1      12.124  -8.065   2.869 +0.00 +0.00    +0.055 C  
DOCKED: ATOM     19  C10 UNL     1       9.971  -8.653   4.092 +0.00 +0.00    +0.055 C  
DOCKED: ATOM     20  C11 UNL     1      11.468  -6.855   4.948 +0.00 +0.00    +0.055 C  
DOCKED: ENDBRANCH  16  17
DOCKED: ENDBRANCH  13  16
DOCKED: ENDBRANCH  11  12
DOCKED: BRANCH  11  21
DOCKED: ATOM     21  C12 UNL     1      13.421  -4.841   0.486 +0.00 +0.00    +0.012 C  
DOCKED: ATOM     22  C13 UNL     1      13.494  -6.352   0.264 +0.00 +0.00    +0.009 C  
DOCKED: ATOM     23  C14 UNL     1      14.338  -4.439   1.646 +0.00 +0.00    +0.009 C  
DOCKED: ENDBRANCH  11  21
DOCKED: ENDBRANCH   8  11
DOCKED: ENDBRANCH   6   7
DOCKED: BRANCH   6  24
DOCKED: ATOM     24  C3  UNL     1       8.758  -4.210  -2.746 +0.00 +0.00    +0.042 C  
DOCKED: BRANCH  24  25
DOCKED: ATOM     25  C2  UNL     1       7.445  -4.302  -3.521 +0.00 +0.00    +0.071 C  
DOCKED: BRANCH  25  27
DOCKED: ATOM     26  C1  UNL     1       5.291  -5.544  -2.303 +0.00 +0.00    +0.084 C  
DOCKED: ATOM     27  S1  UNL     1       6.003  -3.886  -2.476 +0.00 -0.00    -0.164 S  
DOCKED: ENDBRANCH  25  27
DOCKED: ENDBRANCH  24  25
DOCKED: ENDBRANCH   6  24
DOCKED: ENDBRANCH   2   6
DOCKED: ENDBRANCH   1   4
DOCKED: BRANCH   1  28
DOCKED: ATOM     28  C21 UNL     1      10.871  -8.804  -1.552 +0.00 +0.00    +0.143 C  
DOCKED: BRANCH  28  29
DOCKED: ATOM     29  O5  UNL     1      11.815  -7.734  -1.719 +0.00 -0.00    -0.389 OA 
DOCKED: ATOM     30  H40 UNL     1      11.518  -6.989  -1.155 +0.00 +0.00    +0.210 HD 
DOCKED: ENDBRANCH  28  29
DOCKED: BRANCH  28  31
DOCKED: ATOM     31  C22 UNL     1      11.012  -9.356  -0.135 +0.00 +0.00    +0.129 C  
DOCKED: BRANCH  31  32
DOCKED: ATOM     32  C23 UNL     1       9.742  -9.946   0.432 +0.00 +0.00    +0.216 C  
DOCKED: ATOM     33  O6  UNL     1       9.507 -11.147   0.497 +0.00 -0.00    -0.276 OA 
DOCKED: ATOM     34  N4  UNL     1       8.865  -8.988   0.889 +0.00 -0.00    -0.304 N  
DOCKED: ATOM     35  H43 UNL     1       9.008  -8.032   0.578 +0.00 +0.00    +0.149 HD 
DOCKED: BRANCH  34  36
DOCKED: ATOM     36  C24 UNL     1       7.523  -9.294   1.399 +0.00 +0.00    +0.161 C  
DOCKED: BRANCH  36  37
DOCKED: ATOM     37  C25 UNL     1       7.120  -8.198   2.412 +0.00 +0.00    +0.234 C  
DOCKED: ATOM     38  O7  UNL     1       6.428  -8.455   3.396 +0.00 -0.00    -0.274 OA 
DOCKED: ATOM     39  N5  UNL     1       7.650  -6.953   2.157 +0.00 -0.00    -0.311 N  
DOCKED: ATOM     40  H45 UNL     1       8.400  -6.908   1.464 +0.00 +0.00    +0.149 HD 
DOCKED: BRANCH  39  41
DOCKED: ATOM     41  C26 UNL     1       7.477  -5.819   3.054 +0.00 +0.00    +0.073 C  
DOCKED: ATOM     42  C27 UNL     1       6.024  -5.709   3.538 +0.00 +0.00    +0.022 C  
DOCKED: ATOM     43  C28 UNL     1       5.074  -5.262   2.427 +0.00 +0.00    +0.002 C  
DOCKED: ATOM     44  C29 UNL     1       5.539  -3.961   1.781 +0.00 +0.00    +0.000 C  
DOCKED: ATOM     45  C30 UNL     1       6.974  -4.059   1.276 +0.00 +0.00    +0.002 C  
DOCKED: ATOM     46  C31 UNL     1       7.930  -4.519   2.375 +0.00 +0.00    +0.022 C  
DOCKED: ENDBRANCH  39  41
DOCKED: ENDBRANCH  36  37
DOCKED: BRANCH  36  47
DOCKED: ATOM     47  C32 UNL     1       6.451  -9.569   0.318 +0.00 +0.00    +0.012 C  
DOCKED: ATOM     48  C33 UNL     1       5.339  -8.515   0.381 +0.00 +0.00    +0.009 C  
DOCKED: ATOM     49  C34 UNL     1       5.831 -10.961   0.480 +0.00 +0.00    +0.009 C  
DOCKED: ENDBRANCH  36  47
DOCKED: ENDBRANCH  34  36
DOCKED: ENDBRANCH  31  32
DOCKED: ENDBRANCH  28  31
DOCKED: ENDBRANCH   1  28
DOCKED: BRANCH   1  50
DOCKED: ATOM     50  C17 UNL     1       9.074  -8.986  -3.389 +0.00 +0.00    +0.028 C  
DOCKED: BRANCH  50  51
DOCKED: ATOM     51  C18 UNL     1       7.653  -9.577  -3.545 +0.00 -0.00    -0.015 C  
DOCKED: ATOM     52  C19 UNL     1       7.484 -10.913  -2.818 +0.00 +0.00    +0.007 C  
DOCKED: ATOM     53  C20 UNL     1       6.537  -8.608  -3.154 +0.00 +0.00    +0.007 C  
DOCKED: ENDBRANCH  50  51
DOCKED: ENDBRANCH   1  50
DOCKED: TORSDOF 21
DOCKED: TER
DOCKED: ENDMDL
________________________________________________________________________________


    FINAL DOCKED STATE:
    ________________________


Run:   6 / 20
Time taken for this run:   1.281s

DOCKED: MODEL        6
DOCKED: USER    Run = 6
DOCKED: USER
DOCKED: USER    Estimated Free Energy of Binding    =  +6.26 kcal/mol  [=(1)+(2)+(3)-(4)]
DOCKED: USER
DOCKED: USER    (1) Final Intermolecular Energy     =  +0.00 kcal/mol
DOCKED: USER        vdW + Hbond + desolv Energy     =  +0.00 kcal/mol
DOCKED: USER        Electrostatic Energy            =  +0.00 kcal/mol
DOCKED: USER        Moving Ligand-Fixed Receptor    =  +0.00 kcal/mol
DOCKED: USER        Moving Ligand-Moving Receptor   =  +0.00 kcal/mol
DOCKED: USER    (2) Final Total Internal Energy     = -13.52 kcal/mol
DOCKED: USER    (3) Torsional Free Energy           =  +6.26 kcal/mol
DOCKED: USER    (4) Unbound System's Energy         = -13.52 kcal/mol
DOCKED: USER
DOCKED: USER
DOCKED: REMARK  Name = ligands/ligand_49.pdb
DOCKED: REMARK  31 active torsions:
DOCKED: REMARK  status: ('A' for Active; 'I' for Inactive)
DOCKED: REMARK    1  A    between atoms: C1_1  and  S1_2
DOCKED: REMARK    2  A    between atoms: S1_2  and  C2_3
DOCKED: REMARK    3  A    between atoms: C2_3  and  C3_4
DOCKED: REMARK    4  A    between atoms: C3_4  and  C4_5
DOCKED: REMARK    5  A    between atoms: C4_5  and  N1_6
DOCKED: REMARK    6  A    between atoms: C4_5  and  C15_21
DOCKED: REMARK    7  A    between atoms: C5_7  and  C6_9
DOCKED: REMARK    8  A    between atoms: C6_9  and  N2_10
DOCKED: REMARK    9  A    between atoms: C6_9  and  C12_18
DOCKED: REMARK   10  A    between atoms: C7_11  and  O3_13
DOCKED: REMARK   11  A    between atoms: O3_13  and  C8_14
DOCKED: REMARK   12  A    between atoms: C8_14  and  C9_15
DOCKED: REMARK   13  A    between atoms: C8_14  and  C10_16
DOCKED: REMARK   14  A    between atoms: C8_14  and  C11_17
DOCKED: REMARK   15  A    between atoms: C12_18  and  C13_19
DOCKED: REMARK   16  A    between atoms: C12_18  and  C14_20
DOCKED: REMARK   17  A    between atoms: N3_23  and  C16_24
DOCKED: REMARK   18  A    between atoms: C16_24  and  C17_25
DOCKED: REMARK   19  A    between atoms: C16_24  and  C21_29
DOCKED: REMARK   20  A    between atoms: C17_25  and  C18_26
DOCKED: REMARK   21  A    between atoms: C18_26  and  C19_27
DOCKED: REMARK   22  A    between atoms: C18_26  and  C20_28
DOCKED: REMARK   23  A    between atoms: C21_29  and  O5_30
DOCKED: REMARK   24  A    between atoms: C21_29  and  C22_31
DOCKED: REMARK   25  A    between atoms: C22_31  and  C23_32
DOCKED: REMARK   26  A    between atoms: N4_34  and  C24_35
DOCKED: REMARK   27  A    between atoms: C24_35  and  C25_36
DOCKED: REMARK   28  A    between atoms: C24_35  and  C32_45
DOCKED: REMARK   29  A    between atoms: N5_38  and  C26_39
DOCKED: REMARK   30  A    between atoms: C32_45  and  C33_46
DOCKED: REMARK   31  A    between atoms: C32_45  and  C34_47
DOCKED: REMARK                            x       y       z     vdW  Elec       q    Type
DOCKED: REMARK                         _______ _______ _______ _____ _____    ______ ____
DOCKED: USER                              x       y       z     vdW  Elec       q    Type
DOCKED: USER                           _______ _______ _______ _____ _____    ______ ____
DOCKED: ROOT
DOCKED: ATOM      1  C16 UNL     1      12.039  -8.618   0.007 +0.00 +0.00    +0.102 C  
DOCKED: ENDROOT
DOCKED: BRANCH   1   4
DOCKED: ATOM      2  C15 UNL     1       9.761  -9.530   0.373 +0.00 +0.00    +0.234 C  
DOCKED: ATOM      3  O4  UNL     1      10.166 -10.332   1.212 +0.00 -0.00    -0.274 OA 
DOCKED: ATOM      4  N3  UNL     1      10.614  -8.698  -0.331 +0.00 -0.00    -0.308 N  
DOCKED: ATOM      5  H28 UNL     1      10.209  -7.925  -0.844 +0.00 +0.00    +0.149 HD 
DOCKED: BRANCH   2   6
DOCKED: ATOM      6  C4  UNL     1       8.272  -9.367   0.003 +0.00 +0.00    +0.160 C  
DOCKED: BRANCH   6   7
DOCKED: ATOM      7  N1  UNL     1       8.041  -8.003  -0.478 +0.00 -0.00    -0.302 N  
DOCKED: ATOM      8  C5  UNL     1       7.060  -7.161   0.002 +0.00 +0.00    +0.234 C  
DOCKED: ATOM      9  O1  UNL     1       6.440  -7.355   1.047 +0.00 -0.00    -0.274 OA 
DOCKED: ATOM     10  H9  UNL     1       8.281  -7.864  -1.452 +0.00 +0.00    +0.150 HD 
DOCKED: BRANCH   8  11
DOCKED: ATOM     11  C6  UNL     1       6.821  -5.892  -0.851 +0.00 +0.00    +0.165 C  
DOCKED: BRANCH  11  12
DOCKED: ATOM     12  N2  UNL     1       8.026  -5.079  -0.749 +0.00 -0.00    -0.270 N  
DOCKED: ATOM     13  C7  UNL     1       9.194  -5.385  -1.364 +0.00 +0.00    +0.401 C  
DOCKED: ATOM     14  O2  UNL     1       9.396  -6.403  -2.009 +0.00 -0.00    -0.226 OA 
DOCKED: ATOM     15  H11 UNL     1       7.948  -4.152  -0.345 +0.00 +0.00    +0.153 HD 
DOCKED: BRANCH  13  16
DOCKED: ATOM     16  O3  UNL     1      10.071  -4.379  -1.151 +0.00 -0.00    -0.445 OA 
DOCKED: BRANCH  16  17
DOCKED: ATOM     17  C8  UNL     1      10.493  -3.512  -2.234 +0.00 +0.00    +0.107 C  
DOCKED: ATOM     18  C9  UNL     1       9.375  -2.538  -2.625 +0.00 +0.00    +0.055 C  
DOCKED: ATOM     19  C10 UNL     1      10.998  -4.324  -3.433 +0.00 +0.00    +0.055 C  
DOCKED: ATOM     20  C11 UNL     1      11.668  -2.708  -1.660 +0.00 +0.00    +0.055 C  
DOCKED: ENDBRANCH  16  17
DOCKED: ENDBRANCH  13  16
DOCKED: ENDBRANCH  11  12
DOCKED: BRANCH  11  21
DOCKED: ATOM     21  C12 UNL     1       6.469  -6.182  -2.327 +0.00 +0.00    +0.012 C  
DOCKED: ATOM     22  C13 UNL     1       6.067  -4.924  -3.099 +0.00 +0.00    +0.009 C  
DOCKED: ATOM     23  C14 UNL     1       5.391  -7.258  -2.486 +0.00 +0.00    +0.009 C  
DOCKED: ENDBRANCH  11  21
DOCKED: ENDBRANCH   8  11
DOCKED: ENDBRANCH   6   7
DOCKED: BRANCH   6  24
DOCKED: ATOM     24  C3  UNL     1       7.819 -10.525  -0.902 +0.00 +0.00    +0.042 C  
DOCKED: BRANCH  24  25
DOCKED: ATOM     25  C2  UNL     1       7.672 -10.140  -2.373 +0.00 +0.00    +0.071 C  
DOCKED: BRANCH  25  27
DOCKED: ATOM     26  C1  UNL     1       8.676  -8.331  -4.213 +0.00 +0.00    +0.084 C  
DOCKED: ATOM     27  S1  UNL     1       9.269  -9.644  -3.113 +0.00 -0.00    -0.164 S  
DOCKED: ENDBRANCH  25  27
DOCKED: ENDBRANCH  24  25
DOCKED: ENDBRANCH   6  24
DOCKED: ENDBRANCH   2   6
DOCKED: ENDBRANCH   1   4
DOCKED: BRANCH   1  28
DOCKED: ATOM     28  C21 UNL     1      12.660  -7.395  -0.737 +0.00 +0.00    +0.143 C  
DOCKED: BRANCH  28  29
DOCKED: ATOM     29  O5  UNL     1      11.777  -6.890  -1.751 +0.00 -0.00    -0.389 OA 
DOCKED: ATOM     30  H40 UNL     1      11.442  -6.021  -1.444 +0.00 +0.00    +0.210 HD 
DOCKED: ENDBRANCH  28  29
DOCKED: BRANCH  28  31
DOCKED: ATOM     31  C22 UNL     1      13.134  -6.222   0.118 +0.00 +0.00    +0.129 C  
DOCKED: BRANCH  31  32
DOCKED: ATOM     32  C23 UNL     1      12.209  -5.872   1.261 +0.00 +0.00    +0.216 C  
DOCKED: ATOM     33  O6  UNL     1      12.577  -5.683   2.414 +0.00 -0.00    -0.276 OA 
DOCKED: ATOM     34  N4  UNL     1      10.892  -5.771   0.871 +0.00 -0.00    -0.304 N  
DOCKED: ATOM     35  H43 UNL     1      10.633  -6.182  -0.020 +0.00 +0.00    +0.149 HD 
DOCKED: BRANCH  34  36
DOCKED: ATOM     36  C24 UNL     1       9.786  -5.535   1.806 +0.00 +0.00    +0.161 C  
DOCKED: BRANCH  36  37
DOCKED: ATOM     37  C25 UNL     1       9.659  -6.761   2.739 +0.00 +0.00    +0.234 C  
DOCKED: ATOM     38  O7  UNL     1       8.825  -7.641   2.533 +0.00 -0.00    -0.274 OA 
DOCKED: ATOM     39  N5  UNL     1      10.587  -6.812   3.755 +0.00 -0.00    -0.311 N  
DOCKED: ATOM     40  H45 UNL     1      11.378  -6.168   3.686 +0.00 +0.00    +0.149 HD 
DOCKED: BRANCH  39  41
DOCKED: ATOM     41  C26 UNL     1      10.700  -7.940   4.668 +0.00 +0.00    +0.073 C  
DOCKED: ATOM     42  C27 UNL     1      11.830  -7.723   5.685 +0.00 +0.00    +0.022 C  
DOCKED: ATOM     43  C28 UNL     1      13.215  -7.815   5.044 +0.00 +0.00    +0.002 C  
DOCKED: ATOM     44  C29 UNL     1      13.398  -9.128   4.290 +0.00 +0.00    +0.000 C  
DOCKED: ATOM     45  C30 UNL     1      12.296  -9.350   3.261 +0.00 +0.00    +0.002 C  
DOCKED: ATOM     46  C31 UNL     1      10.906  -9.247   3.888 +0.00 +0.00    +0.022 C  
DOCKED: ENDBRANCH  39  41
DOCKED: ENDBRANCH  36  37
DOCKED: BRANCH  36  47
DOCKED: ATOM     47  C32 UNL     1       9.831  -4.183   2.556 +0.00 +0.00    +0.012 C  
DOCKED: ATOM     48  C33 UNL     1       8.441  -3.813   3.088 +0.00 +0.00    +0.009 C  
DOCKED: ATOM     49  C34 UNL     1      10.338  -3.053   1.653 +0.00 +0.00    +0.009 C  
DOCKED: ENDBRANCH  36  47
DOCKED: ENDBRANCH  34  36
DOCKED: ENDBRANCH  31  32
DOCKED: ENDBRANCH  28  31
DOCKED: ENDBRANCH   1  28
DOCKED: BRANCH   1  50
DOCKED: ATOM     50  C17 UNL     1      12.757  -9.938  -0.338 +0.00 +0.00    +0.028 C  
DOCKED: BRANCH  50  51
DOCKED: ATOM     51  C18 UNL     1      12.199 -10.757  -1.526 +0.00 -0.00    -0.015 C  
DOCKED: ATOM     52  C19 UNL     1      13.063 -10.639  -2.784 +0.00 +0.00    +0.007 C  
DOCKED: ATOM     53  C20 UNL     1      11.935 -12.224  -1.192 +0.00 +0.00    +0.007 C  
DOCKED: ENDBRANCH  50  51
DOCKED: ENDBRANCH   1  50
DOCKED: TORSDOF 21
DOCKED: TER
DOCKED: ENDMDL
________________________________________________________________________________


    FINAL DOCKED STATE:
    ________________________


Run:   7 / 20
Time taken for this run:   1.281s

DOCKED: MODEL        7
DOCKED: USER    Run = 7
DOCKED: USER
DOCKED: USER    Estimated Free Energy of Binding    =  +6.26 kcal/mol  [=(1)+(2)+(3)-(4)]
DOCKED: USER
DOCKED: USER    (1) Final Intermolecular Energy     =  +0.00 kcal/mol
DOCKED: USER        vdW + Hbond + desolv Energy     =  +0.00 kcal/mol
DOCKED: USER        Electrostatic Energy            =  +0.00 kcal/mol
DOCKED: USER        Moving Ligand-Fixed Receptor    =  +0.00 kcal/mol
DOCKED: USER        Moving Ligand-Moving Receptor   =  +0.00 kcal/mol
DOCKED: USER    (2) Final Total Internal Energy     = -13.47 kcal/mol
DOCKED: USER    (3) Torsional Free Energy           =  +6.26 kcal/mol
DOCKED: USER    (4) Unbound System's Energy         = -13.47 kcal/mol
DOCKED: USER
DOCKED: USER
DOCKED: REMARK  Name = ligands/ligand_49.pdb
DOCKED: REMARK  31 active torsions:
DOCKED: REMARK  status: ('A' for Active; 'I' for Inactive)
DOCKED: REMARK    1  A    between atoms: C1_1  and  S1_2
DOCKED: REMARK    2  A    between atoms: S1_2  and  C2_3
DOCKED: REMARK    3  A    between atoms: C2_3  and  C3_4
DOCKED: REMARK    4  A    between atoms: C3_4  and  C4_5
DOCKED: REMARK    5  A    between atoms: C4_5  and  N1_6
DOCKED: REMARK    6  A    between atoms: C4_5  and  C15_21
DOCKED: REMARK    7  A    between atoms: C5_7  and  C6_9
DOCKED: REMARK    8  A    between atoms: C6_9  and  N2_10
DOCKED: REMARK    9  A    between atoms: C6_9  and  C12_18
DOCKED: REMARK   10  A    between atoms: C7_11  and  O3_13
DOCKED: REMARK   11  A    between atoms: O3_13  and  C8_14
DOCKED: REMARK   12  A    between atoms: C8_14  and  C9_15
DOCKED: REMARK   13  A    between atoms: C8_14  and  C10_16
DOCKED: REMARK   14  A    between atoms: C8_14  and  C11_17
DOCKED: REMARK   15  A    between atoms: C12_18  and  C13_19
DOCKED: REMARK   16  A    between atoms: C12_18  and  C14_20
DOCKED: REMARK   17  A    between atoms: N3_23  and  C16_24
DOCKED: REMARK   18  A    between atoms: C16_24  and  C17_25
DOCKED: REMARK   19  A    between atoms: C16_24  and  C21_29
DOCKED: REMARK   20  A    between atoms: C17_25  and  C18_26
DOCKED: REMARK   21  A    between atoms: C18_26  and  C19_27
DOCKED: REMARK   22  A    between atoms: C18_26  and  C20_28
DOCKED: REMARK   23  A    between atoms: C21_29  and  O5_30
DOCKED: REMARK   24  A    between atoms: C21_29  and  C22_31
DOCKED: REMARK   25  A    between atoms: C22_31  and  C23_32
DOCKED: REMARK   26  A    between atoms: N4_34  and  C24_35
DOCKED: REMARK   27  A    between atoms: C24_35  and  C25_36
DOCKED: REMARK   28  A    between atoms: C24_35  and  C32_45
DOCKED: REMARK   29  A    between atoms: N5_38  and  C26_39
DOCKED: REMARK   30  A    between atoms: C32_45  and  C33_46
DOCKED: REMARK   31  A    between atoms: C32_45  and  C34_47
DOCKED: REMARK                            x       y       z     vdW  Elec       q    Type
DOCKED: REMARK                         _______ _______ _______ _____ _____    ______ ____
DOCKED: USER                              x       y       z     vdW  Elec       q    Type
DOCKED: USER                           _______ _______ _______ _____ _____    ______ ____
DOCKED: ROOT
DOCKED: ATOM      1  C16 UNL     1       8.020   0.551   1.813 +0.00 +0.00    +0.102 C  
DOCKED: ENDROOT
DOCKED: BRANCH   1   4
DOCKED: ATOM      2  C15 UNL     1       6.809  -1.503   2.501 +0.00 +0.00    +0.234 C  
DOCKED: ATOM      3  O4  UNL     1       5.908  -0.851   3.025 +0.00 -0.00    -0.274 OA 
DOCKED: ATOM      4  N3  UNL     1       7.929  -0.907   1.946 +0.00 -0.00    -0.308 N  
DOCKED: ATOM      5  H28 UNL     1       8.523  -1.472   1.352 +0.00 +0.00    +0.149 HD 
DOCKED: BRANCH   2   6
DOCKED: ATOM      6  C4  UNL     1       6.804  -3.042   2.411 +0.00 +0.00    +0.160 C  
DOCKED: BRANCH   6   7
DOCKED: ATOM      7  N1  UNL     1       7.558  -3.460   1.227 +0.00 -0.00    -0.302 N  
DOCKED: ATOM      8  C5  UNL     1       8.116  -4.710   1.057 +0.00 +0.00    +0.234 C  
DOCKED: ATOM      9  O1  UNL     1       7.835  -5.687   1.749 +0.00 -0.00    -0.274 OA 
DOCKED: ATOM     10  H9  UNL     1       8.056  -2.706   0.770 +0.00 +0.00    +0.150 HD 
DOCKED: BRANCH   8  11
DOCKED: ATOM     11  C6  UNL     1       9.103  -4.822  -0.130 +0.00 +0.00    +0.165 C  
DOCKED: BRANCH  11  12
DOCKED: ATOM     12  N2  UNL     1      10.419  -4.451   0.375 +0.00 -0.00    -0.270 N  
DOCKED: ATOM     13  C7  UNL     1      10.738  -3.203   0.796 +0.00 +0.00    +0.401 C  
DOCKED: ATOM     14  O2  UNL     1       9.994  -2.235   0.737 +0.00 -0.00    -0.226 OA 
DOCKED: ATOM     15  H11 UNL     1      11.079  -5.191   0.585 +0.00 +0.00    +0.153 HD 
DOCKED: BRANCH  13  16
DOCKED: ATOM     16  O3  UNL     1      11.994  -3.223   1.294 +0.00 -0.00    -0.445 OA 
DOCKED: BRANCH  16  17
DOCKED: ATOM     17  C8  UNL     1      13.084  -2.560   0.605 +0.00 +0.00    +0.107 C  
DOCKED: ATOM     18  C9  UNL     1      12.668  -1.160   0.140 +0.00 +0.00    +0.055 C  
DOCKED: ATOM     19  C10 UNL     1      13.618  -3.419  -0.548 +0.00 +0.00    +0.055 C  
DOCKED: ATOM     20  C11 UNL     1      14.190  -2.419   1.661 +0.00 +0.00    +0.055 C  
DOCKED: ENDBRANCH  16  17
DOCKED: ENDBRANCH  13  16
DOCKED: ENDBRANCH  11  12
DOCKED: BRANCH  11  21
DOCKED: ATOM     21  C12 UNL     1       9.135  -6.217  -0.795 +0.00 +0.00    +0.012 C  
DOCKED: ATOM     22  C13 UNL     1      10.538  -6.628  -1.244 +0.00 +0.00    +0.009 C  
DOCKED: ATOM     23  C14 UNL     1       8.154  -6.346  -1.965 +0.00 +0.00    +0.009 C  
DOCKED: ENDBRANCH  11  21
DOCKED: ENDBRANCH   8  11
DOCKED: ENDBRANCH   6   7
DOCKED: BRANCH   6  24
DOCKED: ATOM     24  C3  UNL     1       7.206  -3.656   3.762 +0.00 +0.00    +0.042 C  
DOCKED: BRANCH  24  25
DOCKED: ATOM     25  C2  UNL     1       8.513  -3.104   4.328 +0.00 +0.00    +0.071 C  
DOCKED: BRANCH  25  27
DOCKED: ATOM     26  C1  UNL     1      11.282  -3.072   4.309 +0.00 +0.00    +0.084 C  
DOCKED: ATOM     27  S1  UNL     1       9.919  -4.235   4.033 +0.00 -0.00    -0.164 S  
DOCKED: ENDBRANCH  25  27
DOCKED: ENDBRANCH  24  25
DOCKED: ENDBRANCH   6  24
DOCKED: ENDBRANCH   2   6
DOCKED: ENDBRANCH   1   4
DOCKED: BRANCH   1  28
DOCKED: ATOM     28  C21 UNL     1       8.385   0.895   0.335 +0.00 +0.00    +0.143 C  
DOCKED: BRANCH  28  29
DOCKED: ATOM     29  O5  UNL     1       9.624   0.284  -0.058 +0.00 -0.00    -0.389 OA 
DOCKED: ATOM     30  H40 UNL     1       9.547  -0.679   0.116 +0.00 +0.00    +0.210 HD 
DOCKED: ENDBRANCH  28  29
DOCKED: BRANCH  28  31
DOCKED: ATOM     31  C22 UNL     1       7.337   0.591  -0.734 +0.00 +0.00    +0.129 C  
DOCKED: BRANCH  31  32
DOCKED: ATOM     32  C23 UNL     1       7.179  -0.878  -1.050 +0.00 +0.00    +0.216 C  
DOCKED: ATOM     33  O6  UNL     1       7.988  -1.743  -0.736 +0.00 -0.00    -0.276 OA 
DOCKED: ATOM     34  N4  UNL     1       6.011  -1.157  -1.723 +0.00 -0.00    -0.304 N  
DOCKED: ATOM     35  H43 UNL     1       5.525  -0.382  -2.164 +0.00 +0.00    +0.149 HD 
DOCKED: BRANCH  34  36
DOCKED: ATOM     36  C24 UNL     1       5.664  -2.492  -2.227 +0.00 +0.00    +0.161 C  
DOCKED: BRANCH  36  37
DOCKED: ATOM     37  C25 UNL     1       6.646  -2.858  -3.364 +0.00 +0.00    +0.234 C  
DOCKED: ATOM     38  O7  UNL     1       6.311  -2.801  -4.546 +0.00 -0.00    -0.274 OA 
DOCKED: ATOM     39  N5  UNL     1       7.918  -3.179  -2.946 +0.00 -0.00    -0.311 N  
DOCKED: ATOM     40  H45 UNL     1       8.152  -2.957  -1.976 +0.00 +0.00    +0.149 HD 
DOCKED: BRANCH  39  41
DOCKED: ATOM     41  C26 UNL     1       9.012  -3.445  -3.870 +0.00 +0.00    +0.073 C  
DOCKED: ATOM     42  C27 UNL     1      10.303  -3.800  -3.119 +0.00 +0.00    +0.022 C  
DOCKED: ATOM     43  C28 UNL     1      10.906  -2.592  -2.400 +0.00 +0.00    +0.002 C  
DOCKED: ATOM     44  C29 UNL     1      11.129  -1.424  -3.355 +0.00 +0.00    +0.000 C  
DOCKED: ATOM     45  C30 UNL     1       9.851  -1.045  -4.095 +0.00 +0.00    +0.002 C  
DOCKED: ATOM     46  C31 UNL     1       9.231  -2.247  -4.806 +0.00 +0.00    +0.022 C  
DOCKED: ENDBRANCH  39  41
DOCKED: ENDBRANCH  36  37
DOCKED: BRANCH  36  47
DOCKED: ATOM     47  C32 UNL     1       5.522  -3.590  -1.147 +0.00 +0.00    +0.012 C  
DOCKED: ATOM     48  C33 UNL     1       5.104  -4.921  -1.784 +0.00 +0.00    +0.009 C  
DOCKED: ATOM     49  C34 UNL     1       4.494  -3.201  -0.079 +0.00 +0.00    +0.009 C  
DOCKED: ENDBRANCH  36  47
DOCKED: ENDBRANCH  34  36
DOCKED: ENDBRANCH  31  32
DOCKED: ENDBRANCH  28  31
DOCKED: ENDBRANCH   1  28
DOCKED: BRANCH   1  50
DOCKED: ATOM     50  C17 UNL     1       9.038   1.129   2.815 +0.00 +0.00    +0.028 C  
DOCKED: BRANCH  50  51
DOCKED: ATOM     51  C18 UNL     1       9.985   0.127   3.519 +0.00 -0.00    -0.015 C  
DOCKED: ATOM     52  C19 UNL     1      11.445   0.294   3.093 +0.00 +0.00    +0.007 C  
DOCKED: ATOM     53  C20 UNL     1       9.866   0.134   5.042 +0.00 +0.00    +0.007 C  
DOCKED: ENDBRANCH  50  51
DOCKED: ENDBRANCH   1  50
DOCKED: TORSDOF 21
DOCKED: TER
DOCKED: ENDMDL
________________________________________________________________________________


    FINAL DOCKED STATE:
    ________________________


Run:   8 / 20
Time taken for this run:   1.281s

DOCKED: MODEL        8
DOCKED: USER    Run = 8
DOCKED: USER
DOCKED: USER    Estimated Free Energy of Binding    =  +6.26 kcal/mol  [=(1)+(2)+(3)-(4)]
DOCKED: USER
DOCKED: USER    (1) Final Intermolecular Energy     =  +0.00 kcal/mol
DOCKED: USER        vdW + Hbond + desolv Energy     =  +0.00 kcal/mol
DOCKED: USER        Electrostatic Energy            =  +0.00 kcal/mol
DOCKED: USER        Moving Ligand-Fixed Receptor    =  +0.00 kcal/mol
DOCKED: USER        Moving Ligand-Moving Receptor   =  +0.00 kcal/mol
DOCKED: USER    (2) Final Total Internal Energy     = -13.62 kcal/mol
DOCKED: USER    (3) Torsional Free Energy           =  +6.26 kcal/mol
DOCKED: USER    (4) Unbound System's Energy         = -13.62 kcal/mol
DOCKED: USER
DOCKED: USER
DOCKED: REMARK  Name = ligands/ligand_49.pdb
DOCKED: REMARK  31 active torsions:
DOCKED: REMARK  status: ('A' for Active; 'I' for Inactive)
DOCKED: REMARK    1  A    between atoms: C1_1  and  S1_2
DOCKED: REMARK    2  A    between atoms: S1_2  and  C2_3
DOCKED: REMARK    3  A    between atoms: C2_3  and  C3_4
DOCKED: REMARK    4  A    between atoms: C3_4  and  C4_5
DOCKED: REMARK    5  A    between atoms: C4_5  and  N1_6
DOCKED: REMARK    6  A    between atoms: C4_5  and  C15_21
DOCKED: REMARK    7  A    between atoms: C5_7  and  C6_9
DOCKED: REMARK    8  A    between atoms: C6_9  and  N2_10
DOCKED: REMARK    9  A    between atoms: C6_9  and  C12_18
DOCKED: REMARK   10  A    between atoms: C7_11  and  O3_13
DOCKED: REMARK   11  A    between atoms: O3_13  and  C8_14
DOCKED: REMARK   12  A    between atoms: C8_14  and  C9_15
DOCKED: REMARK   13  A    between atoms: C8_14  and  C10_16
DOCKED: REMARK   14  A    between atoms: C8_14  and  C11_17
DOCKED: REMARK   15  A    between atoms: C12_18  and  C13_19
DOCKED: REMARK   16  A    between atoms: C12_18  and  C14_20
DOCKED: REMARK   17  A    between atoms: N3_23  and  C16_24
DOCKED: REMARK   18  A    between atoms: C16_24  and  C17_25
DOCKED: REMARK   19  A    between atoms: C16_24  and  C21_29
DOCKED: REMARK   20  A    between atoms: C17_25  and  C18_26
DOCKED: REMARK   21  A    between atoms: C18_26  and  C19_27
DOCKED: REMARK   22  A    between atoms: C18_26  and  C20_28
DOCKED: REMARK   23  A    between atoms: C21_29  and  O5_30
DOCKED: REMARK   24  A    between atoms: C21_29  and  C22_31
DOCKED: REMARK   25  A    between atoms: C22_31  and  C23_32
DOCKED: REMARK   26  A    between atoms: N4_34  and  C24_35
DOCKED: REMARK   27  A    between atoms: C24_35  and  C25_36
DOCKED: REMARK   28  A    between atoms: C24_35  and  C32_45
DOCKED: REMARK   29  A    between atoms: N5_38  and  C26_39
DOCKED: REMARK   30  A    between atoms: C32_45  and  C33_46
DOCKED: REMARK   31  A    between atoms: C32_45  and  C34_47
DOCKED: REMARK                            x       y       z     vdW  Elec       q    Type
DOCKED: REMARK                         _______ _______ _______ _____ _____    ______ ____
DOCKED: USER                              x       y       z     vdW  Elec       q    Type
DOCKED: USER                           _______ _______ _______ _____ _____    ______ ____
DOCKED: ROOT
DOCKED: ATOM      1  C16 UNL     1      10.711   0.120   3.826 +0.00 +0.00    +0.102 C  
DOCKED: ENDROOT
DOCKED: BRANCH   1   4
DOCKED: ATOM      2  C15 UNL     1       9.855   0.674   6.087 +0.00 +0.00    +0.234 C  
DOCKED: ATOM      3  O4  UNL     1      10.385   1.783   6.067 +0.00 -0.00    -0.274 OA 
DOCKED: ATOM      4  N3  UNL     1      10.019  -0.246   5.066 +0.00 -0.00    -0.308 N  
DOCKED: ATOM      5  H28 UNL     1       9.398  -1.044   5.040 +0.00 +0.00    +0.149 HD 
DOCKED: BRANCH   2   6
DOCKED: ATOM      6  C4  UNL     1       8.962   0.180   7.244 +0.00 +0.00    +0.160 C  
DOCKED: BRANCH   6   7
DOCKED: ATOM      7  N1  UNL     1       7.562   0.190   6.813 +0.00 -0.00    -0.302 N  
DOCKED: ATOM      8  C5  UNL     1       6.673  -0.844   7.020 +0.00 +0.00    +0.234 C  
DOCKED: ATOM      9  O1  UNL     1       6.871  -1.773   7.801 +0.00 -0.00    -0.274 OA 
DOCKED: ATOM     10  H9  UNL     1       7.394   0.735   5.976 +0.00 +0.00    +0.150 HD 
DOCKED: BRANCH   8  11
DOCKED: ATOM     11  C6  UNL     1       5.349  -0.727   6.228 +0.00 +0.00    +0.165 C  
DOCKED: BRANCH  11  12
DOCKED: ATOM     12  N2  UNL     1       5.528  -1.472   4.988 +0.00 -0.00    -0.270 N  
DOCKED: ATOM     13  C7  UNL     1       6.648  -1.408   4.228 +0.00 +0.00    +0.401 C  
DOCKED: ATOM     14  O2  UNL     1       7.600  -0.675   4.449 +0.00 -0.00    -0.226 OA 
DOCKED: ATOM     15  H11 UNL     1       4.862  -2.203   4.766 +0.00 +0.00    +0.153 HD 
DOCKED: BRANCH  13  16
DOCKED: ATOM     16  O3  UNL     1       6.531  -2.293   3.212 +0.00 -0.00    -0.445 OA 
DOCKED: BRANCH  16  17
DOCKED: ATOM     17  C8  UNL     1       6.753  -3.710   3.424 +0.00 +0.00    +0.107 C  
DOCKED: ATOM     18  C9  UNL     1       5.428  -4.482   3.398 +0.00 +0.00    +0.055 C  
DOCKED: ATOM     19  C10 UNL     1       7.545  -3.964   4.712 +0.00 +0.00    +0.055 C  
DOCKED: ATOM     20  C11 UNL     1       7.607  -4.158   2.229 +0.00 +0.00    +0.055 C  
DOCKED: ENDBRANCH  16  17
DOCKED: ENDBRANCH  13  16
DOCKED: ENDBRANCH  11  12
DOCKED: BRANCH  11  21
DOCKED: ATOM     21  C12 UNL     1       4.105  -1.222   7.000 +0.00 +0.00    +0.012 C  
DOCKED: ATOM     22  C13 UNL     1       3.968  -2.746   6.990 +0.00 +0.00    +0.009 C  
DOCKED: ATOM     23  C14 UNL     1       2.803  -0.578   6.516 +0.00 +0.00    +0.009 C  
DOCKED: ENDBRANCH  11  21
DOCKED: ENDBRANCH   8  11
DOCKED: ENDBRANCH   6   7
DOCKED: BRANCH   6  24
DOCKED: ATOM     24  C3  UNL     1       9.517  -1.133   7.821 +0.00 +0.00    +0.042 C  
DOCKED: BRANCH  24  25
DOCKED: ATOM     25  C2  UNL     1      11.037  -1.149   7.970 +0.00 +0.00    +0.071 C  
DOCKED: BRANCH  25  27
DOCKED: ATOM     26  C1  UNL     1      10.375  -3.219   6.253 +0.00 +0.00    +0.084 C  
DOCKED: ATOM     27  S1  UNL     1      11.831  -2.262   6.755 +0.00 -0.00    -0.164 S  
DOCKED: ENDBRANCH  25  27
DOCKED: ENDBRANCH  24  25
DOCKED: ENDBRANCH   6  24
DOCKED: ENDBRANCH   2   6
DOCKED: ENDBRANCH   1   4
DOCKED: BRANCH   1  28
DOCKED: ATOM     28  C21 UNL     1      10.428  -0.979   2.754 +0.00 +0.00    +0.143 C  
DOCKED: BRANCH  28  29
DOCKED: ATOM     29  O5  UNL     1       9.476  -1.946   3.229 +0.00 -0.00    -0.389 OA 
DOCKED: ATOM     30  H40 UNL     1       8.603  -1.712   2.848 +0.00 +0.00    +0.210 HD 
DOCKED: ENDBRANCH  28  29
DOCKED: BRANCH  28  31
DOCKED: ATOM     31  C22 UNL     1       9.988  -0.510   1.369 +0.00 +0.00    +0.129 C  
DOCKED: BRANCH  31  32
DOCKED: ATOM     32  C23 UNL     1       8.949   0.587   1.385 +0.00 +0.00    +0.216 C  
DOCKED: ATOM     33  O6  UNL     1       9.121   1.708   0.923 +0.00 -0.00    -0.276 OA 
DOCKED: ATOM     34  N4  UNL     1       7.764   0.193   1.966 +0.00 -0.00    -0.304 N  
DOCKED: ATOM     35  H43 UNL     1       7.778  -0.643   2.542 +0.00 +0.00    +0.149 HD 
DOCKED: BRANCH  34  36
DOCKED: ATOM     36  C24 UNL     1       6.630   1.097   2.190 +0.00 +0.00    +0.161 C  
DOCKED: BRANCH  36  37
DOCKED: ATOM     37  C25 UNL     1       6.904   1.924   3.467 +0.00 +0.00    +0.234 C  
DOCKED: ATOM     38  O7  UNL     1       6.225   1.781   4.483 +0.00 -0.00    -0.274 OA 
DOCKED: ATOM     39  N5  UNL     1       7.993   2.763   3.389 +0.00 -0.00    -0.311 N  
DOCKED: ATOM     40  H45 UNL     1       8.625   2.622   2.598 +0.00 +0.00    +0.149 HD 
DOCKED: BRANCH  39  41
DOCKED: ATOM     41  C26 UNL     1       8.477   3.539   4.522 +0.00 +0.00    +0.073 C  
DOCKED: ATOM     42  C27 UNL     1       7.492   4.657   4.893 +0.00 +0.00    +0.022 C  
DOCKED: ATOM     43  C28 UNL     1       7.465   5.776   3.851 +0.00 +0.00    +0.002 C  
DOCKED: ATOM     44  C29 UNL     1       8.859   6.335   3.590 +0.00 +0.00    +0.000 C  
DOCKED: ATOM     45  C30 UNL     1       9.846   5.241   3.201 +0.00 +0.00    +0.002 C  
DOCKED: ATOM     46  C31 UNL     1       9.872   4.110   4.229 +0.00 +0.00    +0.022 C  
DOCKED: ENDBRANCH  39  41
DOCKED: ENDBRANCH  36  37
DOCKED: BRANCH  36  47
DOCKED: ATOM     47  C32 UNL     1       6.217   1.953   0.969 +0.00 +0.00    +0.012 C  
DOCKED: ATOM     48  C33 UNL     1       5.553   3.258   1.425 +0.00 +0.00    +0.009 C  
DOCKED: ATOM     49  C34 UNL     1       5.254   1.196   0.049 +0.00 +0.00    +0.009 C  
DOCKED: ENDBRANCH  36  47
DOCKED: ENDBRANCH  34  36
DOCKED: ENDBRANCH  31  32
DOCKED: ENDBRANCH  28  31
DOCKED: ENDBRANCH   1  28
DOCKED: BRANCH   1  50
DOCKED: ATOM     50  C17 UNL     1      12.219   0.314   4.078 +0.00 +0.00    +0.028 C  
DOCKED: BRANCH  50  51
DOCKED: ATOM     51  C18 UNL     1      12.855   1.636   3.585 +0.00 -0.00    -0.015 C  
DOCKED: ATOM     52  C19 UNL     1      12.092   2.260   2.415 +0.00 +0.00    +0.007 C  
DOCKED: ATOM     53  C20 UNL     1      13.074   2.664   4.693 +0.00 +0.00    +0.007 C  
DOCKED: ENDBRANCH  50  51
DOCKED: ENDBRANCH   1  50
DOCKED: TORSDOF 21
DOCKED: TER
DOCKED: ENDMDL
________________________________________________________________________________


    FINAL DOCKED STATE:
    ________________________


Run:   9 / 20
Time taken for this run:   1.281s

DOCKED: MODEL        9
DOCKED: USER    Run = 9
DOCKED: USER
DOCKED: USER    Estimated Free Energy of Binding    =  +6.26 kcal/mol  [=(1)+(2)+(3)-(4)]
DOCKED: USER
DOCKED: USER    (1) Final Intermolecular Energy     =  +0.00 kcal/mol
DOCKED: USER        vdW + Hbond + desolv Energy     =  +0.00 kcal/mol
DOCKED: USER        Electrostatic Energy            =  +0.00 kcal/mol
DOCKED: USER        Moving Ligand-Fixed Receptor    =  +0.00 kcal/mol
DOCKED: USER        Moving Ligand-Moving Receptor   =  +0.00 kcal/mol
DOCKED: USER    (2) Final Total Internal Energy     = -13.58 kcal/mol
DOCKED: USER    (3) Torsional Free Energy           =  +6.26 kcal/mol
DOCKED: USER    (4) Unbound System's Energy         = -13.58 kcal/mol
DOCKED: USER
DOCKED: USER
DOCKED: REMARK  Name = ligands/ligand_49.pdb
DOCKED: REMARK  31 active torsions:
DOCKED: REMARK  status: ('A' for Active; 'I' for Inactive)
DOCKED: REMARK    1  A    between atoms: C1_1  and  S1_2
DOCKED: REMARK    2  A    between atoms: S1_2  and  C2_3
DOCKED: REMARK    3  A    between atoms: C2_3  and  C3_4
DOCKED: REMARK    4  A    between atoms: C3_4  and  C4_5
DOCKED: REMARK    5  A    between atoms: C4_5  and  N1_6
DOCKED: REMARK    6  A    between atoms: C4_5  and  C15_21
DOCKED: REMARK    7  A    between atoms: C5_7  and  C6_9
DOCKED: REMARK    8  A    between atoms: C6_9  and  N2_10
DOCKED: REMARK    9  A    between atoms: C6_9  and  C12_18
DOCKED: REMARK   10  A    between atoms: C7_11  and  O3_13
DOCKED: REMARK   11  A    between atoms: O3_13  and  C8_14
DOCKED: REMARK   12  A    between atoms: C8_14  and  C9_15
DOCKED: REMARK   13  A    between atoms: C8_14  and  C10_16
DOCKED: REMARK   14  A    between atoms: C8_14  and  C11_17
DOCKED: REMARK   15  A    between atoms: C12_18  and  C13_19
DOCKED: REMARK   16  A    between atoms: C12_18  and  C14_20
DOCKED: REMARK   17  A    between atoms: N3_23  and  C16_24
DOCKED: REMARK   18  A    between atoms: C16_24  and  C17_25
DOCKED: REMARK   19  A    between atoms: C16_24  and  C21_29
DOCKED: REMARK   20  A    between atoms: C17_25  and  C18_26
DOCKED: REMARK   21  A    between atoms: C18_26  and  C19_27
DOCKED: REMARK   22  A    between atoms: C18_26  and  C20_28
DOCKED: REMARK   23  A    between atoms: C21_29  and  O5_30
DOCKED: REMARK   24  A    between atoms: C21_29  and  C22_31
DOCKED: REMARK   25  A    between atoms: C22_31  and  C23_32
DOCKED: REMARK   26  A    between atoms: N4_34  and  C24_35
DOCKED: REMARK   27  A    between atoms: C24_35  and  C25_36
DOCKED: REMARK   28  A    between atoms: C24_35  and  C32_45
DOCKED: REMARK   29  A    between atoms: N5_38  and  C26_39
DOCKED: REMARK   30  A    between atoms: C32_45  and  C33_46
DOCKED: REMARK   31  A    between atoms: C32_45  and  C34_47
DOCKED: REMARK                            x       y       z     vdW  Elec       q    Type
DOCKED: REMARK                         _______ _______ _______ _____ _____    ______ ____
DOCKED: USER                              x       y       z     vdW  Elec       q    Type
DOCKED: USER                           _______ _______ _______ _____ _____    ______ ____
DOCKED: ROOT
DOCKED: ATOM      1  C16 UNL     1       6.999  -3.631  -5.498 +0.00 +0.00    +0.102 C  
DOCKED: ENDROOT
DOCKED: BRANCH   1   4
DOCKED: ATOM      2  C15 UNL     1       6.612  -5.157  -7.415 +0.00 +0.00    +0.234 C  
DOCKED: ATOM      3  O4  UNL     1       7.581  -4.711  -8.025 +0.00 -0.00    -0.274 OA 
DOCKED: ATOM      4  N3  UNL     1       6.199  -4.640  -6.199 +0.00 -0.00    -0.308 N  
DOCKED: ATOM      5  H28 UNL     1       5.537  -5.178  -5.654 +0.00 +0.00    +0.149 HD 
DOCKED: BRANCH   2   6
DOCKED: ATOM      6  C4  UNL     1       5.747  -6.325  -7.931 +0.00 +0.00    +0.160 C  
DOCKED: BRANCH   6   7
DOCKED: ATOM      7  N1  UNL     1       5.960  -7.497  -7.078 +0.00 -0.00    -0.302 N  
DOCKED: ATOM      8  C5  UNL     1       4.953  -8.310  -6.601 +0.00 +0.00    +0.234 C  
DOCKED: ATOM      9  O1  UNL     1       3.801  -8.301  -7.033 +0.00 -0.00    -0.274 OA 
DOCKED: ATOM     10  H9  UNL     1       6.770  -7.426  -6.476 +0.00 +0.00    +0.150 HD 
DOCKED: BRANCH   8  11
DOCKED: ATOM     11  C6  UNL     1       5.389  -9.300  -5.495 +0.00 +0.00    +0.165 C  
DOCKED: BRANCH  11  12
DOCKED: ATOM     12  N2  UNL     1       5.100  -8.665  -4.216 +0.00 -0.00    -0.270 N  
DOCKED: ATOM     13  C7  UNL     1       5.425  -7.382  -3.924 +0.00 +0.00    +0.401 C  
DOCKED: ATOM     14  O2  UNL     1       6.054  -6.637  -4.660 +0.00 -0.00    -0.226 OA 
DOCKED: ATOM     15  H11 UNL     1       4.476  -9.140  -3.574 +0.00 +0.00    +0.153 HD 
DOCKED: BRANCH  13  16
DOCKED: ATOM     16  O3  UNL     1       4.927  -7.077  -2.705 +0.00 -0.00    -0.445 OA 
DOCKED: BRANCH  16  17
DOCKED: ATOM     17  C8  UNL     1       3.514  -6.811  -2.518 +0.00 +0.00    +0.107 C  
DOCKED: ATOM     18  C9  UNL     1       2.839  -7.948  -1.744 +0.00 +0.00    +0.055 C  
DOCKED: ATOM     19  C10 UNL     1       2.820  -6.528  -3.856 +0.00 +0.00    +0.055 C  
DOCKED: ATOM     20  C11 UNL     1       3.464  -5.536  -1.663 +0.00 +0.00    +0.055 C  
DOCKED: ENDBRANCH  16  17
DOCKED: ENDBRANCH  13  16
DOCKED: ENDBRANCH  11  12
DOCKED: BRANCH  11  21
DOCKED: ATOM     21  C12 UNL     1       4.718 -10.689  -5.591 +0.00 +0.00    +0.012 C  
DOCKED: ATOM     22  C13 UNL     1       3.276 -10.688  -5.082 +0.00 +0.00    +0.009 C  
DOCKED: ATOM     23  C14 UNL     1       5.518 -11.791  -4.890 +0.00 +0.00    +0.009 C  
DOCKED: ENDBRANCH  11  21
DOCKED: ENDBRANCH   8  11
DOCKED: ENDBRANCH   6   7
DOCKED: BRANCH   6  24
DOCKED: ATOM     24  C3  UNL     1       4.298  -5.859  -8.148 +0.00 +0.00    +0.042 C  
DOCKED: BRANCH  24  25
DOCKED: ATOM     25  C2  UNL     1       4.182  -4.476  -8.784 +0.00 +0.00    +0.071 C  
DOCKED: BRANCH  25  27
DOCKED: ATOM     26  C1  UNL     1       3.056  -4.320  -6.259 +0.00 +0.00    +0.084 C  
DOCKED: ATOM     27  S1  UNL     1       3.610  -3.217  -7.587 +0.00 -0.00    -0.164 S  
DOCKED: ENDBRANCH  25  27
DOCKED: ENDBRANCH  24  25
DOCKED: ENDBRANCH   6  24
DOCKED: ENDBRANCH   2   6
DOCKED: ENDBRANCH   1   4
DOCKED: BRANCH   1  28
DOCKED: ATOM     28  C21 UNL     1       6.415  -3.441  -4.063 +0.00 +0.00    +0.143 C  
DOCKED: BRANCH  28  29
DOCKED: ATOM     29  O5  UNL     1       5.372  -4.391  -3.787 +0.00 -0.00    -0.389 OA 
DOCKED: ATOM     30  H40 UNL     1       5.799  -5.262  -3.639 +0.00 +0.00    +0.210 HD 
DOCKED: ENDBRANCH  28  29
DOCKED: BRANCH  28  31
DOCKED: ATOM     31  C22 UNL     1       7.401  -3.456  -2.897 +0.00 +0.00    +0.129 C  
DOCKED: BRANCH  31  32
DOCKED: ATOM     32  C23 UNL     1       8.332  -4.647  -2.886 +0.00 +0.00    +0.216 C  
DOCKED: ATOM     33  O6  UNL     1       9.542  -4.578  -3.064 +0.00 -0.00    -0.276 OA 
DOCKED: ATOM     34  N4  UNL     1       7.679  -5.833  -2.637 +0.00 -0.00    -0.304 N  
DOCKED: ATOM     35  H43 UNL     1       6.671  -5.848  -2.752 +0.00 +0.00    +0.149 HD 
DOCKED: BRANCH  34  36
DOCKED: ATOM     36  C24 UNL     1       8.340  -7.144  -2.666 +0.00 +0.00    +0.161 C  
DOCKED: BRANCH  36  37
DOCKED: ATOM     37  C25 UNL     1       8.902  -7.380  -4.087 +0.00 +0.00    +0.234 C  
DOCKED: ATOM     38  O7  UNL     1       8.210  -7.869  -4.978 +0.00 -0.00    -0.274 OA 
DOCKED: ATOM     39  N5  UNL     1      10.192  -6.940  -4.278 +0.00 -0.00    -0.311 N  
DOCKED: ATOM     40  H45 UNL     1      10.582  -6.333  -3.553 +0.00 +0.00    +0.149 HD 
DOCKED: BRANCH  39  41
DOCKED: ATOM     41  C26 UNL     1      10.857  -6.973  -5.573 +0.00 +0.00    +0.073 C  
DOCKED: ATOM     42  C27 UNL     1      12.280  -6.402  -5.484 +0.00 +0.00    +0.022 C  
DOCKED: ATOM     43  C28 UNL     1      12.285  -4.888  -5.269 +0.00 +0.00    +0.002 C  
DOCKED: ATOM     44  C29 UNL     1      11.468  -4.167  -6.336 +0.00 +0.00    +0.000 C  
DOCKED: ATOM     45  C30 UNL     1      10.046  -4.708  -6.423 +0.00 +0.00    +0.002 C  
DOCKED: ATOM     46  C31 UNL     1      10.027  -6.222  -6.625 +0.00 +0.00    +0.022 C  
DOCKED: ENDBRANCH  39  41
DOCKED: ENDBRANCH  36  37
DOCKED: BRANCH  36  47
DOCKED: ATOM     47  C32 UNL     1       9.370  -7.390  -1.539 +0.00 +0.00    +0.012 C  
DOCKED: ATOM     48  C33 UNL     1       9.851  -8.846  -1.556 +0.00 +0.00    +0.009 C  
DOCKED: ATOM     49  C34 UNL     1       8.783  -7.073  -0.159 +0.00 +0.00    +0.009 C  
DOCKED: ENDBRANCH  36  47
DOCKED: ENDBRANCH  34  36
DOCKED: ENDBRANCH  31  32
DOCKED: ENDBRANCH  28  31
DOCKED: ENDBRANCH   1  28
DOCKED: BRANCH   1  50
DOCKED: ATOM     50  C17 UNL     1       7.033  -2.311  -6.293 +0.00 +0.00    +0.028 C  
DOCKED: BRANCH  50  51
DOCKED: ATOM     51  C18 UNL     1       8.361  -1.516  -6.289 +0.00 -0.00    -0.015 C  
DOCKED: ATOM     52  C19 UNL     1       9.226  -1.814  -5.062 +0.00 +0.00    +0.007 C  
DOCKED: ATOM     53  C20 UNL     1       9.176  -1.673  -7.572 +0.00 +0.00    +0.007 C  
DOCKED: ENDBRANCH  50  51
DOCKED: ENDBRANCH   1  50
DOCKED: TORSDOF 21
DOCKED: TER
DOCKED: ENDMDL
________________________________________________________________________________


    FINAL DOCKED STATE:
    ________________________


Run:   10 / 20
Time taken for this run:   1.281s

DOCKED: MODEL        10
DOCKED: USER    Run = 10
DOCKED: USER
DOCKED: USER    Estimated Free Energy of Binding    =  +6.26 kcal/mol  [=(1)+(2)+(3)-(4)]
DOCKED: USER
DOCKED: USER    (1) Final Intermolecular Energy     =  +0.00 kcal/mol
DOCKED: USER        vdW + Hbond + desolv Energy     =  +0.00 kcal/mol
DOCKED: USER        Electrostatic Energy            =  +0.00 kcal/mol
DOCKED: USER        Moving Ligand-Fixed Receptor    =  +0.00 kcal/mol
DOCKED: USER        Moving Ligand-Moving Receptor   =  +0.00 kcal/mol
DOCKED: USER    (2) Final Total Internal Energy     = -13.61 kcal/mol
DOCKED: USER    (3) Torsional Free Energy           =  +6.26 kcal/mol
DOCKED: USER    (4) Unbound System's Energy         = -13.61 kcal/mol
DOCKED: USER
DOCKED: USER
DOCKED: REMARK  Name = ligands/ligand_49.pdb
DOCKED: REMARK  31 active torsions:
DOCKED: REMARK  status: ('A' for Active; 'I' for Inactive)
DOCKED: REMARK    1  A    between atoms: C1_1  and  S1_2
DOCKED: REMARK    2  A    between atoms: S1_2  and  C2_3
DOCKED: REMARK    3  A    between atoms: C2_3  and  C3_4
DOCKED: REMARK    4  A    between atoms: C3_4  and  C4_5
DOCKED: REMARK    5  A    between atoms: C4_5  and  N1_6
DOCKED: REMARK    6  A    between atoms: C4_5  and  C15_21
DOCKED: REMARK    7  A    between atoms: C5_7  and  C6_9
DOCKED: REMARK    8  A    between atoms: C6_9  and  N2_10
DOCKED: REMARK    9  A    between atoms: C6_9  and  C12_18
DOCKED: REMARK   10  A    between atoms: C7_11  and  O3_13
DOCKED: REMARK   11  A    between atoms: O3_13  and  C8_14
DOCKED: REMARK   12  A    between atoms: C8_14  and  C9_15
DOCKED: REMARK   13  A    between atoms: C8_14  and  C10_16
DOCKED: REMARK   14  A    between atoms: C8_14  and  C11_17
DOCKED: REMARK   15  A    between atoms: C12_18  and  C13_19
DOCKED: REMARK   16  A    between atoms: C12_18  and  C14_20
DOCKED: REMARK   17  A    between atoms: N3_23  and  C16_24
DOCKED: REMARK   18  A    between atoms: C16_24  and  C17_25
DOCKED: REMARK   19  A    between atoms: C16_24  and  C21_29
DOCKED: REMARK   20  A    between atoms: C17_25  and  C18_26
DOCKED: REMARK   21  A    between atoms: C18_26  and  C19_27
DOCKED: REMARK   22  A    between atoms: C18_26  and  C20_28
DOCKED: REMARK   23  A    between atoms: C21_29  and  O5_30
DOCKED: REMARK   24  A    between atoms: C21_29  and  C22_31
DOCKED: REMARK   25  A    between atoms: C22_31  and  C23_32
DOCKED: REMARK   26  A    between atoms: N4_34  and  C24_35
DOCKED: REMARK   27  A    between atoms: C24_35  and  C25_36
DOCKED: REMARK   28  A    between atoms: C24_35  and  C32_45
DOCKED: REMARK   29  A    between atoms: N5_38  and  C26_39
DOCKED: REMARK   30  A    between atoms: C32_45  and  C33_46
DOCKED: REMARK   31  A    between atoms: C32_45  and  C34_47
DOCKED: REMARK                            x       y       z     vdW  Elec       q    Type
DOCKED: REMARK                         _______ _______ _______ _____ _____    ______ ____
DOCKED: USER                              x       y       z     vdW  Elec       q    Type
DOCKED: USER                           _______ _______ _______ _____ _____    ______ ____
DOCKED: ROOT
DOCKED: ATOM      1  C16 UNL     1       4.140  -7.874  -3.997 +0.00 +0.00    +0.102 C  
DOCKED: ENDROOT
DOCKED: BRANCH   1   4
DOCKED: ATOM      2  C15 UNL     1       3.538  -5.540  -3.411 +0.00 +0.00    +0.234 C  
DOCKED: ATOM      3  O4  UNL     1       2.777  -5.911  -2.520 +0.00 -0.00    -0.274 OA 
DOCKED: ATOM      4  N3  UNL     1       4.196  -6.430  -4.243 +0.00 -0.00    -0.308 N  
DOCKED: ATOM      5  H28 UNL     1       4.959  -6.077  -4.808 +0.00 +0.00    +0.149 HD 
DOCKED: BRANCH   2   6
DOCKED: ATOM      6  C4  UNL     1       3.838  -4.057  -3.710 +0.00 +0.00    +0.160 C  
DOCKED: BRANCH   6   7
DOCKED: ATOM      7  N1  UNL     1       5.178  -3.942  -4.289 +0.00 -0.00    -0.302 N  
DOCKED: ATOM      8  C5  UNL     1       6.150  -3.069  -3.846 +0.00 +0.00    +0.234 C  
DOCKED: ATOM      9  O1  UNL     1       6.099  -2.475  -2.770 +0.00 -0.00    -0.274 OA 
DOCKED: ATOM     10  H9  UNL     1       5.218  -4.156  -5.278 +0.00 +0.00    +0.150 HD 
DOCKED: BRANCH   8  11
DOCKED: ATOM     11  C6  UNL     1       7.368  -2.924  -4.789 +0.00 +0.00    +0.165 C  
DOCKED: BRANCH  11  12
DOCKED: ATOM     12  N2  UNL     1       8.037  -4.217  -4.822 +0.00 -0.00    -0.270 N  
DOCKED: ATOM     13  C7  UNL     1       7.553  -5.297  -5.482 +0.00 +0.00    +0.401 C  
DOCKED: ATOM     14  O2  UNL     1       6.477  -5.337  -6.060 +0.00 -0.00    -0.226 OA 
DOCKED: ATOM     15  H11 UNL     1       8.991  -4.274  -4.485 +0.00 +0.00    +0.153 HD 
DOCKED: BRANCH  13  16
DOCKED: ATOM     16  O3  UNL     1       8.459  -6.297  -5.399 +0.00 -0.00    -0.445 OA 
DOCKED: BRANCH  16  17
DOCKED: ATOM     17  C8  UNL     1       9.193  -6.740  -6.569 +0.00 +0.00    +0.107 C  
DOCKED: ATOM     18  C9  UNL     1      10.245  -5.704  -6.982 +0.00 +0.00    +0.055 C  
DOCKED: ATOM     19  C10 UNL     1       8.245  -7.093  -7.721 +0.00 +0.00    +0.055 C  
DOCKED: ATOM     20  C11 UNL     1       9.914  -8.020  -6.120 +0.00 +0.00    +0.055 C  
DOCKED: ENDBRANCH  16  17
DOCKED: ENDBRANCH  13  16
DOCKED: ENDBRANCH  11  12
DOCKED: BRANCH  11  21
DOCKED: ATOM     21  C12 UNL     1       7.009  -2.446  -6.214 +0.00 +0.00    +0.012 C  
DOCKED: ATOM     22  C13 UNL     1       8.240  -2.073  -7.043 +0.00 +0.00    +0.009 C  
DOCKED: ATOM     23  C14 UNL     1       6.004  -1.291  -6.224 +0.00 +0.00    +0.009 C  
DOCKED: ENDBRANCH  11  21
DOCKED: ENDBRANCH   8  11
DOCKED: ENDBRANCH   6   7
DOCKED: BRANCH   6  24
DOCKED: ATOM     24  C3  UNL     1       2.672  -3.424  -4.487 +0.00 +0.00    +0.042 C  
DOCKED: BRANCH  24  25
DOCKED: ATOM     25  C2  UNL     1       2.309  -4.167  -5.771 +0.00 +0.00    +0.071 C  
DOCKED: BRANCH  25  27
DOCKED: ATOM     26  C1  UNL     1       3.794  -5.685  -7.548 +0.00 +0.00    +0.084 C  
DOCKED: ATOM     27  S1  UNL     1       3.578  -3.950  -7.070 +0.00 -0.00    -0.164 S  
DOCKED: ENDBRANCH  25  27
DOCKED: ENDBRANCH  24  25
DOCKED: ENDBRANCH   6  24
DOCKED: ENDBRANCH   2   6
DOCKED: ENDBRANCH   1   4
DOCKED: BRANCH   1  28
DOCKED: ATOM     28  C21 UNL     1       5.223  -8.572  -4.878 +0.00 +0.00    +0.143 C  
DOCKED: BRANCH  28  29
DOCKED: ATOM     29  O5  UNL     1       5.742  -7.682  -5.880 +0.00 -0.00    -0.389 OA 
DOCKED: ATOM     30  H40 UNL     1       6.656  -7.441  -5.615 +0.00 +0.00    +0.210 HD 
DOCKED: ENDBRANCH  28  29
DOCKED: BRANCH  28  31
DOCKED: ATOM     31  C22 UNL     1       6.400  -9.225  -4.156 +0.00 +0.00    +0.129 C  
DOCKED: BRANCH  31  32
DOCKED: ATOM     32  C23 UNL     1       6.944  -8.418  -3.000 +0.00 +0.00    +0.216 C  
DOCKED: ATOM     33  O6  UNL     1       7.190  -8.880  -1.892 +0.00 -0.00    -0.276 OA 
DOCKED: ATOM     34  N4  UNL     1       7.154  -7.096  -3.322 +0.00 -0.00    -0.304 N  
DOCKED: ATOM     35  H43 UNL     1       6.699  -6.738  -4.156 +0.00 +0.00    +0.149 HD 
DOCKED: BRANCH  34  36
DOCKED: ATOM     36  C24 UNL     1       7.588  -6.085  -2.351 +0.00 +0.00    +0.161 C  
DOCKED: BRANCH  36  37
DOCKED: ATOM     37  C25 UNL     1       6.463  -5.888  -1.309 +0.00 +0.00    +0.234 C  
DOCKED: ATOM     38  O7  UNL     1       5.680  -4.942  -1.380 +0.00 -0.00    -0.274 OA 
DOCKED: ATOM     39  N5  UNL     1       6.377  -6.881  -0.359 +0.00 -0.00    -0.311 N  
DOCKED: ATOM     40  H45 UNL     1       6.911  -7.734  -0.537 +0.00 +0.00    +0.149 HD 
DOCKED: BRANCH  39  41
DOCKED: ATOM     41  C26 UNL     1       5.318  -6.931   0.639 +0.00 +0.00    +0.073 C  
DOCKED: ATOM     42  C27 UNL     1       5.500  -8.128   1.585 +0.00 +0.00    +0.022 C  
DOCKED: ATOM     43  C28 UNL     1       5.220  -9.462   0.893 +0.00 +0.00    +0.002 C  
DOCKED: ATOM     44  C29 UNL     1       3.840  -9.479   0.244 +0.00 +0.00    +0.000 C  
DOCKED: ATOM     45  C30 UNL     1       3.649  -8.309  -0.714 +0.00 +0.00    +0.002 C  
DOCKED: ATOM     46  C31 UNL     1       3.940  -6.970  -0.038 +0.00 +0.00    +0.022 C  
DOCKED: ENDBRANCH  39  41
DOCKED: ENDBRANCH  36  37
DOCKED: BRANCH  36  47
DOCKED: ATOM     47  C32 UNL     1       8.983  -6.323  -1.726 +0.00 +0.00    +0.012 C  
DOCKED: ATOM     48  C33 UNL     1       9.550  -5.017  -1.158 +0.00 +0.00    +0.009 C  
DOCKED: ATOM     49  C34 UNL     1       9.969  -6.894  -2.750 +0.00 +0.00    +0.009 C  
DOCKED: ENDBRANCH  36  47
DOCKED: ENDBRANCH  34  36
DOCKED: ENDBRANCH  31  32
DOCKED: ENDBRANCH  28  31
DOCKED: ENDBRANCH   1  28
DOCKED: BRANCH   1  50
DOCKED: ATOM     50  C17 UNL     1       2.725  -8.421  -4.270 +0.00 +0.00    +0.028 C  
DOCKED: BRANCH  50  51
DOCKED: ATOM     51  C18 UNL     1       1.883  -7.698  -5.348 +0.00 -0.00    -0.015 C  
DOCKED: ATOM     52  C19 UNL     1       1.704  -8.532  -6.618 +0.00 +0.00    +0.007 C  
DOCKED: ATOM     53  C20 UNL     1       0.532  -7.197  -4.840 +0.00 +0.00    +0.007 C  
DOCKED: ENDBRANCH  50  51
DOCKED: ENDBRANCH   1  50
DOCKED: TORSDOF 21
DOCKED: TER
DOCKED: ENDMDL
________________________________________________________________________________


    FINAL DOCKED STATE:
    ________________________


Run:   11 / 20
Time taken for this run:   1.281s

DOCKED: MODEL        11
DOCKED: USER    Run = 11
DOCKED: USER
DOCKED: USER    Estimated Free Energy of Binding    =  +6.26 kcal/mol  [=(1)+(2)+(3)-(4)]
DOCKED: USER
DOCKED: USER    (1) Final Intermolecular Energy     =  +0.00 kcal/mol
DOCKED: USER        vdW + Hbond + desolv Energy     =  +0.00 kcal/mol
DOCKED: USER        Electrostatic Energy            =  +0.00 kcal/mol
DOCKED: USER        Moving Ligand-Fixed Receptor    =  +0.00 kcal/mol
DOCKED: USER        Moving Ligand-Moving Receptor   =  +0.00 kcal/mol
DOCKED: USER    (2) Final Total Internal Energy     = -13.63 kcal/mol
DOCKED: USER    (3) Torsional Free Energy           =  +6.26 kcal/mol
DOCKED: USER    (4) Unbound System's Energy         = -13.63 kcal/mol
DOCKED: USER
DOCKED: USER
DOCKED: REMARK  Name = ligands/ligand_49.pdb
DOCKED: REMARK  31 active torsions:
DOCKED: REMARK  status: ('A' for Active; 'I' for Inactive)
DOCKED: REMARK    1  A    between atoms: C1_1  and  S1_2
DOCKED: REMARK    2  A    between atoms: S1_2  and  C2_3
DOCKED: REMARK    3  A    between atoms: C2_3  and  C3_4
DOCKED: REMARK    4  A    between atoms: C3_4  and  C4_5
DOCKED: REMARK    5  A    between atoms: C4_5  and  N1_6
DOCKED: REMARK    6  A    between atoms: C4_5  and  C15_21
DOCKED: REMARK    7  A    between atoms: C5_7  and  C6_9
DOCKED: REMARK    8  A    between atoms: C6_9  and  N2_10
DOCKED: REMARK    9  A    between atoms: C6_9  and  C12_18
DOCKED: REMARK   10  A    between atoms: C7_11  and  O3_13
DOCKED: REMARK   11  A    between atoms: O3_13  and  C8_14
DOCKED: REMARK   12  A    between atoms: C8_14  and  C9_15
DOCKED: REMARK   13  A    between atoms: C8_14  and  C10_16
DOCKED: REMARK   14  A    between atoms: C8_14  and  C11_17
DOCKED: REMARK   15  A    between atoms: C12_18  and  C13_19
DOCKED: REMARK   16  A    between atoms: C12_18  and  C14_20
DOCKED: REMARK   17  A    between atoms: N3_23  and  C16_24
DOCKED: REMARK   18  A    between atoms: C16_24  and  C17_25
DOCKED: REMARK   19  A    between atoms: C16_24  and  C21_29
DOCKED: REMARK   20  A    between atoms: C17_25  and  C18_26
DOCKED: REMARK   21  A    between atoms: C18_26  and  C19_27
DOCKED: REMARK   22  A    between atoms: C18_26  and  C20_28
DOCKED: REMARK   23  A    between atoms: C21_29  and  O5_30
DOCKED: REMARK   24  A    between atoms: C21_29  and  C22_31
DOCKED: REMARK   25  A    between atoms: C22_31  and  C23_32
DOCKED: REMARK   26  A    between atoms: N4_34  and  C24_35
DOCKED: REMARK   27  A    between atoms: C24_35  and  C25_36
DOCKED: REMARK   28  A    between atoms: C24_35  and  C32_45
DOCKED: REMARK   29  A    between atoms: N5_38  and  C26_39
DOCKED: REMARK   30  A    between atoms: C32_45  and  C33_46
DOCKED: REMARK   31  A    between atoms: C32_45  and  C34_47
DOCKED: REMARK                            x       y       z     vdW  Elec       q    Type
DOCKED: REMARK                         _______ _______ _______ _____ _____    ______ ____
DOCKED: USER                              x       y       z     vdW  Elec       q    Type
DOCKED: USER                           _______ _______ _______ _____ _____    ______ ____
DOCKED: ROOT
DOCKED: ATOM      1  C16 UNL     1      12.853  -1.373   1.171 +0.00 +0.00    +0.102 C  
DOCKED: ENDROOT
DOCKED: BRANCH   1   4
DOCKED: ATOM      2  C15 UNL     1      12.913   1.031   1.782 +0.00 +0.00    +0.234 C  
DOCKED: ATOM      3  O4  UNL     1      13.921   0.879   2.469 +0.00 -0.00    -0.274 OA 
DOCKED: ATOM      4  N3  UNL     1      12.268  -0.028   1.165 +0.00 -0.00    -0.308 N  
DOCKED: ATOM      5  H28 UNL     1      11.580   0.184   0.453 +0.00 +0.00    +0.149 HD 
DOCKED: BRANCH   2   6
DOCKED: ATOM      6  C4  UNL     1      12.249   2.402   1.538 +0.00 +0.00    +0.160 C  
DOCKED: BRANCH   6   7
DOCKED: ATOM      7  N1  UNL     1      12.583   2.868   0.190 +0.00 -0.00    -0.302 N  
DOCKED: ATOM      8  C5  UNL     1      11.666   3.353  -0.719 +0.00 +0.00    +0.234 C  
DOCKED: ATOM      9  O1  UNL     1      10.519   3.686  -0.425 +0.00 -0.00    -0.274 OA 
DOCKED: ATOM     10  H9  UNL     1      13.383   2.402  -0.219 +0.00 +0.00    +0.150 HD 
DOCKED: BRANCH   8  11
DOCKED: ATOM     11  C6  UNL     1      12.205   3.508  -2.161 +0.00 +0.00    +0.165 C  
DOCKED: BRANCH  11  12
DOCKED: ATOM     12  N2  UNL     1      11.852   2.291  -2.880 +0.00 -0.00    -0.270 N  
DOCKED: ATOM     13  C7  UNL     1      11.969   1.047  -2.356 +0.00 +0.00    +0.401 C  
DOCKED: ATOM     14  O2  UNL     1      12.446   0.794  -1.259 +0.00 -0.00    -0.226 OA 
DOCKED: ATOM     15  H11 UNL     1      11.334   2.377  -3.747 +0.00 +0.00    +0.153 HD 
DOCKED: BRANCH  13  16
DOCKED: ATOM     16  O3  UNL     1      11.463   0.156  -3.238 +0.00 -0.00    -0.445 OA 
DOCKED: BRANCH  16  17
DOCKED: ATOM     17  C8  UNL     1      10.037  -0.097  -3.312 +0.00 +0.00    +0.107 C  
DOCKED: ATOM     18  C9  UNL     1       9.302   0.557  -2.137 +0.00 +0.00    +0.055 C  
DOCKED: ATOM     19  C10 UNL     1       9.743  -1.599  -3.415 +0.00 +0.00    +0.055 C  
DOCKED: ATOM     20  C11 UNL     1       9.585   0.580  -4.614 +0.00 +0.00    +0.055 C  
DOCKED: ENDBRANCH  16  17
DOCKED: ENDBRANCH  13  16
DOCKED: ENDBRANCH  11  12
DOCKED: BRANCH  11  21
DOCKED: ATOM     21  C12 UNL     1      11.683   4.761  -2.898 +0.00 +0.00    +0.012 C  
DOCKED: ATOM     22  C13 UNL     1      11.819   6.039  -2.067 +0.00 +0.00    +0.009 C  
DOCKED: ATOM     23  C14 UNL     1      10.240   4.610  -3.390 +0.00 +0.00    +0.009 C  
DOCKED: ENDBRANCH  11  21
DOCKED: ENDBRANCH   8  11
DOCKED: ENDBRANCH   6   7
DOCKED: BRANCH   6  24
DOCKED: ATOM     24  C3  UNL     1      10.761   2.349   1.922 +0.00 +0.00    +0.042 C  
DOCKED: BRANCH  24  25
DOCKED: ATOM     25  C2  UNL     1      10.482   1.582   3.213 +0.00 +0.00    +0.071 C  
DOCKED: BRANCH  25  27
DOCKED: ATOM     26  C1  UNL     1       9.055   0.333   1.195 +0.00 +0.00    +0.084 C  
DOCKED: ATOM     27  S1  UNL     1       9.583   0.020   2.900 +0.00 -0.00    -0.164 S  
DOCKED: ENDBRANCH  25  27
DOCKED: ENDBRANCH  24  25
DOCKED: ENDBRANCH   6  24
DOCKED: ENDBRANCH   2   6
DOCKED: ENDBRANCH   1   4
DOCKED: BRANCH   1  28
DOCKED: ATOM     28  C21 UNL     1      12.144  -2.229   0.075 +0.00 +0.00    +0.143 C  
DOCKED: BRANCH  28  29
DOCKED: ATOM     29  O5  UNL     1      11.263  -1.429  -0.731 +0.00 -0.00    -0.389 OA 
DOCKED: ATOM     30  H40 UNL     1      11.738  -1.212  -1.561 +0.00 +0.00    +0.210 HD 
DOCKED: ENDBRANCH  28  29
DOCKED: BRANCH  28  31
DOCKED: ATOM     31  C22 UNL     1      13.032  -3.053  -0.854 +0.00 +0.00    +0.129 C  
DOCKED: BRANCH  31  32
DOCKED: ATOM     32  C23 UNL     1      14.249  -2.317  -1.366 +0.00 +0.00    +0.216 C  
DOCKED: ATOM     33  O6  UNL     1      15.405  -2.659  -1.148 +0.00 -0.00    -0.276 OA 
DOCKED: ATOM     34  N4  UNL     1      13.926  -1.215  -2.125 +0.00 -0.00    -0.304 N  
DOCKED: ATOM     35  H43 UNL     1      12.981  -0.854  -2.053 +0.00 +0.00    +0.149 HD 
DOCKED: BRANCH  34  36
DOCKED: ATOM     36  C24 UNL     1      14.923  -0.279  -2.660 +0.00 +0.00    +0.161 C  
DOCKED: BRANCH  36  37
DOCKED: ATOM     37  C25 UNL     1      15.308   0.720  -1.545 +0.00 +0.00    +0.234 C  
DOCKED: ATOM     38  O7  UNL     1      14.976   1.903  -1.599 +0.00 -0.00    -0.274 OA 
DOCKED: ATOM     39  N5  UNL     1      15.979   0.163  -0.479 +0.00 -0.00    -0.311 N  
DOCKED: ATOM     40  H45 UNL     1      15.984  -0.857  -0.422 +0.00 +0.00    +0.149 HD 
DOCKED: BRANCH  39  41
DOCKED: ATOM     41  C26 UNL     1      16.329   0.918   0.717 +0.00 +0.00    +0.073 C  
DOCKED: ATOM     42  C27 UNL     1      17.438   1.940   0.426 +0.00 +0.00    +0.022 C  
DOCKED: ATOM     43  C28 UNL     1      18.791   1.273   0.178 +0.00 +0.00    +0.002 C  
DOCKED: ATOM     44  C29 UNL     1      19.181   0.350   1.328 +0.00 +0.00    +0.000 C  
DOCKED: ATOM     45  C30 UNL     1      18.100  -0.685   1.616 +0.00 +0.00    +0.002 C  
DOCKED: ATOM     46  C31 UNL     1      16.739  -0.031   1.853 +0.00 +0.00    +0.022 C  
DOCKED: ENDBRANCH  39  41
DOCKED: ENDBRANCH  36  37
DOCKED: BRANCH  36  47
DOCKED: ATOM     47  C32 UNL     1      16.138  -0.935  -3.357 +0.00 +0.00    +0.012 C  
DOCKED: ATOM     48  C33 UNL     1      17.328   0.032  -3.389 +0.00 +0.00    +0.009 C  
DOCKED: ATOM     49  C34 UNL     1      15.803  -1.364  -4.790 +0.00 +0.00    +0.009 C  
DOCKED: ENDBRANCH  36  47
DOCKED: ENDBRANCH  34  36
DOCKED: ENDBRANCH  31  32
DOCKED: ENDBRANCH  28  31
DOCKED: ENDBRANCH   1  28
DOCKED: BRANCH   1  50
DOCKED: ATOM     50  C17 UNL     1      12.746  -2.010   2.570 +0.00 +0.00    +0.028 C  
DOCKED: BRANCH  50  51
DOCKED: ATOM     51  C18 UNL     1      14.048  -2.561   3.198 +0.00 -0.00    -0.015 C  
DOCKED: ATOM     52  C19 UNL     1      15.077  -2.988   2.149 +0.00 +0.00    +0.007 C  
DOCKED: ATOM     53  C20 UNL     1      14.683  -1.622   4.222 +0.00 +0.00    +0.007 C  
DOCKED: ENDBRANCH  50  51
DOCKED: ENDBRANCH   1  50
DOCKED: TORSDOF 21
DOCKED: TER
DOCKED: ENDMDL
________________________________________________________________________________


    FINAL DOCKED STATE:
    ________________________


Run:   12 / 20
Time taken for this run:   1.281s

DOCKED: MODEL        12
DOCKED: USER    Run = 12
DOCKED: USER
DOCKED: USER    Estimated Free Energy of Binding    =  +6.26 kcal/mol  [=(1)+(2)+(3)-(4)]
DOCKED: USER
DOCKED: USER    (1) Final Intermolecular Energy     =  +0.00 kcal/mol
DOCKED: USER        vdW + Hbond + desolv Energy     =  +0.00 kcal/mol
DOCKED: USER        Electrostatic Energy            =  +0.00 kcal/mol
DOCKED: USER        Moving Ligand-Fixed Receptor    =  +0.00 kcal/mol
DOCKED: USER        Moving Ligand-Moving Receptor   =  +0.00 kcal/mol
DOCKED: USER    (2) Final Total Internal Energy     = -13.60 kcal/mol
DOCKED: USER    (3) Torsional Free Energy           =  +6.26 kcal/mol
DOCKED: USER    (4) Unbound System's Energy         = -13.60 kcal/mol
DOCKED: USER
DOCKED: USER
DOCKED: REMARK  Name = ligands/ligand_49.pdb
DOCKED: REMARK  31 active torsions:
DOCKED: REMARK  status: ('A' for Active; 'I' for Inactive)
DOCKED: REMARK    1  A    between atoms: C1_1  and  S1_2
DOCKED: REMARK    2  A    between atoms: S1_2  and  C2_3
DOCKED: REMARK    3  A    between atoms: C2_3  and  C3_4
DOCKED: REMARK    4  A    between atoms: C3_4  and  C4_5
DOCKED: REMARK    5  A    between atoms: C4_5  and  N1_6
DOCKED: REMARK    6  A    between atoms: C4_5  and  C15_21
DOCKED: REMARK    7  A    between atoms: C5_7  and  C6_9
DOCKED: REMARK    8  A    between atoms: C6_9  and  N2_10
DOCKED: REMARK    9  A    between atoms: C6_9  and  C12_18
DOCKED: REMARK   10  A    between atoms: C7_11  and  O3_13
DOCKED: REMARK   11  A    between atoms: O3_13  and  C8_14
DOCKED: REMARK   12  A    between atoms: C8_14  and  C9_15
DOCKED: REMARK   13  A    between atoms: C8_14  and  C10_16
DOCKED: REMARK   14  A    between atoms: C8_14  and  C11_17
DOCKED: REMARK   15  A    between atoms: C12_18  and  C13_19
DOCKED: REMARK   16  A    between atoms: C12_18  and  C14_20
DOCKED: REMARK   17  A    between atoms: N3_23  and  C16_24
DOCKED: REMARK   18  A    between atoms: C16_24  and  C17_25
DOCKED: REMARK   19  A    between atoms: C16_24  and  C21_29
DOCKED: REMARK   20  A    between atoms: C17_25  and  C18_26
DOCKED: REMARK   21  A    between atoms: C18_26  and  C19_27
DOCKED: REMARK   22  A    between atoms: C18_26  and  C20_28
DOCKED: REMARK   23  A    between atoms: C21_29  and  O5_30
DOCKED: REMARK   24  A    between atoms: C21_29  and  C22_31
DOCKED: REMARK   25  A    between atoms: C22_31  and  C23_32
DOCKED: REMARK   26  A    between atoms: N4_34  and  C24_35
DOCKED: REMARK   27  A    between atoms: C24_35  and  C25_36
DOCKED: REMARK   28  A    between atoms: C24_35  and  C32_45
DOCKED: REMARK   29  A    between atoms: N5_38  and  C26_39
DOCKED: REMARK   30  A    between atoms: C32_45  and  C33_46
DOCKED: REMARK   31  A    between atoms: C32_45  and  C34_47
DOCKED: REMARK                            x       y       z     vdW  Elec       q    Type
DOCKED: REMARK                         _______ _______ _______ _____ _____    ______ ____
DOCKED: USER                              x       y       z     vdW  Elec       q    Type
DOCKED: USER                           _______ _______ _______ _____ _____    ______ ____
DOCKED: ROOT
DOCKED: ATOM      1  C16 UNL     1      13.761  -1.162   2.063 +0.00 +0.00    +0.102 C  
DOCKED: ENDROOT
DOCKED: BRANCH   1   4
DOCKED: ATOM      2  C15 UNL     1      11.520  -2.090   2.584 +0.00 +0.00    +0.234 C  
DOCKED: ATOM      3  O4  UNL     1      11.015  -0.970   2.628 +0.00 -0.00    -0.274 OA 
DOCKED: ATOM      4  N3  UNL     1      12.876  -2.285   2.388 +0.00 -0.00    -0.308 N  
DOCKED: ATOM      5  H28 UNL     1      13.194  -3.217   2.154 +0.00 +0.00    +0.149 HD 
DOCKED: BRANCH   2   6
DOCKED: ATOM      6  C4  UNL     1      10.712  -3.393   2.750 +0.00 +0.00    +0.160 C  
DOCKED: BRANCH   6   7
DOCKED: ATOM      7  N1  UNL     1      11.397  -4.480   2.047 +0.00 -0.00    -0.302 N  
DOCKED: ATOM      8  C5  UNL     1      10.796  -5.325   1.138 +0.00 +0.00    +0.234 C  
DOCKED: ATOM      9  O1  UNL     1       9.698  -5.112   0.625 +0.00 -0.00    -0.274 OA 
DOCKED: ATOM     10  H9  UNL     1      12.160  -4.891   2.570 +0.00 +0.00    +0.150 HD 
DOCKED: BRANCH   8  11
DOCKED: ATOM     11  C6  UNL     1      11.638  -6.564   0.750 +0.00 +0.00    +0.165 C  
DOCKED: BRANCH  11  12
DOCKED: ATOM     12  N2  UNL     1      12.813  -6.075   0.041 +0.00 -0.00    -0.270 N  
DOCKED: ATOM     13  C7  UNL     1      13.856  -5.460   0.650 +0.00 +0.00    +0.401 C  
DOCKED: ATOM     14  O2  UNL     1      13.905  -5.182   1.839 +0.00 -0.00    -0.226 OA 
DOCKED: ATOM     15  H11 UNL     1      12.944  -6.355  -0.924 +0.00 +0.00    +0.153 HD 
DOCKED: BRANCH  13  16
DOCKED: ATOM     16  O3  UNL     1      14.818  -5.228  -0.272 +0.00 -0.00    -0.445 OA 
DOCKED: BRANCH  16  17
DOCKED: ATOM     17  C8  UNL     1      16.086  -5.932  -0.224 +0.00 +0.00    +0.107 C  
DOCKED: ATOM     18  C9  UNL     1      15.912  -7.402  -0.621 +0.00 +0.00    +0.055 C  
DOCKED: ATOM     19  C10 UNL     1      16.757  -5.778   1.146 +0.00 +0.00    +0.055 C  
DOCKED: ATOM     20  C11 UNL     1      16.961  -5.237  -1.277 +0.00 +0.00    +0.055 C  
DOCKED: ENDBRANCH  16  17
DOCKED: ENDBRANCH  13  16
DOCKED: ENDBRANCH  11  12
DOCKED: BRANCH  11  21
DOCKED: ATOM     21  C12 UNL     1      12.041  -7.452   1.949 +0.00 +0.00    +0.012 C  
DOCKED: ATOM     22  C13 UNL     1      12.643  -8.791   1.519 +0.00 +0.00    +0.009 C  
DOCKED: ATOM     23  C14 UNL     1      10.892  -7.690   2.933 +0.00 +0.00    +0.009 C  
DOCKED: ENDBRANCH  11  21
DOCKED: ENDBRANCH   8  11
DOCKED: ENDBRANCH   6   7
DOCKED: BRANCH   6  24
DOCKED: ATOM     24  C3  UNL     1      10.360  -3.617   4.230 +0.00 +0.00    +0.042 C  
DOCKED: BRANCH  24  25
DOCKED: ATOM     25  C2  UNL     1      11.570  -3.605   5.162 +0.00 +0.00    +0.071 C  
DOCKED: BRANCH  25  27
DOCKED: ATOM     26  C1  UNL     1      14.221  -4.300   4.764 +0.00 +0.00    +0.084 C  
DOCKED: ATOM     27  S1  UNL     1      12.605  -5.098   4.959 +0.00 -0.00    -0.164 S  
DOCKED: ENDBRANCH  25  27
DOCKED: ENDBRANCH  24  25
DOCKED: ENDBRANCH   6  24
DOCKED: ENDBRANCH   2   6
DOCKED: ENDBRANCH   1   4
DOCKED: BRANCH   1  28
DOCKED: ATOM     28  C21 UNL     1      15.147  -1.730   1.623 +0.00 +0.00    +0.143 C  
DOCKED: BRANCH  28  29
DOCKED: ATOM     29  O5  UNL     1      15.271  -3.125   1.945 +0.00 -0.00    -0.389 OA 
DOCKED: ATOM     30  H40 UNL     1      15.214  -3.628   1.105 +0.00 +0.00    +0.210 HD 
DOCKED: ENDBRANCH  28  29
DOCKED: BRANCH  28  31
DOCKED: ATOM     31  C22 UNL     1      15.553  -1.534   0.164 +0.00 +0.00    +0.129 C  
DOCKED: BRANCH  31  32
DOCKED: ATOM     32  C23 UNL     1      14.432  -1.741  -0.827 +0.00 +0.00    +0.216 C  
DOCKED: ATOM     33  O6  UNL     1      14.172  -0.974  -1.746 +0.00 -0.00    -0.276 OA 
DOCKED: ATOM     34  N4  UNL     1      13.728  -2.903  -0.603 +0.00 -0.00    -0.304 N  
DOCKED: ATOM     35  H43 UNL     1      13.831  -3.348   0.304 +0.00 +0.00    +0.149 HD 
DOCKED: BRANCH  34  36
DOCKED: ATOM     36  C24 UNL     1      12.535  -3.289  -1.366 +0.00 +0.00    +0.161 C  
DOCKED: BRANCH  36  37
DOCKED: ATOM     37  C25 UNL     1      11.405  -2.281  -1.055 +0.00 +0.00    +0.234 C  
DOCKED: ATOM     38  O7  UNL     1      10.520  -2.539  -0.240 +0.00 -0.00    -0.274 OA 
DOCKED: ATOM     39  N5  UNL     1      11.515  -1.072  -1.704 +0.00 -0.00    -0.311 N  
DOCKED: ATOM     40  H45 UNL     1      12.409  -0.876  -2.160 +0.00 +0.00    +0.149 HD 
DOCKED: BRANCH  39  41
DOCKED: ATOM     41  C26 UNL     1      10.612   0.044  -1.459 +0.00 +0.00    +0.073 C  
DOCKED: ATOM     42  C27 UNL     1      10.972   1.254  -2.332 +0.00 +0.00    +0.022 C  
DOCKED: ATOM     43  C28 UNL     1      12.275   1.921  -1.892 +0.00 +0.00    +0.002 C  
DOCKED: ATOM     44  C29 UNL     1      12.242   2.299  -0.415 +0.00 +0.00    +0.000 C  
DOCKED: ATOM     45  C30 UNL     1      11.906   1.103   0.469 +0.00 +0.00    +0.002 C  
DOCKED: ATOM     46  C31 UNL     1      10.611   0.420   0.030 +0.00 +0.00    +0.022 C  
DOCKED: ENDBRANCH  39  41
DOCKED: ENDBRANCH  36  37
DOCKED: BRANCH  36  47
DOCKED: ATOM     47  C32 UNL     1      12.764  -3.522  -2.878 +0.00 +0.00    +0.012 C  
DOCKED: ATOM     48  C33 UNL     1      11.625  -4.358  -3.474 +0.00 +0.00    +0.009 C  
DOCKED: ATOM     49  C34 UNL     1      14.097  -4.231  -3.144 +0.00 +0.00    +0.009 C  
DOCKED: ENDBRANCH  36  47
DOCKED: ENDBRANCH  34  36
DOCKED: ENDBRANCH  31  32
DOCKED: ENDBRANCH  28  31
DOCKED: ENDBRANCH   1  28
DOCKED: BRANCH   1  50
DOCKED: ATOM     50  C17 UNL     1      13.879  -0.195   3.257 +0.00 +0.00    +0.028 C  
DOCKED: BRANCH  50  51
DOCKED: ATOM     51  C18 UNL     1      13.765  -0.804   4.675 +0.00 -0.00    -0.015 C  
DOCKED: ATOM     52  C19 UNL     1      15.103  -0.834   5.416 +0.00 +0.00    +0.007 C  
DOCKED: ATOM     53  C20 UNL     1      12.687  -0.152   5.539 +0.00 +0.00    +0.007 C  
DOCKED: ENDBRANCH  50  51
DOCKED: ENDBRANCH   1  50
DOCKED: TORSDOF 21
DOCKED: TER
DOCKED: ENDMDL
________________________________________________________________________________


    FINAL DOCKED STATE:
    ________________________


Run:   13 / 20
Time taken for this run:   1.281s

DOCKED: MODEL        13
DOCKED: USER    Run = 13
DOCKED: USER
DOCKED: USER    Estimated Free Energy of Binding    =  +6.26 kcal/mol  [=(1)+(2)+(3)-(4)]
DOCKED: USER
DOCKED: USER    (1) Final Intermolecular Energy     =  +0.00 kcal/mol
DOCKED: USER        vdW + Hbond + desolv Energy     =  +0.00 kcal/mol
DOCKED: USER        Electrostatic Energy            =  +0.00 kcal/mol
DOCKED: USER        Moving Ligand-Fixed Receptor    =  +0.00 kcal/mol
DOCKED: USER        Moving Ligand-Moving Receptor   =  +0.00 kcal/mol
DOCKED: USER    (2) Final Total Internal Energy     = -13.78 kcal/mol
DOCKED: USER    (3) Torsional Free Energy           =  +6.26 kcal/mol
DOCKED: USER    (4) Unbound System's Energy         = -13.78 kcal/mol
DOCKED: USER
DOCKED: USER
DOCKED: REMARK  Name = ligands/ligand_49.pdb
DOCKED: REMARK  31 active torsions:
DOCKED: REMARK  status: ('A' for Active; 'I' for Inactive)
DOCKED: REMARK    1  A    between atoms: C1_1  and  S1_2
DOCKED: REMARK    2  A    between atoms: S1_2  and  C2_3
DOCKED: REMARK    3  A    between atoms: C2_3  and  C3_4
DOCKED: REMARK    4  A    between atoms: C3_4  and  C4_5
DOCKED: REMARK    5  A    between atoms: C4_5  and  N1_6
DOCKED: REMARK    6  A    between atoms: C4_5  and  C15_21
DOCKED: REMARK    7  A    between atoms: C5_7  and  C6_9
DOCKED: REMARK    8  A    between atoms: C6_9  and  N2_10
DOCKED: REMARK    9  A    between atoms: C6_9  and  C12_18
DOCKED: REMARK   10  A    between atoms: C7_11  and  O3_13
DOCKED: REMARK   11  A    between atoms: O3_13  and  C8_14
DOCKED: REMARK   12  A    between atoms: C8_14  and  C9_15
DOCKED: REMARK   13  A    between atoms: C8_14  and  C10_16
DOCKED: REMARK   14  A    between atoms: C8_14  and  C11_17
DOCKED: REMARK   15  A    between atoms: C12_18  and  C13_19
DOCKED: REMARK   16  A    between atoms: C12_18  and  C14_20
DOCKED: REMARK   17  A    between atoms: N3_23  and  C16_24
DOCKED: REMARK   18  A    between atoms: C16_24  and  C17_25
DOCKED: REMARK   19  A    between atoms: C16_24  and  C21_29
DOCKED: REMARK   20  A    between atoms: C17_25  and  C18_26
DOCKED: REMARK   21  A    between atoms: C18_26  and  C19_27
DOCKED: REMARK   22  A    between atoms: C18_26  and  C20_28
DOCKED: REMARK   23  A    between atoms: C21_29  and  O5_30
DOCKED: REMARK   24  A    between atoms: C21_29  and  C22_31
DOCKED: REMARK   25  A    between atoms: C22_31  and  C23_32
DOCKED: REMARK   26  A    between atoms: N4_34  and  C24_35
DOCKED: REMARK   27  A    between atoms: C24_35  and  C25_36
DOCKED: REMARK   28  A    between atoms: C24_35  and  C32_45
DOCKED: REMARK   29  A    between atoms: N5_38  and  C26_39
DOCKED: REMARK   30  A    between atoms: C32_45  and  C33_46
DOCKED: REMARK   31  A    between atoms: C32_45  and  C34_47
DOCKED: REMARK                            x       y       z     vdW  Elec       q    Type
DOCKED: REMARK                         _______ _______ _______ _____ _____    ______ ____
DOCKED: USER                              x       y       z     vdW  Elec       q    Type
DOCKED: USER                           _______ _______ _______ _____ _____    ______ ____
DOCKED: ROOT
DOCKED: ATOM      1  C16 UNL     1      12.431   0.862  -2.152 +0.00 +0.00    +0.102 C  
DOCKED: ENDROOT
DOCKED: BRANCH   1   4
DOCKED: ATOM      2  C15 UNL     1      11.602   2.877  -3.339 +0.00 +0.00    +0.234 C  
DOCKED: ATOM      3  O4  UNL     1      11.506   2.269  -4.402 +0.00 -0.00    -0.274 OA 
DOCKED: ATOM      4  N3  UNL     1      12.119   2.294  -2.194 +0.00 -0.00    -0.308 N  
DOCKED: ATOM      5  H28 UNL     1      11.978   2.771  -1.312 +0.00 +0.00    +0.149 HD 
DOCKED: BRANCH   2   6
DOCKED: ATOM      6  C4  UNL     1      11.174   4.348  -3.159 +0.00 +0.00    +0.160 C  
DOCKED: BRANCH   6   7
DOCKED: ATOM      7  N1  UNL     1       9.978   4.404  -2.315 +0.00 -0.00    -0.302 N  
DOCKED: ATOM      8  C5  UNL     1       9.947   4.059  -0.980 +0.00 +0.00    +0.234 C  
DOCKED: ATOM      9  O1  UNL     1      10.952   3.910  -0.286 +0.00 -0.00    -0.274 OA 
DOCKED: ATOM     10  H9  UNL     1       9.113   4.244  -2.816 +0.00 +0.00    +0.150 HD 
DOCKED: BRANCH   8  11
DOCKED: ATOM     11  C6  UNL     1       8.527   3.921  -0.381 +0.00 +0.00    +0.165 C  
DOCKED: BRANCH  11  12
DOCKED: ATOM     12  N2  UNL     1       8.174   2.509  -0.443 +0.00 -0.00    -0.270 N  
DOCKED: ATOM     13  C7  UNL     1       8.507   1.696  -1.475 +0.00 +0.00    +0.401 C  
DOCKED: ATOM     14  O2  UNL     1       9.073   2.060  -2.495 +0.00 -0.00    -0.226 OA 
DOCKED: ATOM     15  H11 UNL     1       7.814   2.065   0.394 +0.00 +0.00    +0.153 HD 
DOCKED: BRANCH  13  16
DOCKED: ATOM     16  O3  UNL     1       8.122   0.435  -1.174 +0.00 -0.00    -0.445 OA 
DOCKED: BRANCH  16  17
DOCKED: ATOM     17  C8  UNL     1       6.824  -0.068  -1.577 +0.00 +0.00    +0.107 C  
DOCKED: ATOM     18  C9  UNL     1       6.943  -1.471  -2.182 +0.00 +0.00    +0.055 C  
DOCKED: ATOM     19  C10 UNL     1       6.116   0.912  -2.522 +0.00 +0.00    +0.055 C  
DOCKED: ATOM     20  C11 UNL     1       6.016  -0.160  -0.275 +0.00 +0.00    +0.055 C  
DOCKED: ENDBRANCH  16  17
DOCKED: ENDBRANCH  13  16
DOCKED: ENDBRANCH  11  12
DOCKED: BRANCH  11  21
DOCKED: ATOM     21  C12 UNL     1       8.395   4.464   1.060 +0.00 +0.00    +0.012 C  
DOCKED: ATOM     22  C13 UNL     1       8.992   5.864   1.224 +0.00 +0.00    +0.009 C  
DOCKED: ATOM     23  C14 UNL     1       8.983   3.521   2.113 +0.00 +0.00    +0.009 C  
DOCKED: ENDBRANCH  11  21
DOCKED: ENDBRANCH   8  11
DOCKED: ENDBRANCH   6   7
DOCKED: BRANCH   6  24
DOCKED: ATOM     24  C3  UNL     1      12.379   5.206  -2.741 +0.00 +0.00    +0.042 C  
DOCKED: BRANCH  24  25
DOCKED: ATOM     25  C2  UNL     1      13.691   4.797  -3.407 +0.00 +0.00    +0.071 C  
DOCKED: BRANCH  25  27
DOCKED: ATOM     26  C1  UNL     1      13.984   4.480  -0.671 +0.00 +0.00    +0.084 C  
DOCKED: ATOM     27  S1  UNL     1      14.890   4.124  -2.201 +0.00 -0.00    -0.164 S  
DOCKED: ENDBRANCH  25  27
DOCKED: ENDBRANCH  24  25
DOCKED: ENDBRANCH   6  24
DOCKED: ENDBRANCH   2   6
DOCKED: ENDBRANCH   1   4
DOCKED: BRANCH   1  28
DOCKED: ATOM     28  C21 UNL     1      11.758   0.242  -0.888 +0.00 +0.00    +0.143 C  
DOCKED: BRANCH  28  29
DOCKED: ATOM     29  O5  UNL     1      11.011   1.224  -0.152 +0.00 -0.00    -0.389 OA 
DOCKED: ATOM     30  H40 UNL     1      10.565   1.805  -0.804 +0.00 +0.00    +0.210 HD 
DOCKED: ENDBRANCH  28  29
DOCKED: BRANCH  28  31
DOCKED: ATOM     31  C22 UNL     1      10.869  -0.982  -1.096 +0.00 +0.00    +0.129 C  
DOCKED: BRANCH  31  32
DOCKED: ATOM     32  C23 UNL     1      10.746  -1.424  -2.536 +0.00 +0.00    +0.216 C  
DOCKED: ATOM     33  O6  UNL     1      11.380  -2.348  -3.032 +0.00 -0.00    -0.276 OA 
DOCKED: ATOM     34  N4  UNL     1       9.828  -0.683  -3.246 +0.00 -0.00    -0.304 N  
DOCKED: ATOM     35  H43 UNL     1       9.537   0.206  -2.853 +0.00 +0.00    +0.149 HD 
DOCKED: BRANCH  34  36
DOCKED: ATOM     36  C24 UNL     1       9.590  -0.849  -4.685 +0.00 +0.00    +0.161 C  
DOCKED: BRANCH  36  37
DOCKED: ATOM     37  C25 UNL     1       8.386   0.032  -5.089 +0.00 +0.00    +0.234 C  
DOCKED: ATOM     38  O7  UNL     1       7.314  -0.463  -5.433 +0.00 -0.00    -0.274 OA 
DOCKED: ATOM     39  N5  UNL     1       8.596   1.387  -4.966 +0.00 -0.00    -0.311 N  
DOCKED: ATOM     40  H45 UNL     1       9.425   1.677  -4.443 +0.00 +0.00    +0.149 HD 
DOCKED: BRANCH  39  41
DOCKED: ATOM     41  C26 UNL     1       7.550   2.374  -5.193 +0.00 +0.00    +0.073 C  
DOCKED: ATOM     42  C27 UNL     1       7.066   2.348  -6.650 +0.00 +0.00    +0.022 C  
DOCKED: ATOM     43  C28 UNL     1       8.110   2.904  -7.619 +0.00 +0.00    +0.002 C  
DOCKED: ATOM     44  C29 UNL     1       8.564   4.303  -7.214 +0.00 +0.00    +0.000 C  
DOCKED: ATOM     45  C30 UNL     1       9.067   4.342  -5.776 +0.00 +0.00    +0.002 C  
DOCKED: ATOM     46  C31 UNL     1       8.036   3.777  -4.799 +0.00 +0.00    +0.022 C  
DOCKED: ENDBRANCH  39  41
DOCKED: ENDBRANCH  36  37
DOCKED: BRANCH  36  47
DOCKED: ATOM     47  C32 UNL     1      10.832  -0.661  -5.586 +0.00 +0.00    +0.012 C  
DOCKED: ATOM     48  C33 UNL     1      10.484   0.191  -6.813 +0.00 +0.00    +0.009 C  
DOCKED: ATOM     49  C34 UNL     1      11.398  -2.005  -6.055 +0.00 +0.00    +0.009 C  
DOCKED: ENDBRANCH  36  47
DOCKED: ENDBRANCH  34  36
DOCKED: ENDBRANCH  31  32
DOCKED: ENDBRANCH  28  31
DOCKED: ENDBRANCH   1  28
DOCKED: BRANCH   1  50
DOCKED: ATOM     50  C17 UNL     1      13.955   0.634  -2.174 +0.00 +0.00    +0.028 C  
DOCKED: BRANCH  50  51
DOCKED: ATOM     51  C18 UNL     1      14.595   0.260  -3.533 +0.00 -0.00    -0.015 C  
DOCKED: ATOM     52  C19 UNL     1      14.115  -1.093  -4.062 +0.00 +0.00    +0.007 C  
DOCKED: ATOM     53  C20 UNL     1      14.443   1.340  -4.603 +0.00 +0.00    +0.007 C  
DOCKED: ENDBRANCH  50  51
DOCKED: ENDBRANCH   1  50
DOCKED: TORSDOF 21
DOCKED: TER
DOCKED: ENDMDL
________________________________________________________________________________


    FINAL DOCKED STATE:
    ________________________


Run:   14 / 20
Time taken for this run:   1.281s

DOCKED: MODEL        14
DOCKED: USER    Run = 14
DOCKED: USER
DOCKED: USER    Estimated Free Energy of Binding    =  +6.26 kcal/mol  [=(1)+(2)+(3)-(4)]
DOCKED: USER
DOCKED: USER    (1) Final Intermolecular Energy     =  +0.00 kcal/mol
DOCKED: USER        vdW + Hbond + desolv Energy     =  +0.00 kcal/mol
DOCKED: USER        Electrostatic Energy            =  +0.00 kcal/mol
DOCKED: USER        Moving Ligand-Fixed Receptor    =  +0.00 kcal/mol
DOCKED: USER        Moving Ligand-Moving Receptor   =  +0.00 kcal/mol
DOCKED: USER    (2) Final Total Internal Energy     = -13.92 kcal/mol
DOCKED: USER    (3) Torsional Free Energy           =  +6.26 kcal/mol
DOCKED: USER    (4) Unbound System's Energy         = -13.92 kcal/mol
DOCKED: USER
DOCKED: USER
DOCKED: REMARK  Name = ligands/ligand_49.pdb
DOCKED: REMARK  31 active torsions:
DOCKED: REMARK  status: ('A' for Active; 'I' for Inactive)
DOCKED: REMARK    1  A    between atoms: C1_1  and  S1_2
DOCKED: REMARK    2  A    between atoms: S1_2  and  C2_3
DOCKED: REMARK    3  A    between atoms: C2_3  and  C3_4
DOCKED: REMARK    4  A    between atoms: C3_4  and  C4_5
DOCKED: REMARK    5  A    between atoms: C4_5  and  N1_6
DOCKED: REMARK    6  A    between atoms: C4_5  and  C15_21
DOCKED: REMARK    7  A    between atoms: C5_7  and  C6_9
DOCKED: REMARK    8  A    between atoms: C6_9  and  N2_10
DOCKED: REMARK    9  A    between atoms: C6_9  and  C12_18
DOCKED: REMARK   10  A    between atoms: C7_11  and  O3_13
DOCKED: REMARK   11  A    between atoms: O3_13  and  C8_14
DOCKED: REMARK   12  A    between atoms: C8_14  and  C9_15
DOCKED: REMARK   13  A    between atoms: C8_14  and  C10_16
DOCKED: REMARK   14  A    between atoms: C8_14  and  C11_17
DOCKED: REMARK   15  A    between atoms: C12_18  and  C13_19
DOCKED: REMARK   16  A    between atoms: C12_18  and  C14_20
DOCKED: REMARK   17  A    between atoms: N3_23  and  C16_24
DOCKED: REMARK   18  A    between atoms: C16_24  and  C17_25
DOCKED: REMARK   19  A    between atoms: C16_24  and  C21_29
DOCKED: REMARK   20  A    between atoms: C17_25  and  C18_26
DOCKED: REMARK   21  A    between atoms: C18_26  and  C19_27
DOCKED: REMARK   22  A    between atoms: C18_26  and  C20_28
DOCKED: REMARK   23  A    between atoms: C21_29  and  O5_30
DOCKED: REMARK   24  A    between atoms: C21_29  and  C22_31
DOCKED: REMARK   25  A    between atoms: C22_31  and  C23_32
DOCKED: REMARK   26  A    between atoms: N4_34  and  C24_35
DOCKED: REMARK   27  A    between atoms: C24_35  and  C25_36
DOCKED: REMARK   28  A    between atoms: C24_35  and  C32_45
DOCKED: REMARK   29  A    between atoms: N5_38  and  C26_39
DOCKED: REMARK   30  A    between atoms: C32_45  and  C33_46
DOCKED: REMARK   31  A    between atoms: C32_45  and  C34_47
DOCKED: REMARK                            x       y       z     vdW  Elec       q    Type
DOCKED: REMARK                         _______ _______ _______ _____ _____    ______ ____
DOCKED: USER                              x       y       z     vdW  Elec       q    Type
DOCKED: USER                           _______ _______ _______ _____ _____    ______ ____
DOCKED: ROOT
DOCKED: ATOM      1  C16 UNL     1       7.613  -6.729   4.470 +0.00 +0.00    +0.102 C  
DOCKED: ENDROOT
DOCKED: BRANCH   1   4
DOCKED: ATOM      2  C15 UNL     1       6.584  -4.889   3.162 +0.00 +0.00    +0.234 C  
DOCKED: ATOM      3  O4  UNL     1       6.984  -4.039   3.954 +0.00 -0.00    -0.274 OA 
DOCKED: ATOM      4  N3  UNL     1       6.776  -6.245   3.367 +0.00 -0.00    -0.308 N  
DOCKED: ATOM      5  H28 UNL     1       6.614  -6.872   2.589 +0.00 +0.00    +0.149 HD 
DOCKED: BRANCH   2   6
DOCKED: ATOM      6  C4  UNL     1       5.820  -4.550   1.865 +0.00 +0.00    +0.160 C  
DOCKED: BRANCH   6   7
DOCKED: ATOM      7  N1  UNL     1       6.190  -5.508   0.821 +0.00 -0.00    -0.302 N  
DOCKED: ATOM      8  C5  UNL     1       5.938  -5.335  -0.524 +0.00 +0.00    +0.234 C  
DOCKED: ATOM      9  O1  UNL     1       5.609  -4.262  -1.028 +0.00 -0.00    -0.274 OA 
DOCKED: ATOM     10  H9  UNL     1       6.199  -6.472   1.132 +0.00 +0.00    +0.150 HD 
DOCKED: BRANCH   8  11
DOCKED: ATOM     11  C6  UNL     1       6.156  -6.598  -1.391 +0.00 +0.00    +0.165 C  
DOCKED: BRANCH  11  12
DOCKED: ATOM     12  N2  UNL     1       7.445  -7.159  -1.008 +0.00 -0.00    -0.270 N  
DOCKED: ATOM     13  C7  UNL     1       7.630  -7.940   0.083 +0.00 +0.00    +0.401 C  
DOCKED: ATOM     14  O2  UNL     1       6.767  -8.205   0.907 +0.00 -0.00    -0.226 OA 
DOCKED: ATOM     15  H11 UNL     1       8.207  -7.112  -1.675 +0.00 +0.00    +0.153 HD 
DOCKED: BRANCH  13  16
DOCKED: ATOM     16  O3  UNL     1       8.910  -8.376   0.091 +0.00 -0.00    -0.445 OA 
DOCKED: BRANCH  16  17
DOCKED: ATOM     17  C8  UNL     1       9.989  -7.523   0.551 +0.00 +0.00    +0.107 C  
DOCKED: ATOM     18  C9  UNL     1      11.097  -8.348   1.215 +0.00 +0.00    +0.055 C  
DOCKED: ATOM     19  C10 UNL     1       9.467  -6.410   1.468 +0.00 +0.00    +0.055 C  
DOCKED: ATOM     20  C11 UNL     1      10.552  -6.879  -0.725 +0.00 +0.00    +0.055 C  
DOCKED: ENDBRANCH  16  17
DOCKED: ENDBRANCH  13  16
DOCKED: ENDBRANCH  11  12
DOCKED: BRANCH  11  21
DOCKED: ATOM     21  C12 UNL     1       5.032  -7.651  -1.266 +0.00 +0.00    +0.012 C  
DOCKED: ATOM     22  C13 UNL     1       5.152  -8.773  -2.298 +0.00 +0.00    +0.009 C  
DOCKED: ATOM     23  C14 UNL     1       3.629  -7.039  -1.322 +0.00 +0.00    +0.009 C  
DOCKED: ENDBRANCH  11  21
DOCKED: ENDBRANCH   8  11
DOCKED: ENDBRANCH   6   7
DOCKED: BRANCH   6  24
DOCKED: ATOM     24  C3  UNL     1       4.323  -4.368   2.162 +0.00 +0.00    +0.042 C  
DOCKED: BRANCH  24  25
DOCKED: ATOM     25  C2  UNL     1       3.900  -4.868   3.542 +0.00 +0.00    +0.071 C  
DOCKED: BRANCH  25  27
DOCKED: ATOM     26  C1  UNL     1       2.147  -5.912   1.670 +0.00 +0.00    +0.084 C  
DOCKED: ATOM     27  S1  UNL     1       2.481  -6.017   3.448 +0.00 -0.00    -0.164 S  
DOCKED: ENDBRANCH  25  27
DOCKED: ENDBRANCH  24  25
DOCKED: ENDBRANCH   6  24
DOCKED: ENDBRANCH   2   6
DOCKED: ENDBRANCH   1   4
DOCKED: BRANCH   1  28
DOCKED: ATOM     28  C21 UNL     1       7.788  -8.273   4.323 +0.00 +0.00    +0.143 C  
DOCKED: BRANCH  28  29
DOCKED: ATOM     29  O5  UNL     1       6.906  -8.811   3.323 +0.00 -0.00    -0.389 OA 
DOCKED: ATOM     30  H40 UNL     1       7.224  -8.497   2.450 +0.00 +0.00    +0.210 HD 
DOCKED: ENDBRANCH  28  29
DOCKED: BRANCH  28  31
DOCKED: ATOM     31  C22 UNL     1       9.197  -8.796   4.054 +0.00 +0.00    +0.129 C  
DOCKED: BRANCH  31  32
DOCKED: ATOM     32  C23 UNL     1       9.241 -10.175   3.437 +0.00 +0.00    +0.216 C  
DOCKED: ATOM     33  O6  UNL     1       9.799 -11.141   3.944 +0.00 -0.00    -0.276 OA 
DOCKED: ATOM     34  N4  UNL     1       8.570 -10.245   2.237 +0.00 -0.00    -0.304 N  
DOCKED: ATOM     35  H43 UNL     1       8.357  -9.372   1.765 +0.00 +0.00    +0.149 HD 
DOCKED: BRANCH  34  36
DOCKED: ATOM     36  C24 UNL     1       8.544 -11.445   1.392 +0.00 +0.00    +0.161 C  
DOCKED: BRANCH  36  37
DOCKED: ATOM     37  C25 UNL     1       7.076 -11.905   1.237 +0.00 +0.00    +0.234 C  
DOCKED: ATOM     38  O7  UNL     1       6.786 -13.092   1.089 +0.00 -0.00    -0.274 OA 
DOCKED: ATOM     39  N5  UNL     1       6.141 -10.900   1.346 +0.00 -0.00    -0.311 N  
DOCKED: ATOM     40  H45 UNL     1       6.472 -10.004   1.710 +0.00 +0.00    +0.149 HD 
DOCKED: BRANCH  39  41
DOCKED: ATOM     41  C26 UNL     1       4.707 -11.148   1.338 +0.00 +0.00    +0.073 C  
DOCKED: ATOM     42  C27 UNL     1       3.928  -9.904   0.886 +0.00 +0.00    +0.022 C  
DOCKED: ATOM     43  C28 UNL     1       3.956  -8.790   1.933 +0.00 +0.00    +0.002 C  
DOCKED: ATOM     44  C29 UNL     1       3.466  -9.282   3.290 +0.00 +0.00    +0.000 C  
DOCKED: ATOM     45  C30 UNL     1       4.243 -10.506   3.764 +0.00 +0.00    +0.002 C  
DOCKED: ATOM     46  C31 UNL     1       4.233 -11.622   2.720 +0.00 +0.00    +0.022 C  
DOCKED: ENDBRANCH  39  41
DOCKED: ENDBRANCH  36  37
DOCKED: BRANCH  36  47
DOCKED: ATOM     47  C32 UNL     1       9.305 -11.327   0.051 +0.00 +0.00    +0.012 C  
DOCKED: ATOM     48  C33 UNL     1       8.321 -11.228  -1.121 +0.00 +0.00    +0.009 C  
DOCKED: ATOM     49  C34 UNL     1      10.236 -12.522  -0.177 +0.00 +0.00    +0.009 C  
DOCKED: ENDBRANCH  36  47
DOCKED: ENDBRANCH  34  36
DOCKED: ENDBRANCH  31  32
DOCKED: ENDBRANCH  28  31
DOCKED: ENDBRANCH   1  28
DOCKED: BRANCH   1  50
DOCKED: ATOM     50  C17 UNL     1       7.005  -6.338   5.831 +0.00 +0.00    +0.028 C  
DOCKED: BRANCH  50  51
DOCKED: ATOM     51  C18 UNL     1       5.477  -6.515   6.000 +0.00 -0.00    -0.015 C  
DOCKED: ATOM     52  C19 UNL     1       5.079  -7.958   6.314 +0.00 +0.00    +0.007 C  
DOCKED: ATOM     53  C20 UNL     1       4.855  -5.554   7.012 +0.00 +0.00    +0.007 C  
DOCKED: ENDBRANCH  50  51
DOCKED: ENDBRANCH   1  50
DOCKED: TORSDOF 21
DOCKED: TER
DOCKED: ENDMDL
________________________________________________________________________________


    FINAL DOCKED STATE:
    ________________________


Run:   15 / 20
Time taken for this run:   1.281s

DOCKED: MODEL        15
DOCKED: USER    Run = 15
DOCKED: USER
DOCKED: USER    Estimated Free Energy of Binding    =  +6.26 kcal/mol  [=(1)+(2)+(3)-(4)]
DOCKED: USER
DOCKED: USER    (1) Final Intermolecular Energy     =  +0.00 kcal/mol
DOCKED: USER        vdW + Hbond + desolv Energy     =  +0.00 kcal/mol
DOCKED: USER        Electrostatic Energy            =  +0.00 kcal/mol
DOCKED: USER        Moving Ligand-Fixed Receptor    =  +0.00 kcal/mol
DOCKED: USER        Moving Ligand-Moving Receptor   =  +0.00 kcal/mol
DOCKED: USER    (2) Final Total Internal Energy     = -13.63 kcal/mol
DOCKED: USER    (3) Torsional Free Energy           =  +6.26 kcal/mol
DOCKED: USER    (4) Unbound System's Energy         = -13.63 kcal/mol
DOCKED: USER
DOCKED: USER
DOCKED: REMARK  Name = ligands/ligand_49.pdb
DOCKED: REMARK  31 active torsions:
DOCKED: REMARK  status: ('A' for Active; 'I' for Inactive)
DOCKED: REMARK    1  A    between atoms: C1_1  and  S1_2
DOCKED: REMARK    2  A    between atoms: S1_2  and  C2_3
DOCKED: REMARK    3  A    between atoms: C2_3  and  C3_4
DOCKED: REMARK    4  A    between atoms: C3_4  and  C4_5
DOCKED: REMARK    5  A    between atoms: C4_5  and  N1_6
DOCKED: REMARK    6  A    between atoms: C4_5  and  C15_21
DOCKED: REMARK    7  A    between atoms: C5_7  and  C6_9
DOCKED: REMARK    8  A    between atoms: C6_9  and  N2_10
DOCKED: REMARK    9  A    between atoms: C6_9  and  C12_18
DOCKED: REMARK   10  A    between atoms: C7_11  and  O3_13
DOCKED: REMARK   11  A    between atoms: O3_13  and  C8_14
DOCKED: REMARK   12  A    between atoms: C8_14  and  C9_15
DOCKED: REMARK   13  A    between atoms: C8_14  and  C10_16
DOCKED: REMARK   14  A    between atoms: C8_14  and  C11_17
DOCKED: REMARK   15  A    between atoms: C12_18  and  C13_19
DOCKED: REMARK   16  A    between atoms: C12_18  and  C14_20
DOCKED: REMARK   17  A    between atoms: N3_23  and  C16_24
DOCKED: REMARK   18  A    between atoms: C16_24  and  C17_25
DOCKED: REMARK   19  A    between atoms: C16_24  and  C21_29
DOCKED: REMARK   20  A    between atoms: C17_25  and  C18_26
DOCKED: REMARK   21  A    between atoms: C18_26  and  C19_27
DOCKED: REMARK   22  A    between atoms: C18_26  and  C20_28
DOCKED: REMARK   23  A    between atoms: C21_29  and  O5_30
DOCKED: REMARK   24  A    between atoms: C21_29  and  C22_31
DOCKED: REMARK   25  A    between atoms: C22_31  and  C23_32
DOCKED: REMARK   26  A    between atoms: N4_34  and  C24_35
DOCKED: REMARK   27  A    between atoms: C24_35  and  C25_36
DOCKED: REMARK   28  A    between atoms: C24_35  and  C32_45
DOCKED: REMARK   29  A    between atoms: N5_38  and  C26_39
DOCKED: REMARK   30  A    between atoms: C32_45  and  C33_46
DOCKED: REMARK   31  A    between atoms: C32_45  and  C34_47
DOCKED: REMARK                            x       y       z     vdW  Elec       q    Type
DOCKED: REMARK                         _______ _______ _______ _____ _____    ______ ____
DOCKED: USER                              x       y       z     vdW  Elec       q    Type
DOCKED: USER                           _______ _______ _______ _____ _____    ______ ____
DOCKED: ROOT
DOCKED: ATOM      1  C16 UNL     1      12.891   2.134   6.159 +0.00 +0.00    +0.102 C  
DOCKED: ENDROOT
DOCKED: BRANCH   1   4
DOCKED: ATOM      2  C15 UNL     1      13.134   4.247   4.882 +0.00 +0.00    +0.234 C  
DOCKED: ATOM      3  O4  UNL     1      14.160   4.550   5.488 +0.00 -0.00    -0.274 OA 
DOCKED: ATOM      4  N3  UNL     1      12.396   3.118   5.191 +0.00 -0.00    -0.308 N  
DOCKED: ATOM      5  H28 UNL     1      11.692   2.814   4.530 +0.00 +0.00    +0.149 HD 
DOCKED: BRANCH   2   6
DOCKED: ATOM      6  C4  UNL     1      12.551   5.086   3.727 +0.00 +0.00    +0.160 C  
DOCKED: BRANCH   6   7
DOCKED: ATOM      7  N1  UNL     1      12.852   4.430   2.452 +0.00 -0.00    -0.302 N  
DOCKED: ATOM      8  C5  UNL     1      11.926   4.187   1.460 +0.00 +0.00    +0.234 C  
DOCKED: ATOM      9  O1  UNL     1      10.813   4.709   1.417 +0.00 -0.00    -0.274 OA 
DOCKED: ATOM     10  H9  UNL     1      13.606   3.756   2.505 +0.00 +0.00    +0.150 HD 
DOCKED: BRANCH   8  11
DOCKED: ATOM     11  C6  UNL     1      12.410   3.231   0.343 +0.00 +0.00    +0.165 C  
DOCKED: BRANCH  11  12
DOCKED: ATOM     12  N2  UNL     1      11.947   1.895   0.696 +0.00 -0.00    -0.270 N  
DOCKED: ATOM     13  C7  UNL     1      12.003   1.387   1.951 +0.00 +0.00    +0.401 C  
DOCKED: ATOM     14  O2  UNL     1      12.506   1.952   2.910 +0.00 -0.00    -0.226 OA 
DOCKED: ATOM     15  H11 UNL     1      11.400   1.381   0.015 +0.00 +0.00    +0.153 HD 
DOCKED: BRANCH  13  16
DOCKED: ATOM     16  O3  UNL     1      11.402   0.176   1.954 +0.00 -0.00    -0.445 OA 
DOCKED: BRANCH  16  17
DOCKED: ATOM     17  C8  UNL     1       9.961   0.055   2.055 +0.00 +0.00    +0.107 C  
DOCKED: ATOM     18  C9  UNL     1       9.320   1.404   2.404 +0.00 +0.00    +0.055 C  
DOCKED: ATOM     19  C10 UNL     1       9.562  -1.047   3.044 +0.00 +0.00    +0.055 C  
DOCKED: ATOM     20  C11 UNL     1       9.501  -0.359   0.650 +0.00 +0.00    +0.055 C  
DOCKED: ENDBRANCH  16  17
DOCKED: ENDBRANCH  13  16
DOCKED: ENDBRANCH  11  12
DOCKED: BRANCH  11  21
DOCKED: ATOM     21  C12 UNL     1      11.939   3.628  -1.074 +0.00 +0.00    +0.012 C  
DOCKED: ATOM     22  C13 UNL     1      12.191   5.103  -1.393 +0.00 +0.00    +0.009 C  
DOCKED: ATOM     23  C14 UNL     1      10.470   3.281  -1.337 +0.00 +0.00    +0.009 C  
DOCKED: ENDBRANCH  11  21
DOCKED: ENDBRANCH   8  11
DOCKED: ENDBRANCH   6   7
DOCKED: BRANCH   6  24
DOCKED: ATOM     24  C3  UNL     1      11.082   5.439   4.013 +0.00 +0.00    +0.042 C  
DOCKED: BRANCH  24  25
DOCKED: ATOM     25  C2  UNL     1      10.810   5.821   5.467 +0.00 +0.00    +0.071 C  
DOCKED: BRANCH  25  27
DOCKED: ATOM     26  C1  UNL     1       9.219   3.635   4.867 +0.00 +0.00    +0.084 C  
DOCKED: ATOM     27  S1  UNL     1       9.754   4.590   6.312 +0.00 -0.00    -0.164 S  
DOCKED: ENDBRANCH  25  27
DOCKED: ENDBRANCH  24  25
DOCKED: ENDBRANCH   6  24
DOCKED: ENDBRANCH   2   6
DOCKED: ENDBRANCH   1   4
DOCKED: BRANCH   1  28
DOCKED: ATOM     28  C21 UNL     1      12.083   0.810   5.982 +0.00 +0.00    +0.143 C  
DOCKED: BRANCH  28  29
DOCKED: ATOM     29  O5  UNL     1      11.223   0.866   4.832 +0.00 -0.00    -0.389 OA 
DOCKED: ATOM     30  H40 UNL     1      11.664   0.369   4.110 +0.00 +0.00    +0.210 HD 
DOCKED: ENDBRANCH  28  29
DOCKED: BRANCH  28  31
DOCKED: ATOM     31  C22 UNL     1      12.877  -0.493   5.928 +0.00 +0.00    +0.129 C  
DOCKED: BRANCH  31  32
DOCKED: ATOM     32  C23 UNL     1      14.112  -0.433   5.060 +0.00 +0.00    +0.216 C  
DOCKED: ATOM     33  O6  UNL     1      15.254  -0.602   5.471 +0.00 -0.00    -0.276 OA 
DOCKED: ATOM     34  N4  UNL     1      13.825  -0.179   3.737 +0.00 -0.00    -0.304 N  
DOCKED: ATOM     35  H43 UNL     1      12.907   0.195   3.519 +0.00 +0.00    +0.149 HD 
DOCKED: BRANCH  34  36
DOCKED: ATOM     36  C24 UNL     1      14.852   0.021   2.708 +0.00 +0.00    +0.161 C  
DOCKED: BRANCH  36  37
DOCKED: ATOM     37  C25 UNL     1      15.350   1.483   2.787 +0.00 +0.00    +0.234 C  
DOCKED: ATOM     38  O7  UNL     1      15.089   2.299   1.905 +0.00 -0.00    -0.274 OA 
DOCKED: ATOM     39  N5  UNL     1      16.035   1.797   3.939 +0.00 -0.00    -0.311 N  
DOCKED: ATOM     40  H45 UNL     1      15.981   1.121   4.704 +0.00 +0.00    +0.149 HD 
DOCKED: BRANCH  39  41
DOCKED: ATOM     41  C26 UNL     1      16.487   3.146   4.248 +0.00 +0.00    +0.073 C  
DOCKED: ATOM     42  C27 UNL     1      17.649   3.568   3.336 +0.00 +0.00    +0.022 C  
DOCKED: ATOM     43  C28 UNL     1      18.942   2.820   3.661 +0.00 +0.00    +0.002 C  
DOCKED: ATOM     44  C29 UNL     1      19.318   2.961   5.132 +0.00 +0.00    +0.000 C  
DOCKED: ATOM     45  C30 UNL     1      18.183   2.527   6.052 +0.00 +0.00    +0.002 C  
DOCKED: ATOM     46  C31 UNL     1      16.881   3.259   5.728 +0.00 +0.00    +0.022 C  
DOCKED: ENDBRANCH  39  41
DOCKED: ENDBRANCH  36  37
DOCKED: BRANCH  36  47
DOCKED: ATOM     47  C32 UNL     1      15.991  -1.026   2.699 +0.00 +0.00    +0.012 C  
DOCKED: ATOM     48  C33 UNL     1      17.230  -0.469   1.987 +0.00 +0.00    +0.009 C  
DOCKED: ATOM     49  C34 UNL     1      15.559  -2.324   2.007 +0.00 +0.00    +0.009 C  
DOCKED: ENDBRANCH  36  47
DOCKED: ENDBRANCH  34  36
DOCKED: ENDBRANCH  31  32
DOCKED: ENDBRANCH  28  31
DOCKED: ENDBRANCH   1  28
DOCKED: BRANCH   1  50
DOCKED: ATOM     50  C17 UNL     1      12.801   2.686   7.595 +0.00 +0.00    +0.028 C  
DOCKED: BRANCH  50  51
DOCKED: ATOM     51  C18 UNL     1      14.089   2.645   8.451 +0.00 -0.00    -0.015 C  
DOCKED: ATOM     52  C19 UNL     1      15.054   1.539   8.018 +0.00 +0.00    +0.007 C  
DOCKED: ATOM     53  C20 UNL     1      14.814   3.987   8.537 +0.00 +0.00    +0.007 C  
DOCKED: ENDBRANCH  50  51
DOCKED: ENDBRANCH   1  50
DOCKED: TORSDOF 21
DOCKED: TER
DOCKED: ENDMDL
________________________________________________________________________________


    FINAL DOCKED STATE:
    ________________________


Run:   16 / 20
Time taken for this run:   1.281s

DOCKED: MODEL        16
DOCKED: USER    Run = 16
DOCKED: USER
DOCKED: USER    Estimated Free Energy of Binding    =  +6.26 kcal/mol  [=(1)+(2)+(3)-(4)]
DOCKED: USER
DOCKED: USER    (1) Final Intermolecular Energy     =  +0.00 kcal/mol
DOCKED: USER        vdW + Hbond + desolv Energy     =  +0.00 kcal/mol
DOCKED: USER        Electrostatic Energy            =  +0.00 kcal/mol
DOCKED: USER        Moving Ligand-Fixed Receptor    =  +0.00 kcal/mol
DOCKED: USER        Moving Ligand-Moving Receptor   =  +0.00 kcal/mol
DOCKED: USER    (2) Final Total Internal Energy     = -13.64 kcal/mol
DOCKED: USER    (3) Torsional Free Energy           =  +6.26 kcal/mol
DOCKED: USER    (4) Unbound System's Energy         = -13.64 kcal/mol
DOCKED: USER
DOCKED: USER
DOCKED: REMARK  Name = ligands/ligand_49.pdb
DOCKED: REMARK  31 active torsions:
DOCKED: REMARK  status: ('A' for Active; 'I' for Inactive)
DOCKED: REMARK    1  A    between atoms: C1_1  and  S1_2
DOCKED: REMARK    2  A    between atoms: S1_2  and  C2_3
DOCKED: REMARK    3  A    between atoms: C2_3  and  C3_4
DOCKED: REMARK    4  A    between atoms: C3_4  and  C4_5
DOCKED: REMARK    5  A    between atoms: C4_5  and  N1_6
DOCKED: REMARK    6  A    between atoms: C4_5  and  C15_21
DOCKED: REMARK    7  A    between atoms: C5_7  and  C6_9
DOCKED: REMARK    8  A    between atoms: C6_9  and  N2_10
DOCKED: REMARK    9  A    between atoms: C6_9  and  C12_18
DOCKED: REMARK   10  A    between atoms: C7_11  and  O3_13
DOCKED: REMARK   11  A    between atoms: O3_13  and  C8_14
DOCKED: REMARK   12  A    between atoms: C8_14  and  C9_15
DOCKED: REMARK   13  A    between atoms: C8_14  and  C10_16
DOCKED: REMARK   14  A    between atoms: C8_14  and  C11_17
DOCKED: REMARK   15  A    between atoms: C12_18  and  C13_19
DOCKED: REMARK   16  A    between atoms: C12_18  and  C14_20
DOCKED: REMARK   17  A    between atoms: N3_23  and  C16_24
DOCKED: REMARK   18  A    between atoms: C16_24  and  C17_25
DOCKED: REMARK   19  A    between atoms: C16_24  and  C21_29
DOCKED: REMARK   20  A    between atoms: C17_25  and  C18_26
DOCKED: REMARK   21  A    between atoms: C18_26  and  C19_27
DOCKED: REMARK   22  A    between atoms: C18_26  and  C20_28
DOCKED: REMARK   23  A    between atoms: C21_29  and  O5_30
DOCKED: REMARK   24  A    between atoms: C21_29  and  C22_31
DOCKED: REMARK   25  A    between atoms: C22_31  and  C23_32
DOCKED: REMARK   26  A    between atoms: N4_34  and  C24_35
DOCKED: REMARK   27  A    between atoms: C24_35  and  C25_36
DOCKED: REMARK   28  A    between atoms: C24_35  and  C32_45
DOCKED: REMARK   29  A    between atoms: N5_38  and  C26_39
DOCKED: REMARK   30  A    between atoms: C32_45  and  C33_46
DOCKED: REMARK   31  A    between atoms: C32_45  and  C34_47
DOCKED: REMARK                            x       y       z     vdW  Elec       q    Type
DOCKED: REMARK                         _______ _______ _______ _____ _____    ______ ____
DOCKED: USER                              x       y       z     vdW  Elec       q    Type
DOCKED: USER                           _______ _______ _______ _____ _____    ______ ____
DOCKED: ROOT
DOCKED: ATOM      1  C16 UNL     1       4.538   0.152  -2.234 +0.00 +0.00    +0.102 C  
DOCKED: ENDROOT
DOCKED: BRANCH   1   4
DOCKED: ATOM      2  C15 UNL     1       3.713  -0.927  -4.311 +0.00 +0.00    +0.234 C  
DOCKED: ATOM      3  O4  UNL     1       4.579  -0.383  -4.993 +0.00 -0.00    -0.274 OA 
DOCKED: ATOM      4  N3  UNL     1       3.563  -0.669  -2.959 +0.00 -0.00    -0.308 N  
DOCKED: ATOM      5  H28 UNL     1       2.980  -1.296  -2.417 +0.00 +0.00    +0.149 HD 
DOCKED: BRANCH   2   6
DOCKED: ATOM      6  C4  UNL     1       2.698  -1.941  -4.877 +0.00 +0.00    +0.160 C  
DOCKED: BRANCH   6   7
DOCKED: ATOM      7  N1  UNL     1       3.104  -3.296  -4.495 +0.00 -0.00    -0.302 N  
DOCKED: ATOM      8  C5  UNL     1       2.266  -4.232  -3.925 +0.00 +0.00    +0.234 C  
DOCKED: ATOM      9  O1  UNL     1       1.040  -4.133  -3.904 +0.00 -0.00    -0.274 OA 
DOCKED: ATOM     10  H9  UNL     1       4.076  -3.372  -4.221 +0.00 +0.00    +0.150 HD 
DOCKED: BRANCH   8  11
DOCKED: ATOM     11  C6  UNL     1       2.983  -5.475  -3.347 +0.00 +0.00    +0.165 C  
DOCKED: BRANCH  11  12
DOCKED: ATOM     12  N2  UNL     1       3.187  -5.227  -1.926 +0.00 -0.00    -0.270 N  
DOCKED: ATOM     13  C7  UNL     1       3.611  -4.042  -1.423 +0.00 +0.00    +0.401 C  
DOCKED: ATOM     14  O2  UNL     1       3.938  -3.075  -2.096 +0.00 -0.00    -0.226 OA 
DOCKED: ATOM     15  H11 UNL     1       2.835  -5.908  -1.263 +0.00 +0.00    +0.153 HD 
DOCKED: BRANCH  13  16
DOCKED: ATOM     16  O3  UNL     1       3.595  -4.114  -0.074 +0.00 -0.00    -0.445 OA 
DOCKED: BRANCH  16  17
DOCKED: ATOM     17  C8  UNL     1       2.368  -3.914   0.673 +0.00 +0.00    +0.107 C  
DOCKED: ATOM     18  C9  UNL     1       1.258  -3.370  -0.233 +0.00 +0.00    +0.055 C  
DOCKED: ATOM     19  C10 UNL     1       2.602  -3.025   1.900 +0.00 +0.00    +0.055 C  
DOCKED: ATOM     20  C11 UNL     1       1.967  -5.316   1.154 +0.00 +0.00    +0.055 C  
DOCKED: ENDBRANCH  16  17
DOCKED: ENDBRANCH  13  16
DOCKED: ENDBRANCH  11  12
DOCKED: BRANCH  11  21
DOCKED: ATOM     21  C12 UNL     1       2.227  -6.803  -3.577 +0.00 +0.00    +0.012 C  
DOCKED: ATOM     22  C13 UNL     1       1.042  -6.984  -2.628 +0.00 +0.00    +0.009 C  
DOCKED: ATOM     23  C14 UNL     1       3.139  -8.032  -3.512 +0.00 +0.00    +0.009 C  
DOCKED: ENDBRANCH  11  21
DOCKED: ENDBRANCH   8  11
DOCKED: ENDBRANCH   6   7
DOCKED: BRANCH   6  24
DOCKED: ATOM     24  C3  UNL     1       1.264  -1.507  -4.533 +0.00 +0.00    +0.042 C  
DOCKED: BRANCH  24  25
DOCKED: ATOM     25  C2  UNL     1       1.016  -0.008  -4.691 +0.00 +0.00    +0.071 C  
DOCKED: BRANCH  25  27
DOCKED: ATOM     26  C1  UNL     1       0.463  -0.664  -2.058 +0.00 +0.00    +0.084 C  
DOCKED: ATOM     27  S1  UNL     1       0.716   0.810  -3.084 +0.00 -0.00    -0.164 S  
DOCKED: ENDBRANCH  25  27
DOCKED: ENDBRANCH  24  25
DOCKED: ENDBRANCH   6  24
DOCKED: ENDBRANCH   2   6
DOCKED: ENDBRANCH   1   4
DOCKED: BRANCH   1  28
DOCKED: ATOM     28  C21 UNL     1       4.369  -0.106  -0.705 +0.00 +0.00    +0.143 C  
DOCKED: BRANCH  28  29
DOCKED: ATOM     29  O5  UNL     1       3.464  -1.193  -0.450 +0.00 -0.00    -0.389 OA 
DOCKED: ATOM     30  H40 UNL     1       4.005  -1.984  -0.237 +0.00 +0.00    +0.210 HD 
DOCKED: ENDBRANCH  28  29
DOCKED: BRANCH  28  31
DOCKED: ATOM     31  C22 UNL     1       5.639  -0.335   0.112 +0.00 +0.00    +0.129 C  
DOCKED: BRANCH  31  32
DOCKED: ATOM     32  C23 UNL     1       6.628  -1.280  -0.529 +0.00 +0.00    +0.216 C  
DOCKED: ATOM     33  O6  UNL     1       7.766  -0.968  -0.861 +0.00 -0.00    -0.276 OA 
DOCKED: ATOM     34  N4  UNL     1       6.124  -2.551  -0.694 +0.00 -0.00    -0.304 N  
DOCKED: ATOM     35  H43 UNL     1       5.118  -2.669  -0.635 +0.00 +0.00    +0.149 HD 
DOCKED: BRANCH  34  36
DOCKED: ATOM     36  C24 UNL     1       6.850  -3.629  -1.376 +0.00 +0.00    +0.161 C  
DOCKED: BRANCH  36  37
DOCKED: ATOM     37  C25 UNL     1       6.670  -3.454  -2.902 +0.00 +0.00    +0.234 C  
DOCKED: ATOM     38  O7  UNL     1       5.956  -4.213  -3.556 +0.00 -0.00    -0.274 OA 
DOCKED: ATOM     39  N5  UNL     1       7.310  -2.359  -3.437 +0.00 -0.00    -0.311 N  
DOCKED: ATOM     40  H45 UNL     1       7.665  -1.667  -2.774 +0.00 +0.00    +0.149 HD 
DOCKED: BRANCH  39  41
DOCKED: ATOM     41  C26 UNL     1       7.171  -1.964  -4.831 +0.00 +0.00    +0.073 C  
DOCKED: ATOM     42  C27 UNL     1       7.993  -2.875  -5.754 +0.00 +0.00    +0.022 C  
DOCKED: ATOM     43  C28 UNL     1       9.498  -2.645  -5.605 +0.00 +0.00    +0.002 C  
DOCKED: ATOM     44  C29 UNL     1       9.865  -1.179  -5.810 +0.00 +0.00    +0.000 C  
DOCKED: ATOM     45  C30 UNL     1       9.071  -0.261  -4.888 +0.00 +0.00    +0.002 C  
DOCKED: ATOM     46  C31 UNL     1       7.566  -0.491  -5.017 +0.00 +0.00    +0.022 C  
DOCKED: ENDBRANCH  39  41
DOCKED: ENDBRANCH  36  37
DOCKED: BRANCH  36  47
DOCKED: ATOM     47  C32 UNL     1       8.322  -3.815  -0.939 +0.00 +0.00    +0.012 C  
DOCKED: ATOM     48  C33 UNL     1       9.095  -4.633  -1.980 +0.00 +0.00    +0.009 C  
DOCKED: ATOM     49  C34 UNL     1       8.423  -4.513   0.421 +0.00 +0.00    +0.009 C  
DOCKED: ENDBRANCH  36  47
DOCKED: ENDBRANCH  34  36
DOCKED: ENDBRANCH  31  32
DOCKED: ENDBRANCH  28  31
DOCKED: ENDBRANCH   1  28
DOCKED: BRANCH   1  50
DOCKED: ATOM     50  C17 UNL     1       4.375   1.641  -2.596 +0.00 +0.00    +0.028 C  
DOCKED: BRANCH  50  51
DOCKED: ATOM     51  C18 UNL     1       5.631   2.388  -3.105 +0.00 -0.00    -0.015 C  
DOCKED: ATOM     52  C19 UNL     1       6.933   1.790  -2.569 +0.00 +0.00    +0.007 C  
DOCKED: ATOM     53  C20 UNL     1       5.690   2.529  -4.625 +0.00 +0.00    +0.007 C  
DOCKED: ENDBRANCH  50  51
DOCKED: ENDBRANCH   1  50
DOCKED: TORSDOF 21
DOCKED: TER
DOCKED: ENDMDL
________________________________________________________________________________


    FINAL DOCKED STATE:
    ________________________


Run:   17 / 20
Time taken for this run:   1.281s

DOCKED: MODEL        17
DOCKED: USER    Run = 17
DOCKED: USER
DOCKED: USER    Estimated Free Energy of Binding    =  +6.26 kcal/mol  [=(1)+(2)+(3)-(4)]
DOCKED: USER
DOCKED: USER    (1) Final Intermolecular Energy     =  +0.00 kcal/mol
DOCKED: USER        vdW + Hbond + desolv Energy     =  +0.00 kcal/mol
DOCKED: USER        Electrostatic Energy            =  +0.00 kcal/mol
DOCKED: USER        Moving Ligand-Fixed Receptor    =  +0.00 kcal/mol
DOCKED: USER        Moving Ligand-Moving Receptor   =  +0.00 kcal/mol
DOCKED: USER    (2) Final Total Internal Energy     = -13.68 kcal/mol
DOCKED: USER    (3) Torsional Free Energy           =  +6.26 kcal/mol
DOCKED: USER    (4) Unbound System's Energy         = -13.68 kcal/mol
DOCKED: USER
DOCKED: USER
DOCKED: REMARK  Name = ligands/ligand_49.pdb
DOCKED: REMARK  31 active torsions:
DOCKED: REMARK  status: ('A' for Active; 'I' for Inactive)
DOCKED: REMARK    1  A    between atoms: C1_1  and  S1_2
DOCKED: REMARK    2  A    between atoms: S1_2  and  C2_3
DOCKED: REMARK    3  A    between atoms: C2_3  and  C3_4
DOCKED: REMARK    4  A    between atoms: C3_4  and  C4_5
DOCKED: REMARK    5  A    between atoms: C4_5  and  N1_6
DOCKED: REMARK    6  A    between atoms: C4_5  and  C15_21
DOCKED: REMARK    7  A    between atoms: C5_7  and  C6_9
DOCKED: REMARK    8  A    between atoms: C6_9  and  N2_10
DOCKED: REMARK    9  A    between atoms: C6_9  and  C12_18
DOCKED: REMARK   10  A    between atoms: C7_11  and  O3_13
DOCKED: REMARK   11  A    between atoms: O3_13  and  C8_14
DOCKED: REMARK   12  A    between atoms: C8_14  and  C9_15
DOCKED: REMARK   13  A    between atoms: C8_14  and  C10_16
DOCKED: REMARK   14  A    between atoms: C8_14  and  C11_17
DOCKED: REMARK   15  A    between atoms: C12_18  and  C13_19
DOCKED: REMARK   16  A    between atoms: C12_18  and  C14_20
DOCKED: REMARK   17  A    between atoms: N3_23  and  C16_24
DOCKED: REMARK   18  A    between atoms: C16_24  and  C17_25
DOCKED: REMARK   19  A    between atoms: C16_24  and  C21_29
DOCKED: REMARK   20  A    between atoms: C17_25  and  C18_26
DOCKED: REMARK   21  A    between atoms: C18_26  and  C19_27
DOCKED: REMARK   22  A    between atoms: C18_26  and  C20_28
DOCKED: REMARK   23  A    between atoms: C21_29  and  O5_30
DOCKED: REMARK   24  A    between atoms: C21_29  and  C22_31
DOCKED: REMARK   25  A    between atoms: C22_31  and  C23_32
DOCKED: REMARK   26  A    between atoms: N4_34  and  C24_35
DOCKED: REMARK   27  A    between atoms: C24_35  and  C25_36
DOCKED: REMARK   28  A    between atoms: C24_35  and  C32_45
DOCKED: REMARK   29  A    between atoms: N5_38  and  C26_39
DOCKED: REMARK   30  A    between atoms: C32_45  and  C33_46
DOCKED: REMARK   31  A    between atoms: C32_45  and  C34_47
DOCKED: REMARK                            x       y       z     vdW  Elec       q    Type
DOCKED: REMARK                         _______ _______ _______ _____ _____    ______ ____
DOCKED: USER                              x       y       z     vdW  Elec       q    Type
DOCKED: USER                           _______ _______ _______ _____ _____    ______ ____
DOCKED: ROOT
DOCKED: ATOM      1  C16 UNL     1      17.657  -3.886  -0.843 +0.00 +0.00    +0.102 C  
DOCKED: ENDROOT
DOCKED: BRANCH   1   4
DOCKED: ATOM      2  C15 UNL     1      18.667  -3.340  -3.043 +0.00 +0.00    +0.234 C  
DOCKED: ATOM      3  O4  UNL     1      18.915  -4.522  -3.275 +0.00 -0.00    -0.274 OA 
DOCKED: ATOM      4  N3  UNL     1      18.120  -2.918  -1.843 +0.00 -0.00    -0.308 N  
DOCKED: ATOM      5  H28 UNL     1      17.749  -1.978  -1.795 +0.00 +0.00    +0.149 HD 
DOCKED: BRANCH   2   6
DOCKED: ATOM      6  C4  UNL     1      18.944  -2.202  -4.046 +0.00 +0.00    +0.160 C  
DOCKED: BRANCH   6   7
DOCKED: ATOM      7  N1  UNL     1      17.994  -1.111  -3.813 +0.00 -0.00    -0.302 N  
DOCKED: ATOM      8  C5  UNL     1      17.297  -0.456  -4.806 +0.00 +0.00    +0.234 C  
DOCKED: ATOM      9  O1  UNL     1      17.195  -0.869  -5.960 +0.00 -0.00    -0.274 OA 
DOCKED: ATOM     10  H9  UNL     1      18.208  -0.546  -3.000 +0.00 +0.00    +0.150 HD 
DOCKED: BRANCH   8  11
DOCKED: ATOM     11  C6  UNL     1      16.583   0.839  -4.350 +0.00 +0.00    +0.165 C  
DOCKED: BRANCH  11  12
DOCKED: ATOM     12  N2  UNL     1      15.718   0.478  -3.235 +0.00 -0.00    -0.270 N  
DOCKED: ATOM     13  C7  UNL     1      16.173   0.204  -1.988 +0.00 +0.00    +0.401 C  
DOCKED: ATOM     14  O2  UNL     1      17.353   0.157  -1.671 +0.00 -0.00    -0.226 OA 
DOCKED: ATOM     15  H11 UNL     1      14.718   0.603  -3.342 +0.00 +0.00    +0.153 HD 
DOCKED: BRANCH  13  16
DOCKED: ATOM     16  O3  UNL     1      15.112   0.010  -1.173 +0.00 -0.00    -0.445 OA 
DOCKED: BRANCH  16  17
DOCKED: ATOM     17  C8  UNL     1      14.469   1.123  -0.503 +0.00 +0.00    +0.107 C  
DOCKED: ATOM     18  C9  UNL     1      13.134   1.470  -1.172 +0.00 +0.00    +0.055 C  
DOCKED: ATOM     19  C10 UNL     1      15.404   2.336  -0.415 +0.00 +0.00    +0.055 C  
DOCKED: ATOM     20  C11 UNL     1      14.190   0.618   0.920 +0.00 +0.00    +0.055 C  
DOCKED: ENDBRANCH  16  17
DOCKED: ENDBRANCH  13  16
DOCKED: ENDBRANCH  11  12
DOCKED: BRANCH  11  21
DOCKED: ATOM     21  C12 UNL     1      17.545   1.985  -3.959 +0.00 +0.00    +0.012 C  
DOCKED: ATOM     22  C13 UNL     1      16.848   3.344  -3.882 +0.00 +0.00    +0.009 C  
DOCKED: ATOM     23  C14 UNL     1      18.769   2.078  -4.874 +0.00 +0.00    +0.009 C  
DOCKED: ENDBRANCH  11  21
DOCKED: ENDBRANCH   8  11
DOCKED: ENDBRANCH   6   7
DOCKED: BRANCH   6  24
DOCKED: ATOM     24  C3  UNL     1      20.440  -1.850  -4.053 +0.00 +0.00    +0.042 C  
DOCKED: BRANCH  24  25
DOCKED: ATOM     25  C2  UNL     1      21.037  -1.658  -2.659 +0.00 +0.00    +0.071 C  
DOCKED: BRANCH  25  27
DOCKED: ATOM     26  C1  UNL     1      20.013  -0.767  -0.246 +0.00 +0.00    +0.084 C  
DOCKED: ATOM     27  S1  UNL     1      20.460  -0.110  -1.875 +0.00 -0.00    -0.164 S  
DOCKED: ENDBRANCH  25  27
DOCKED: ENDBRANCH  24  25
DOCKED: ENDBRANCH   6  24
DOCKED: ENDBRANCH   2   6
DOCKED: ENDBRANCH   1   4
DOCKED: BRANCH   1  28
DOCKED: ATOM     28  C21 UNL     1      17.069  -3.104   0.372 +0.00 +0.00    +0.143 C  
DOCKED: BRANCH  28  29
DOCKED: ATOM     29  O5  UNL     1      16.944  -1.701   0.087 +0.00 -0.00    -0.389 OA 
DOCKED: ATOM     30  H40 UNL     1      16.480  -1.616  -0.773 +0.00 +0.00    +0.210 HD 
DOCKED: ENDBRANCH  28  29
DOCKED: BRANCH  28  31
DOCKED: ATOM     31  C22 UNL     1      15.744  -3.599   0.949 +0.00 +0.00    +0.129 C  
DOCKED: BRANCH  31  32
DOCKED: ATOM     32  C23 UNL     1      14.613  -3.654  -0.052 +0.00 +0.00    +0.216 C  
DOCKED: ATOM     33  O6  UNL     1      14.105  -4.691  -0.462 +0.00 -0.00    -0.276 OA 
DOCKED: ATOM     34  N4  UNL     1      14.192  -2.406  -0.453 +0.00 -0.00    -0.304 N  
DOCKED: ATOM     35  H43 UNL     1      14.811  -1.622  -0.274 +0.00 +0.00    +0.149 HD 
DOCKED: BRANCH  34  36
DOCKED: ATOM     36  C24 UNL     1      13.173  -2.188  -1.487 +0.00 +0.00    +0.161 C  
DOCKED: BRANCH  36  37
DOCKED: ATOM     37  C25 UNL     1      13.863  -2.211  -2.870 +0.00 +0.00    +0.234 C  
DOCKED: ATOM     38  O7  UNL     1      13.728  -1.288  -3.671 +0.00 -0.00    -0.274 OA 
DOCKED: ATOM     39  N5  UNL     1      14.676  -3.300  -3.091 +0.00 -0.00    -0.311 N  
DOCKED: ATOM     40  H45 UNL     1      14.908  -3.872  -2.276 +0.00 +0.00    +0.149 HD 
DOCKED: BRANCH  39  41
DOCKED: ATOM     41  C26 UNL     1      15.495  -3.447  -4.286 +0.00 +0.00    +0.073 C  
DOCKED: ATOM     42  C27 UNL     1      14.678  -3.180  -5.558 +0.00 +0.00    +0.022 C  
DOCKED: ATOM     43  C28 UNL     1      13.667  -4.291  -5.842 +0.00 +0.00    +0.002 C  
DOCKED: ATOM     44  C29 UNL     1      14.337  -5.660  -5.896 +0.00 +0.00    +0.000 C  
DOCKED: ATOM     45  C30 UNL     1      15.137  -5.950  -4.631 +0.00 +0.00    +0.002 C  
DOCKED: ATOM     46  C31 UNL     1      16.142  -4.839  -4.329 +0.00 +0.00    +0.022 C  
DOCKED: ENDBRANCH  39  41
DOCKED: ENDBRANCH  36  37
DOCKED: BRANCH  36  47
DOCKED: ATOM     47  C32 UNL     1      11.930  -3.103  -1.393 +0.00 +0.00    +0.012 C  
DOCKED: ATOM     48  C33 UNL     1      11.528  -3.610  -2.784 +0.00 +0.00    +0.009 C  
DOCKED: ATOM     49  C34 UNL     1      10.738  -2.374  -0.763 +0.00 +0.00    +0.009 C  
DOCKED: ENDBRANCH  36  47
DOCKED: ENDBRANCH  34  36
DOCKED: ENDBRANCH  31  32
DOCKED: ENDBRANCH  28  31
DOCKED: ENDBRANCH   1  28
DOCKED: BRANCH   1  50
DOCKED: ATOM     50  C17 UNL     1      18.800  -4.834  -0.430 +0.00 +0.00    +0.028 C  
DOCKED: BRANCH  50  51
DOCKED: ATOM     51  C18 UNL     1      18.607  -6.342  -0.715 +0.00 -0.00    -0.015 C  
DOCKED: ATOM     52  C19 UNL     1      17.276  -6.650  -1.403 +0.00 +0.00    +0.007 C  
DOCKED: ATOM     53  C20 UNL     1      19.767  -6.977  -1.482 +0.00 +0.00    +0.007 C  
DOCKED: ENDBRANCH  50  51
DOCKED: ENDBRANCH   1  50
DOCKED: TORSDOF 21
DOCKED: TER
DOCKED: ENDMDL
________________________________________________________________________________


    FINAL DOCKED STATE:
    ________________________


Run:   18 / 20
Time taken for this run:   1.281s

DOCKED: MODEL        18
DOCKED: USER    Run = 18
DOCKED: USER
DOCKED: USER    Estimated Free Energy of Binding    =  +6.26 kcal/mol  [=(1)+(2)+(3)-(4)]
DOCKED: USER
DOCKED: USER    (1) Final Intermolecular Energy     =  +0.00 kcal/mol
DOCKED: USER        vdW + Hbond + desolv Energy     =  +0.00 kcal/mol
DOCKED: USER        Electrostatic Energy            =  +0.00 kcal/mol
DOCKED: USER        Moving Ligand-Fixed Receptor    =  +0.00 kcal/mol
DOCKED: USER        Moving Ligand-Moving Receptor   =  +0.00 kcal/mol
DOCKED: USER    (2) Final Total Internal Energy     = -13.62 kcal/mol
DOCKED: USER    (3) Torsional Free Energy           =  +6.26 kcal/mol
DOCKED: USER    (4) Unbound System's Energy         = -13.62 kcal/mol
DOCKED: USER
DOCKED: USER
DOCKED: REMARK  Name = ligands/ligand_49.pdb
DOCKED: REMARK  31 active torsions:
DOCKED: REMARK  status: ('A' for Active; 'I' for Inactive)
DOCKED: REMARK    1  A    between atoms: C1_1  and  S1_2
DOCKED: REMARK    2  A    between atoms: S1_2  and  C2_3
DOCKED: REMARK    3  A    between atoms: C2_3  and  C3_4
DOCKED: REMARK    4  A    between atoms: C3_4  and  C4_5
DOCKED: REMARK    5  A    between atoms: C4_5  and  N1_6
DOCKED: REMARK    6  A    between atoms: C4_5  and  C15_21
DOCKED: REMARK    7  A    between atoms: C5_7  and  C6_9
DOCKED: REMARK    8  A    between atoms: C6_9  and  N2_10
DOCKED: REMARK    9  A    between atoms: C6_9  and  C12_18
DOCKED: REMARK   10  A    between atoms: C7_11  and  O3_13
DOCKED: REMARK   11  A    between atoms: O3_13  and  C8_14
DOCKED: REMARK   12  A    between atoms: C8_14  and  C9_15
DOCKED: REMARK   13  A    between atoms: C8_14  and  C10_16
DOCKED: REMARK   14  A    between atoms: C8_14  and  C11_17
DOCKED: REMARK   15  A    between atoms: C12_18  and  C13_19
DOCKED: REMARK   16  A    between atoms: C12_18  and  C14_20
DOCKED: REMARK   17  A    between atoms: N3_23  and  C16_24
DOCKED: REMARK   18  A    between atoms: C16_24  and  C17_25
DOCKED: REMARK   19  A    between atoms: C16_24  and  C21_29
DOCKED: REMARK   20  A    between atoms: C17_25  and  C18_26
DOCKED: REMARK   21  A    between atoms: C18_26  and  C19_27
DOCKED: REMARK   22  A    between atoms: C18_26  and  C20_28
DOCKED: REMARK   23  A    between atoms: C21_29  and  O5_30
DOCKED: REMARK   24  A    between atoms: C21_29  and  C22_31
DOCKED: REMARK   25  A    between atoms: C22_31  and  C23_32
DOCKED: REMARK   26  A    between atoms: N4_34  and  C24_35
DOCKED: REMARK   27  A    between atoms: C24_35  and  C25_36
DOCKED: REMARK   28  A    between atoms: C24_35  and  C32_45
DOCKED: REMARK   29  A    between atoms: N5_38  and  C26_39
DOCKED: REMARK   30  A    between atoms: C32_45  and  C33_46
DOCKED: REMARK   31  A    between atoms: C32_45  and  C34_47
DOCKED: REMARK                            x       y       z     vdW  Elec       q    Type
DOCKED: REMARK                         _______ _______ _______ _____ _____    ______ ____
DOCKED: USER                              x       y       z     vdW  Elec       q    Type
DOCKED: USER                           _______ _______ _______ _____ _____    ______ ____
DOCKED: ROOT
DOCKED: ATOM      1  C16 UNL     1      10.702  -9.031  -3.660 +0.00 +0.00    +0.102 C  
DOCKED: ENDROOT
DOCKED: BRANCH   1   4
DOCKED: ATOM      2  C15 UNL     1       9.760  -7.566  -1.894 +0.00 +0.00    +0.234 C  
DOCKED: ATOM      3  O4  UNL     1      10.529  -8.015  -1.046 +0.00 -0.00    -0.274 OA 
DOCKED: ATOM      4  N3  UNL     1       9.716  -8.054  -3.188 +0.00 -0.00    -0.308 N  
DOCKED: ATOM      5  H28 UNL     1       9.221  -7.511  -3.885 +0.00 +0.00    +0.149 HD 
DOCKED: BRANCH   2   6
DOCKED: ATOM      6  C4  UNL     1       8.759  -6.426  -1.615 +0.00 +0.00    +0.160 C  
DOCKED: BRANCH   6   7
DOCKED: ATOM      7  N1  UNL     1       9.271  -5.181  -2.192 +0.00 -0.00    -0.302 N  
DOCKED: ATOM      8  C5  UNL     1       8.531  -4.321  -2.977 +0.00 +0.00    +0.234 C  
DOCKED: ATOM      9  O1  UNL     1       7.305  -4.362  -3.073 +0.00 -0.00    -0.274 OA 
DOCKED: ATOM     10  H9  UNL     1      10.261  -5.201  -2.401 +0.00 +0.00    +0.150 HD 
DOCKED: BRANCH   8  11
DOCKED: ATOM     11  C6  UNL     1       9.358  -3.235  -3.704 +0.00 +0.00    +0.165 C  
DOCKED: BRANCH  11  12
DOCKED: ATOM     12  N2  UNL     1       9.661  -3.749  -5.034 +0.00 -0.00    -0.270 N  
DOCKED: ATOM     13  C7  UNL     1      10.054  -5.024  -5.275 +0.00 +0.00    +0.401 C  
DOCKED: ATOM     14  O2  UNL     1      10.268  -5.863  -4.412 +0.00 -0.00    -0.226 OA 
DOCKED: ATOM     15  H11 UNL     1       9.403  -3.188  -5.837 +0.00 +0.00    +0.153 HD 
DOCKED: BRANCH  13  16
DOCKED: ATOM     16  O3  UNL     1      10.150  -5.201  -6.611 +0.00 -0.00    -0.445 OA 
DOCKED: BRANCH  16  17
DOCKED: ATOM     17  C8  UNL     1       8.978  -5.488  -7.415 +0.00 +0.00    +0.107 C  
DOCKED: ATOM     18  C9  UNL     1       7.774  -5.825  -6.529 +0.00 +0.00    +0.055 C  
DOCKED: ATOM     19  C10 UNL     1       9.265  -6.588  -8.445 +0.00 +0.00    +0.055 C  
DOCKED: ATOM     20  C11 UNL     1       8.686  -4.181  -8.166 +0.00 +0.00    +0.055 C  
DOCKED: ENDBRANCH  16  17
DOCKED: ENDBRANCH  13  16
DOCKED: ENDBRANCH  11  12
DOCKED: BRANCH  11  21
DOCKED: ATOM     21  C12 UNL     1       8.660  -1.858  -3.786 +0.00 +0.00    +0.012 C  
DOCKED: ATOM     22  C13 UNL     1       8.137  -1.377  -2.431 +0.00 +0.00    +0.009 C  
DOCKED: ATOM     23  C14 UNL     1       7.535  -1.818  -4.824 +0.00 +0.00    +0.009 C  
DOCKED: ENDBRANCH  11  21
DOCKED: ENDBRANCH   8  11
DOCKED: ENDBRANCH   6   7
DOCKED: BRANCH   6  24
DOCKED: ATOM     24  C3  UNL     1       7.337  -6.858  -2.008 +0.00 +0.00    +0.042 C  
DOCKED: BRANCH  24  25
DOCKED: ATOM     25  C2  UNL     1       6.988  -8.287  -1.593 +0.00 +0.00    +0.071 C  
DOCKED: BRANCH  25  27
DOCKED: ATOM     26  C1  UNL     1       6.697  -8.147  -4.344 +0.00 +0.00    +0.084 C  
DOCKED: ATOM     27  S1  UNL     1       6.825  -9.397  -3.037 +0.00 -0.00    -0.164 S  
DOCKED: ENDBRANCH  25  27
DOCKED: ENDBRANCH  24  25
DOCKED: ENDBRANCH   6  24
DOCKED: ENDBRANCH   2   6
DOCKED: ENDBRANCH   1   4
DOCKED: BRANCH   1  28
DOCKED: ATOM     28  C21 UNL     1      10.671  -9.058  -5.220 +0.00 +0.00    +0.143 C  
DOCKED: BRANCH  28  29
DOCKED: ATOM     29  O5  UNL     1       9.835  -8.016  -5.749 +0.00 -0.00    -0.389 OA 
DOCKED: ATOM     30  H40 UNL     1      10.422  -7.282  -6.032 +0.00 +0.00    +0.210 HD 
DOCKED: ENDBRANCH  28  29
DOCKED: BRANCH  28  31
DOCKED: ATOM     31  C22 UNL     1      12.012  -9.016  -5.949 +0.00 +0.00    +0.129 C  
DOCKED: BRANCH  31  32
DOCKED: ATOM     32  C23 UNL     1      12.991  -8.007  -5.393 +0.00 +0.00    +0.216 C  
DOCKED: ATOM     33  O6  UNL     1      14.082  -8.295  -4.915 +0.00 -0.00    -0.276 OA 
DOCKED: ATOM     34  N4  UNL     1      12.535  -6.712  -5.490 +0.00 -0.00    -0.304 N  
DOCKED: ATOM     35  H43 UNL     1      11.544  -6.573  -5.656 +0.00 +0.00    +0.149 HD 
DOCKED: BRANCH  34  36
DOCKED: ATOM     36  C24 UNL     1      13.254  -5.556  -4.939 +0.00 +0.00    +0.161 C  
DOCKED: BRANCH  36  37
DOCKED: ATOM     37  C25 UNL     1      12.936  -5.453  -3.430 +0.00 +0.00    +0.234 C  
DOCKED: ATOM     38  O7  UNL     1      12.234  -4.548  -2.982 +0.00 -0.00    -0.274 OA 
DOCKED: ATOM     39  N5  UNL     1      13.440  -6.478  -2.662 +0.00 -0.00    -0.311 N  
DOCKED: ATOM     40  H45 UNL     1      13.792  -7.296  -3.164 +0.00 +0.00    +0.149 HD 
DOCKED: BRANCH  39  41
DOCKED: ATOM     41  C26 UNL     1      13.156  -6.617  -1.241 +0.00 +0.00    +0.073 C  
DOCKED: ATOM     42  C27 UNL     1      13.883  -5.543  -0.420 +0.00 +0.00    +0.022 C  
DOCKED: ATOM     43  C28 UNL     1      15.394  -5.775  -0.369 +0.00 +0.00    +0.002 C  
DOCKED: ATOM     44  C29 UNL     1      15.730  -7.175   0.135 +0.00 +0.00    +0.000 C  
DOCKED: ATOM     45  C30 UNL     1      15.031  -8.255  -0.683 +0.00 +0.00    +0.002 C  
DOCKED: ATOM     46  C31 UNL     1      13.522  -8.026  -0.752 +0.00 +0.00    +0.022 C  
DOCKED: ENDBRANCH  39  41
DOCKED: ENDBRANCH  36  37
DOCKED: BRANCH  36  47
DOCKED: ATOM     47  C32 UNL     1      14.766  -5.502  -5.263 +0.00 +0.00    +0.012 C  
DOCKED: ATOM     48  C33 UNL     1      15.502  -4.610  -4.256 +0.00 +0.00    +0.009 C  
DOCKED: ATOM     49  C34 UNL     1      15.021  -4.975  -6.679 +0.00 +0.00    +0.009 C  
DOCKED: ENDBRANCH  36  47
DOCKED: ENDBRANCH  34  36
DOCKED: ENDBRANCH  31  32
DOCKED: ENDBRANCH  28  31
DOCKED: ENDBRANCH   1  28
DOCKED: BRANCH   1  50
DOCKED: ATOM     50  C17 UNL     1      10.433 -10.419  -3.047 +0.00 +0.00    +0.028 C  
DOCKED: BRANCH  50  51
DOCKED: ATOM     51  C18 UNL     1      11.608 -11.108  -2.312 +0.00 -0.00    -0.015 C  
DOCKED: ATOM     52  C19 UNL     1      12.976 -10.659  -2.830 +0.00 +0.00    +0.007 C  
DOCKED: ATOM     53  C20 UNL     1      11.542 -10.981  -0.791 +0.00 +0.00    +0.007 C  
DOCKED: ENDBRANCH  50  51
DOCKED: ENDBRANCH   1  50
DOCKED: TORSDOF 21
DOCKED: TER
DOCKED: ENDMDL
________________________________________________________________________________


    FINAL DOCKED STATE:
    ________________________


Run:   19 / 20
Time taken for this run:   1.281s

DOCKED: MODEL        19
DOCKED: USER    Run = 19
DOCKED: USER
DOCKED: USER    Estimated Free Energy of Binding    =  +6.26 kcal/mol  [=(1)+(2)+(3)-(4)]
DOCKED: USER
DOCKED: USER    (1) Final Intermolecular Energy     =  +0.00 kcal/mol
DOCKED: USER        vdW + Hbond + desolv Energy     =  +0.00 kcal/mol
DOCKED: USER        Electrostatic Energy            =  +0.00 kcal/mol
DOCKED: USER        Moving Ligand-Fixed Receptor    =  +0.00 kcal/mol
DOCKED: USER        Moving Ligand-Moving Receptor   =  +0.00 kcal/mol
DOCKED: USER    (2) Final Total Internal Energy     = -13.53 kcal/mol
DOCKED: USER    (3) Torsional Free Energy           =  +6.26 kcal/mol
DOCKED: USER    (4) Unbound System's Energy         = -13.53 kcal/mol
DOCKED: USER
DOCKED: USER
DOCKED: REMARK  Name = ligands/ligand_49.pdb
DOCKED: REMARK  31 active torsions:
DOCKED: REMARK  status: ('A' for Active; 'I' for Inactive)
DOCKED: REMARK    1  A    between atoms: C1_1  and  S1_2
DOCKED: REMARK    2  A    between atoms: S1_2  and  C2_3
DOCKED: REMARK    3  A    between atoms: C2_3  and  C3_4
DOCKED: REMARK    4  A    between atoms: C3_4  and  C4_5
DOCKED: REMARK    5  A    between atoms: C4_5  and  N1_6
DOCKED: REMARK    6  A    between atoms: C4_5  and  C15_21
DOCKED: REMARK    7  A    between atoms: C5_7  and  C6_9
DOCKED: REMARK    8  A    between atoms: C6_9  and  N2_10
DOCKED: REMARK    9  A    between atoms: C6_9  and  C12_18
DOCKED: REMARK   10  A    between atoms: C7_11  and  O3_13
DOCKED: REMARK   11  A    between atoms: O3_13  and  C8_14
DOCKED: REMARK   12  A    between atoms: C8_14  and  C9_15
DOCKED: REMARK   13  A    between atoms: C8_14  and  C10_16
DOCKED: REMARK   14  A    between atoms: C8_14  and  C11_17
DOCKED: REMARK   15  A    between atoms: C12_18  and  C13_19
DOCKED: REMARK   16  A    between atoms: C12_18  and  C14_20
DOCKED: REMARK   17  A    between atoms: N3_23  and  C16_24
DOCKED: REMARK   18  A    between atoms: C16_24  and  C17_25
DOCKED: REMARK   19  A    between atoms: C16_24  and  C21_29
DOCKED: REMARK   20  A    between atoms: C17_25  and  C18_26
DOCKED: REMARK   21  A    between atoms: C18_26  and  C19_27
DOCKED: REMARK   22  A    between atoms: C18_26  and  C20_28
DOCKED: REMARK   23  A    between atoms: C21_29  and  O5_30
DOCKED: REMARK   24  A    between atoms: C21_29  and  C22_31
DOCKED: REMARK   25  A    between atoms: C22_31  and  C23_32
DOCKED: REMARK   26  A    between atoms: N4_34  and  C24_35
DOCKED: REMARK   27  A    between atoms: C24_35  and  C25_36
DOCKED: REMARK   28  A    between atoms: C24_35  and  C32_45
DOCKED: REMARK   29  A    between atoms: N5_38  and  C26_39
DOCKED: REMARK   30  A    between atoms: C32_45  and  C33_46
DOCKED: REMARK   31  A    between atoms: C32_45  and  C34_47
DOCKED: REMARK                            x       y       z     vdW  Elec       q    Type
DOCKED: REMARK                         _______ _______ _______ _____ _____    ______ ____
DOCKED: USER                              x       y       z     vdW  Elec       q    Type
DOCKED: USER                           _______ _______ _______ _____ _____    ______ ____
DOCKED: ROOT
DOCKED: ATOM      1  C16 UNL     1      12.654   0.078   0.899 +0.00 +0.00    +0.102 C  
DOCKED: ENDROOT
DOCKED: BRANCH   1   4
DOCKED: ATOM      2  C15 UNL     1      10.878  -1.582   0.401 +0.00 +0.00    +0.234 C  
DOCKED: ATOM      3  O4  UNL     1      11.683  -2.360  -0.107 +0.00 -0.00    -0.274 OA 
DOCKED: ATOM      4  N3  UNL     1      11.245  -0.327   0.856 +0.00 -0.00    -0.308 N  
DOCKED: ATOM      5  H28 UNL     1      10.593   0.174   1.447 +0.00 +0.00    +0.149 HD 
DOCKED: BRANCH   2   6
DOCKED: ATOM      6  C4  UNL     1       9.381  -1.906   0.580 +0.00 +0.00    +0.160 C  
DOCKED: BRANCH   6   7
DOCKED: ATOM      7  N1  UNL     1       9.010  -1.716   1.985 +0.00 -0.00    -0.302 N  
DOCKED: ATOM      8  C5  UNL     1       7.752  -1.353   2.419 +0.00 +0.00    +0.234 C  
DOCKED: ATOM      9  O1  UNL     1       6.745  -1.395   1.714 +0.00 -0.00    -0.274 OA 
DOCKED: ATOM     10  H9  UNL     1       9.771  -1.396   2.571 +0.00 +0.00    +0.150 HD 
DOCKED: BRANCH   8  11
DOCKED: ATOM     11  C6  UNL     1       7.677  -0.933   3.906 +0.00 +0.00    +0.165 C  
DOCKED: BRANCH  11  12
DOCKED: ATOM     12  N2  UNL     1       8.116   0.455   3.979 +0.00 -0.00    -0.270 N  
DOCKED: ATOM     13  C7  UNL     1       9.336   0.879   3.570 +0.00 +0.00    +0.401 C  
DOCKED: ATOM     14  O2  UNL     1      10.229   0.150   3.164 +0.00 -0.00    -0.226 OA 
DOCKED: ATOM     15  H11 UNL     1       7.425   1.168   4.181 +0.00 +0.00    +0.153 HD 
DOCKED: BRANCH  13  16
DOCKED: ATOM     16  O3  UNL     1       9.383   2.226   3.676 +0.00 -0.00    -0.445 OA 
DOCKED: BRANCH  16  17
DOCKED: ATOM     17  C8  UNL     1       9.585   2.870   4.960 +0.00 +0.00    +0.107 C  
DOCKED: ATOM     18  C9  UNL     1      10.921   3.620   4.993 +0.00 +0.00    +0.055 C  
DOCKED: ATOM     19  C10 UNL     1       9.455   1.866   6.112 +0.00 +0.00    +0.055 C  
DOCKED: ATOM     20  C11 UNL     1       8.444   3.892   5.072 +0.00 +0.00    +0.055 C  
DOCKED: ENDBRANCH  16  17
DOCKED: ENDBRANCH  13  16
DOCKED: ENDBRANCH  11  12
DOCKED: BRANCH  11  21
DOCKED: ATOM     21  C12 UNL     1       6.279  -1.109   4.542 +0.00 +0.00    +0.012 C  
DOCKED: ATOM     22  C13 UNL     1       5.284  -0.037   4.094 +0.00 +0.00    +0.009 C  
DOCKED: ATOM     23  C14 UNL     1       6.320  -1.175   6.071 +0.00 +0.00    +0.009 C  
DOCKED: ENDBRANCH  11  21
DOCKED: ENDBRANCH   8  11
DOCKED: ENDBRANCH   6   7
DOCKED: BRANCH   6  24
DOCKED: ATOM     24  C3  UNL     1       8.546  -1.169  -0.480 +0.00 +0.00    +0.042 C  
DOCKED: BRANCH  24  25
DOCKED: ATOM     25  C2  UNL     1       8.852   0.324  -0.580 +0.00 +0.00    +0.071 C  
DOCKED: BRANCH  25  27
DOCKED: ATOM     26  C1  UNL     1       8.668   2.763   0.719 +0.00 +0.00    +0.084 C  
DOCKED: ATOM     27  S1  UNL     1       7.623   1.337   0.319 +0.00 -0.00    -0.164 S  
DOCKED: ENDBRANCH  25  27
DOCKED: ENDBRANCH  24  25
DOCKED: ENDBRANCH   6  24
DOCKED: ENDBRANCH   2   6
DOCKED: ENDBRANCH   1   4
DOCKED: BRANCH   1  28
DOCKED: ATOM     28  C21 UNL     1      12.740   1.520   1.489 +0.00 +0.00    +0.143 C  
DOCKED: BRANCH  28  29
DOCKED: ATOM     29  O5  UNL     1      11.445   2.013   1.870 +0.00 -0.00    -0.389 OA 
DOCKED: ATOM     30  H40 UNL     1      11.139   1.480   2.634 +0.00 +0.00    +0.210 HD 
DOCKED: ENDBRANCH  28  29
DOCKED: BRANCH  28  31
DOCKED: ATOM     31  C22 UNL     1      13.702   1.744   2.654 +0.00 +0.00    +0.129 C  
DOCKED: BRANCH  31  32
DOCKED: ATOM     32  C23 UNL     1      13.555   0.750   3.782 +0.00 +0.00    +0.216 C  
DOCKED: ATOM     33  O6  UNL     1      14.414  -0.063   4.103 +0.00 -0.00    -0.276 OA 
DOCKED: ATOM     34  N4  UNL     1      12.347   0.856   4.434 +0.00 -0.00    -0.304 N  
DOCKED: ATOM     35  H43 UNL     1      11.602   1.361   3.966 +0.00 +0.00    +0.149 HD 
DOCKED: BRANCH  34  36
DOCKED: ATOM     36  C24 UNL     1      11.920  -0.055   5.504 +0.00 +0.00    +0.161 C  
DOCKED: BRANCH  36  37
DOCKED: ATOM     37  C25 UNL     1      11.820  -1.484   4.922 +0.00 +0.00    +0.234 C  
DOCKED: ATOM     38  O7  UNL     1      10.784  -1.895   4.403 +0.00 -0.00    -0.274 OA 
DOCKED: ATOM     39  N5  UNL     1      12.988  -2.211   4.975 +0.00 -0.00    -0.311 N  
DOCKED: ATOM     40  H45 UNL     1      13.841  -1.693   5.197 +0.00 +0.00    +0.149 HD 
DOCKED: BRANCH  39  41
DOCKED: ATOM     41  C26 UNL     1      13.125  -3.533   4.380 +0.00 +0.00    +0.073 C  
DOCKED: ATOM     42  C27 UNL     1      14.544  -4.087   4.574 +0.00 +0.00    +0.022 C  
DOCKED: ATOM     43  C28 UNL     1      15.577  -3.351   3.721 +0.00 +0.00    +0.002 C  
DOCKED: ATOM     44  C29 UNL     1      15.186  -3.344   2.247 +0.00 +0.00    +0.000 C  
DOCKED: ATOM     45  C30 UNL     1      13.787  -2.778   2.034 +0.00 +0.00    +0.002 C  
DOCKED: ATOM     46  C31 UNL     1      12.747  -3.497   2.892 +0.00 +0.00    +0.022 C  
DOCKED: ENDBRANCH  39  41
DOCKED: ENDBRANCH  36  37
DOCKED: BRANCH  36  47
DOCKED: ATOM     47  C32 UNL     1      12.741   0.031   6.812 +0.00 +0.00    +0.012 C  
DOCKED: ATOM     48  C33 UNL     1      12.054  -0.759   7.932 +0.00 +0.00    +0.009 C  
DOCKED: ATOM     49  C34 UNL     1      12.930   1.482   7.266 +0.00 +0.00    +0.009 C  
DOCKED: ENDBRANCH  36  47
DOCKED: ENDBRANCH  34  36
DOCKED: ENDBRANCH  31  32
DOCKED: ENDBRANCH  28  31
DOCKED: ENDBRANCH   1  28
DOCKED: BRANCH   1  50
DOCKED: ATOM     50  C17 UNL     1      13.293  -0.019  -0.500 +0.00 +0.00    +0.028 C  
DOCKED: BRANCH  50  51
DOCKED: ATOM     51  C18 UNL     1      14.766  -0.491  -0.574 +0.00 -0.00    -0.015 C  
DOCKED: ATOM     52  C19 UNL     1      15.532  -0.245   0.727 +0.00 +0.00    +0.007 C  
DOCKED: ATOM     53  C20 UNL     1      14.925  -1.941  -1.025 +0.00 +0.00    +0.007 C  
DOCKED: ENDBRANCH  50  51
DOCKED: ENDBRANCH   1  50
DOCKED: TORSDOF 21
DOCKED: TER
DOCKED: ENDMDL
________________________________________________________________________________


    FINAL DOCKED STATE:
    ________________________


Run:   20 / 20
Time taken for this run:   1.281s

DOCKED: MODEL        20
DOCKED: USER    Run = 20
DOCKED: USER
DOCKED: USER    Estimated Free Energy of Binding    =  +6.26 kcal/mol  [=(1)+(2)+(3)-(4)]
DOCKED: USER
DOCKED: USER    (1) Final Intermolecular Energy     =  +0.00 kcal/mol
DOCKED: USER        vdW + Hbond + desolv Energy     =  +0.00 kcal/mol
DOCKED: USER        Electrostatic Energy            =  +0.00 kcal/mol
DOCKED: USER        Moving Ligand-Fixed Receptor    =  +0.00 kcal/mol
DOCKED: USER        Moving Ligand-Moving Receptor   =  +0.00 kcal/mol
DOCKED: USER    (2) Final Total Internal Energy     = -13.48 kcal/mol
DOCKED: USER    (3) Torsional Free Energy           =  +6.26 kcal/mol
DOCKED: USER    (4) Unbound System's Energy         = -13.48 kcal/mol
DOCKED: USER
DOCKED: USER
DOCKED: REMARK  Name = ligands/ligand_49.pdb
DOCKED: REMARK  31 active torsions:
DOCKED: REMARK  status: ('A' for Active; 'I' for Inactive)
DOCKED: REMARK    1  A    between atoms: C1_1  and  S1_2
DOCKED: REMARK    2  A    between atoms: S1_2  and  C2_3
DOCKED: REMARK    3  A    between atoms: C2_3  and  C3_4
DOCKED: REMARK    4  A    between atoms: C3_4  and  C4_5
DOCKED: REMARK    5  A    between atoms: C4_5  and  N1_6
DOCKED: REMARK    6  A    between atoms: C4_5  and  C15_21
DOCKED: REMARK    7  A    between atoms: C5_7  and  C6_9
DOCKED: REMARK    8  A    between atoms: C6_9  and  N2_10
DOCKED: REMARK    9  A    between atoms: C6_9  and  C12_18
DOCKED: REMARK   10  A    between atoms: C7_11  and  O3_13
DOCKED: REMARK   11  A    between atoms: O3_13  and  C8_14
DOCKED: REMARK   12  A    between atoms: C8_14  and  C9_15
DOCKED: REMARK   13  A    between atoms: C8_14  and  C10_16
DOCKED: REMARK   14  A    between atoms: C8_14  and  C11_17
DOCKED: REMARK   15  A    between atoms: C12_18  and  C13_19
DOCKED: REMARK   16  A    between atoms: C12_18  and  C14_20
DOCKED: REMARK   17  A    between atoms: N3_23  and  C16_24
DOCKED: REMARK   18  A    between atoms: C16_24  and  C17_25
DOCKED: REMARK   19  A    between atoms: C16_24  and  C21_29
DOCKED: REMARK   20  A    between atoms: C17_25  and  C18_26
DOCKED: REMARK   21  A    between atoms: C18_26  and  C19_27
DOCKED: REMARK   22  A    between atoms: C18_26  and  C20_28
DOCKED: REMARK   23  A    between atoms: C21_29  and  O5_30
DOCKED: REMARK   24  A    between atoms: C21_29  and  C22_31
DOCKED: REMARK   25  A    between atoms: C22_31  and  C23_32
DOCKED: REMARK   26  A    between atoms: N4_34  and  C24_35
DOCKED: REMARK   27  A    between atoms: C24_35  and  C25_36
DOCKED: REMARK   28  A    between atoms: C24_35  and  C32_45
DOCKED: REMARK   29  A    between atoms: N5_38  and  C26_39
DOCKED: REMARK   30  A    between atoms: C32_45  and  C33_46
DOCKED: REMARK   31  A    between atoms: C32_45  and  C34_47
DOCKED: REMARK                            x       y       z     vdW  Elec       q    Type
DOCKED: REMARK                         _______ _______ _______ _____ _____    ______ ____
DOCKED: USER                              x       y       z     vdW  Elec       q    Type
DOCKED: USER                           _______ _______ _______ _____ _____    ______ ____
DOCKED: ROOT
DOCKED: ATOM      1  C16 UNL     1       9.971   0.711   4.980 +0.00 +0.00    +0.102 C  
DOCKED: ENDROOT
DOCKED: BRANCH   1   4
DOCKED: ATOM      2  C15 UNL     1       8.693  -1.161   3.969 +0.00 +0.00    +0.234 C  
DOCKED: ATOM      3  O4  UNL     1       9.520  -1.989   4.345 +0.00 -0.00    -0.274 OA 
DOCKED: ATOM      4  N3  UNL     1       8.864   0.199   4.166 +0.00 -0.00    -0.308 N  
DOCKED: ATOM      5  H28 UNL     1       8.064   0.804   4.027 +0.00 +0.00    +0.149 HD 
DOCKED: BRANCH   2   6
DOCKED: ATOM      6  C4  UNL     1       7.390  -1.533   3.234 +0.00 +0.00    +0.160 C  
DOCKED: BRANCH   6   7
DOCKED: ATOM      7  N1  UNL     1       6.367  -0.526   3.523 +0.00 -0.00    -0.302 N  
DOCKED: ATOM      8  C5  UNL     1       5.240  -0.314   2.757 +0.00 +0.00    +0.234 C  
DOCKED: ATOM      9  O1  UNL     1       4.835  -1.098   1.900 +0.00 -0.00    -0.274 OA 
DOCKED: ATOM     10  H9  UNL     1       6.721   0.296   3.996 +0.00 +0.00    +0.150 HD 
DOCKED: BRANCH   8  11
DOCKED: ATOM     11  C6  UNL     1       4.465   0.983   3.091 +0.00 +0.00    +0.165 C  
DOCKED: BRANCH  11  12
DOCKED: ATOM     12  N2  UNL     1       5.064   2.052   2.303 +0.00 -0.00    -0.270 N  
DOCKED: ATOM     13  C7  UNL     1       6.325   2.510   2.495 +0.00 +0.00    +0.401 C  
DOCKED: ATOM     14  O2  UNL     1       7.076   2.137   3.384 +0.00 -0.00    -0.226 OA 
DOCKED: ATOM     15  H11 UNL     1       4.588   2.355   1.462 +0.00 +0.00    +0.153 HD 
DOCKED: BRANCH  13  16
DOCKED: ATOM     16  O3  UNL     1       6.603   3.424   1.538 +0.00 -0.00    -0.445 OA 
DOCKED: BRANCH  16  17
DOCKED: ATOM     17  C8  UNL     1       6.745   4.830   1.863 +0.00 +0.00    +0.107 C  
DOCKED: ATOM     18  C9  UNL     1       7.595   5.018   3.124 +0.00 +0.00    +0.055 C  
DOCKED: ATOM     19  C10 UNL     1       5.377   5.515   1.980 +0.00 +0.00    +0.055 C  
DOCKED: ATOM     20  C11 UNL     1       7.494   5.437   0.668 +0.00 +0.00    +0.055 C  
DOCKED: ENDBRANCH  16  17
DOCKED: ENDBRANCH  13  16
DOCKED: ENDBRANCH  11  12
DOCKED: BRANCH  11  21
DOCKED: ATOM     21  C12 UNL     1       2.943   0.892   2.838 +0.00 +0.00    +0.012 C  
DOCKED: ATOM     22  C13 UNL     1       2.355   2.189   2.280 +0.00 +0.00    +0.009 C  
DOCKED: ATOM     23  C14 UNL     1       2.155   0.451   4.075 +0.00 +0.00    +0.009 C  
DOCKED: ENDBRANCH  11  21
DOCKED: ENDBRANCH   8  11
DOCKED: ENDBRANCH   6   7
DOCKED: BRANCH   6  24
DOCKED: ATOM     24  C3  UNL     1       7.682  -1.844   1.757 +0.00 +0.00    +0.042 C  
DOCKED: BRANCH  24  25
DOCKED: ATOM     25  C2  UNL     1       8.470  -0.750   1.039 +0.00 +0.00    +0.071 C  
DOCKED: BRANCH  25  27
DOCKED: ATOM     26  C1  UNL     1       8.519   1.724  -0.206 +0.00 +0.00    +0.084 C  
DOCKED: ATOM     27  S1  UNL     1       7.386   0.330   0.038 +0.00 -0.00    -0.164 S  
DOCKED: ENDBRANCH  25  27
DOCKED: ENDBRANCH  24  25
DOCKED: ENDBRANCH   6  24
DOCKED: ENDBRANCH   2   6
DOCKED: ENDBRANCH   1   4
DOCKED: BRANCH   1  28
DOCKED: ATOM     28  C21 UNL     1       9.396   1.707   6.035 +0.00 +0.00    +0.143 C  
DOCKED: BRANCH  28  29
DOCKED: ATOM     29  O5  UNL     1       8.688   2.789   5.408 +0.00 -0.00    -0.389 OA 
DOCKED: ATOM     30  H40 UNL     1       7.972   2.396   4.864 +0.00 +0.00    +0.210 HD 
DOCKED: ENDBRANCH  28  29
DOCKED: BRANCH  28  31
DOCKED: ATOM     31  C22 UNL     1       8.512   1.127   7.137 +0.00 +0.00    +0.129 C  
DOCKED: BRANCH  31  32
DOCKED: ATOM     32  C23 UNL     1       7.138   0.703   6.674 +0.00 +0.00    +0.216 C  
DOCKED: ATOM     33  O6  UNL     1       6.617   1.072   5.628 +0.00 -0.00    -0.276 OA 
DOCKED: ATOM     34  N4  UNL     1       6.523  -0.165   7.548 +0.00 -0.00    -0.304 N  
DOCKED: ATOM     35  H43 UNL     1       6.894  -0.224   8.491 +0.00 +0.00    +0.149 HD 
DOCKED: BRANCH  34  36
DOCKED: ATOM     36  C24 UNL     1       5.148  -0.650   7.377 +0.00 +0.00    +0.161 C  
DOCKED: BRANCH  36  37
DOCKED: ATOM     37  C25 UNL     1       4.180   0.543   7.548 +0.00 +0.00    +0.234 C  
DOCKED: ATOM     38  O7  UNL     1       3.516   0.689   8.573 +0.00 -0.00    -0.274 OA 
DOCKED: ATOM     39  N5  UNL     1       4.182   1.441   6.505 +0.00 -0.00    -0.311 N  
DOCKED: ATOM     40  H45 UNL     1       4.942   1.356   5.827 +0.00 +0.00    +0.149 HD 
DOCKED: BRANCH  39  41
DOCKED: ATOM     41  C26 UNL     1       3.422   2.683   6.529 +0.00 +0.00    +0.073 C  
DOCKED: ATOM     42  C27 UNL     1       3.557   3.445   5.203 +0.00 +0.00    +0.022 C  
DOCKED: ATOM     43  C28 UNL     1       4.953   4.041   5.015 +0.00 +0.00    +0.002 C  
DOCKED: ATOM     44  C29 UNL     1       5.352   4.918   6.197 +0.00 +0.00    +0.000 C  
DOCKED: ATOM     45  C30 UNL     1       5.243   4.171   7.521 +0.00 +0.00    +0.002 C  
DOCKED: ATOM     46  C31 UNL     1       3.856   3.559   7.714 +0.00 +0.00    +0.022 C  
DOCKED: ENDBRANCH  39  41
DOCKED: ENDBRANCH  36  37
DOCKED: BRANCH  36  47
DOCKED: ATOM     47  C32 UNL     1       4.895  -1.480   6.096 +0.00 +0.00    +0.012 C  
DOCKED: ATOM     48  C33 UNL     1       3.446  -1.980   6.055 +0.00 +0.00    +0.009 C  
DOCKED: ATOM     49  C34 UNL     1       5.842  -2.681   6.006 +0.00 +0.00    +0.009 C  
DOCKED: ENDBRANCH  36  47
DOCKED: ENDBRANCH  34  36
DOCKED: ENDBRANCH  31  32
DOCKED: ENDBRANCH  28  31
DOCKED: ENDBRANCH   1  28
DOCKED: BRANCH   1  50
DOCKED: ATOM     50  C17 UNL     1      11.049   1.360   4.091 +0.00 +0.00    +0.028 C  
DOCKED: BRANCH  50  51
DOCKED: ATOM     51  C18 UNL     1      10.644   1.729   2.643 +0.00 -0.00    -0.015 C  
DOCKED: ATOM     52  C19 UNL     1      10.500   3.237   2.435 +0.00 +0.00    +0.007 C  
DOCKED: ATOM     53  C20 UNL     1      11.556   1.124   1.576 +0.00 +0.00    +0.007 C  
DOCKED: ENDBRANCH  50  51
DOCKED: ENDBRANCH   1  50
DOCKED: TORSDOF 21
DOCKED: TER
DOCKED: ENDMDL
________________________________________________________________________________


    CLUSTERING HISTOGRAM
    ____________________


________________________________________________________________________________
     |           |     |           |     |
Clus | Lowest    | Run | Mean      | Num | Histogram
-ter | Binding   |     | Binding   | in  |
Rank | Energy    |     | Energy    | Clus|    5    10   15   20   25   30   35
_____|___________|_____|___________|_____|____:____|____:____|____:____|____:___
   1 |     +6.26 |   1 |     +6.26 |   2 |##
   2 |     +6.26 |   2 |     +6.26 |   1 |#
   3 |     +6.26 |   3 |     +6.26 |   1 |#
   4 |     +6.26 |   4 |     +6.26 |   1 |#
   5 |     +6.26 |   5 |     +6.26 |   1 |#
   6 |     +6.26 |   7 |     +6.26 |   1 |#
   7 |     +6.26 |   8 |     +6.26 |   1 |#
   8 |     +6.26 |   9 |     +6.26 |   1 |#
   9 |     +6.26 |  10 |     +6.26 |   1 |#
  10 |     +6.26 |  11 |     +6.26 |   1 |#
  11 |     +6.26 |  12 |     +6.26 |   1 |#
  12 |     +6.26 |  13 |     +6.26 |   1 |#
  13 |     +6.26 |  14 |     +6.26 |   1 |#
  14 |     +6.26 |  15 |     +6.26 |   1 |#
  15 |     +6.26 |  16 |     +6.26 |   1 |#
  16 |     +6.26 |  17 |     +6.26 |   1 |#
  17 |     +6.26 |  18 |     +6.26 |   1 |#
  18 |     +6.26 |  19 |     +6.26 |   1 |#
  19 |     +6.26 |  20 |     +6.26 |   1 |#
_____|___________|_____|___________|_____|______________________________________


    RMSD TABLE
    __________


_______________________________________________________________________
     |      |      |           |         |                 |
Rank | Sub- | Run  | Binding   | Cluster | Reference       | Grep
     | Rank |      | Energy    | RMSD    | RMSD            | Pattern
_____|______|______|___________|_________|_________________|___________
   1      1      1       +6.26      0.00      8.85           RANKING
   1      2      6       +6.26      1.88      8.04           RANKING
   2      1      2       +6.26      0.00      8.36           RANKING
   3      1      3       +6.26      0.00      6.26           RANKING
   4      1      4       +6.26      0.00     12.43           RANKING
   5      1      5       +6.26      0.00      7.40           RANKING
   6      1      7       +6.26      0.00      5.03           RANKING
   7      1      8       +6.26      0.00      5.69           RANKING
   8      1      9       +6.26      0.00      6.16           RANKING
   9      1     10       +6.26      0.00      5.32           RANKING
  10      1     11       +6.26      0.00      8.24           RANKING
  11      1     12       +6.26      0.00      8.53           RANKING
  12      1     13       +6.26      0.00      6.67           RANKING
  13      1     14       +6.26      0.00      7.51           RANKING
  14      1     15       +6.26      0.00      9.02           RANKING
  15      1     16       +6.26      0.00      3.34           RANKING
  16      1     17       +6.26      0.00     11.42           RANKING
  17      1     18       +6.26      0.00      8.54           RANKING
  18      1     19       +6.26      0.00      6.79           RANKING
  19      1     20       +6.26      0.00      5.06           RANKING

Run time 25.904 sec
Idle time 0.298 sec
