AutoDock-GPU version: v1.6

**********************************************************
**    AutoDock-GPU AUTODOCKTOOLS-COMPATIBLE DLG FILE    **
**********************************************************


    DOCKING PARAMETERS
    ________________________


Ligand file:                               ligands/ligand_11.pdbqt
Grid fld file:                             protein.maps.fld

Random seed:                               1770972080, 25303
Number of runs:                            20
Number of energy evaluations:              9755677
Number of generations:                     42000
Size of population:                        150
Rate of crossover:                         80.000000%
Tournament selection probability limit:    60.000000%
Rate of mutation:                          2.000000%
Maximal allowed delta movement:            +/- 6.000000A
Maximal allowed delta angle:               +/- 90.000000

Rate of local search:                      100.000000%
Maximal number of local search iterations: 300
Rho lower bound:                           0.010000
Spread of local search delta movement:     2.000000A
Spread of local search delta angle:        74.999999
Limit of consecutive successes/failures:   4

Handle symmetry during clustering:         YES
RMSD tolerance:                            2.000000A

Program call in command line was:          ./autodock-gpu --ffile protein.maps.fld --lfile ligands/ligand_11.pdbqt --nrun 20 


    GRID PARAMETERS
    ________________________


Receptor name:                             #MACROMOLECULE
Number of grid points (x, y, z):           61, 61, 61
Grid center (x, y, z):                     10.261000, -3.492000, -0.127000A
Grid size (x, y, z):                       22.500000, 22.500000, 22.500000A
Grid spacing:                              0.375000A


    LIGAND PARAMETERS
    ________________________


Ligand name:                               ligands/ligand_11
Number of atoms:                           56
Number of rotatable bonds:                 21
Number of atom types:                      6


    DUMMY DATA (only for ADT-compatibility)
    ________________________


DPF> outlev 1
DPF> ga_run 20
DPF> fld protein.maps.fld
DPF> move ligands/ligand_11.pdbqt


    COUNTER STATES
    ________________________


Number of energy evaluations performed:    4983224
Number of generations used:                190


    INPUT LIGAND PDBQT FILE:
    ________________________


INPUT-LIGAND-PDBQT: REMARK  Name = ligands/ligand_11.pdb
INPUT-LIGAND-PDBQT: REMARK  29 active torsions:
INPUT-LIGAND-PDBQT: REMARK  status: ('A' for Active; 'I' for Inactive)
INPUT-LIGAND-PDBQT: REMARK    1  A    between atoms: C1_1  and  C2_2
INPUT-LIGAND-PDBQT: REMARK    2  A    between atoms: C2_2  and  C3_3
INPUT-LIGAND-PDBQT: REMARK    3  A    between atoms: C3_3  and  C4_4
INPUT-LIGAND-PDBQT: REMARK    4  A    between atoms: C4_4  and  N1_5
INPUT-LIGAND-PDBQT: REMARK    5  A    between atoms: C4_4  and  C10_13
INPUT-LIGAND-PDBQT: REMARK    6  A    between atoms: C5_6  and  O2_8
INPUT-LIGAND-PDBQT: REMARK    7  A    between atoms: O2_8  and  C6_9
INPUT-LIGAND-PDBQT: REMARK    8  A    between atoms: C6_9  and  C7_10
INPUT-LIGAND-PDBQT: REMARK    9  A    between atoms: C6_9  and  C8_11
INPUT-LIGAND-PDBQT: REMARK   10  A    between atoms: C6_9  and  C9_12
INPUT-LIGAND-PDBQT: REMARK   11  A    between atoms: N2_15  and  C11_16
INPUT-LIGAND-PDBQT: REMARK   12  A    between atoms: C11_16  and  C12_17
INPUT-LIGAND-PDBQT: REMARK   13  A    between atoms: C11_16  and  C13_18
INPUT-LIGAND-PDBQT: REMARK   14  A    between atoms: N3_20  and  C14_21
INPUT-LIGAND-PDBQT: REMARK   15  A    between atoms: C14_21  and  C15_22
INPUT-LIGAND-PDBQT: REMARK   16  A    between atoms: C14_21  and  C22_29
INPUT-LIGAND-PDBQT: REMARK   17  A    between atoms: C15_22  and  C16_23
INPUT-LIGAND-PDBQT: REMARK   18  A    between atoms: C22_29  and  O5_30
INPUT-LIGAND-PDBQT: REMARK   19  A    between atoms: C22_29  and  C23_31
INPUT-LIGAND-PDBQT: REMARK   20  A    between atoms: C23_31  and  C24_32
INPUT-LIGAND-PDBQT: REMARK   21  A    between atoms: C24_32  and  C25_33
INPUT-LIGAND-PDBQT: REMARK   22  A    between atoms: C24_32  and  C26_34
INPUT-LIGAND-PDBQT: REMARK   23  A    between atoms: N4_36  and  C27_37
INPUT-LIGAND-PDBQT: REMARK   24  A    between atoms: C27_37  and  C28_38
INPUT-LIGAND-PDBQT: REMARK   25  A    between atoms: C27_37  and  C35_48
INPUT-LIGAND-PDBQT: REMARK   26  A    between atoms: N5_40  and  C29_41
INPUT-LIGAND-PDBQT: REMARK   27  A    between atoms: C29_41  and  C30_42
INPUT-LIGAND-PDBQT: REMARK   28  A    between atoms: C35_48  and  C36_49
INPUT-LIGAND-PDBQT: REMARK   29  A    between atoms: C35_48  and  C37_50
INPUT-LIGAND-PDBQT: REMARK                            x       y       z     vdW  Elec       q    Type
INPUT-LIGAND-PDBQT: REMARK                         _______ _______ _______ _____ _____    ______ ____
INPUT-LIGAND-PDBQT: ROOT
INPUT-LIGAND-PDBQT: ATOM      1  C14 UNL     1      -1.932  -1.830  -1.991  0.00  0.00    +0.106 C 
INPUT-LIGAND-PDBQT: ENDROOT
INPUT-LIGAND-PDBQT: BRANCH   1   4
INPUT-LIGAND-PDBQT: ATOM      2  C13 UNL     1       0.519  -1.525  -1.674  0.00  0.00    +0.233 C 
INPUT-LIGAND-PDBQT: ATOM      3  O4  UNL     1       0.805  -2.183  -2.674  0.00  0.00    -0.274 OA
INPUT-LIGAND-PDBQT: ATOM      4  N3  UNL     1      -0.778  -1.258  -1.300  0.00  0.00    -0.308 N 
INPUT-LIGAND-PDBQT: ATOM      5  H24 UNL     1      -0.943  -0.681  -0.483  0.00  0.00    +0.149 HD
INPUT-LIGAND-PDBQT: BRANCH   2   6
INPUT-LIGAND-PDBQT: ATOM      6  C11 UNL     1       1.596  -0.898  -0.770  0.00  0.00    +0.156 C 
INPUT-LIGAND-PDBQT: ATOM      7  C12 UNL     1       2.041   0.444  -1.331  0.00  0.00    +0.038 C 
INPUT-LIGAND-PDBQT: BRANCH   6  10
INPUT-LIGAND-PDBQT: ATOM      8  C10 UNL     1       2.860  -2.702   0.331  0.00  0.00    +0.234 C 
INPUT-LIGAND-PDBQT: ATOM      9  O3  UNL     1       2.183  -2.631   1.358  0.00  0.00    -0.274 OA
INPUT-LIGAND-PDBQT: ATOM     10  N2  UNL     1       2.713  -1.832  -0.728  0.00  0.00    -0.303 N 
INPUT-LIGAND-PDBQT: ATOM     11  H19 UNL     1       3.066  -2.131  -1.630  0.00  0.00    +0.149 HD
INPUT-LIGAND-PDBQT: BRANCH   8  12
INPUT-LIGAND-PDBQT: ATOM     12  C4  UNL     1       3.915  -3.804   0.108  0.00  0.00    +0.162 C 
INPUT-LIGAND-PDBQT: BRANCH  12  13
INPUT-LIGAND-PDBQT: ATOM     13  N1  UNL     1       4.416  -4.209   1.410  0.00  0.00    -0.270 N 
INPUT-LIGAND-PDBQT: ATOM     14  C5  UNL     1       5.420  -3.502   2.001  0.00  0.00    +0.401 C 
INPUT-LIGAND-PDBQT: ATOM     15  O1  UNL     1       6.161  -2.728   1.422  0.00  0.00    -0.226 OA
INPUT-LIGAND-PDBQT: ATOM     16  H9  UNL     1       3.733  -4.537   2.081  0.00  0.00    +0.153 HD
INPUT-LIGAND-PDBQT: BRANCH  14  17
INPUT-LIGAND-PDBQT: ATOM     17  O2  UNL     1       5.428  -3.782   3.323  0.00  0.00    -0.445 OA
INPUT-LIGAND-PDBQT: BRANCH  17  18
INPUT-LIGAND-PDBQT: ATOM     18  C6  UNL     1       6.353  -3.109   4.215  0.00  0.00    +0.107 C 
INPUT-LIGAND-PDBQT: ATOM     19  C7  UNL     1       6.087  -1.598   4.248  0.00  0.00    +0.055 C 
INPUT-LIGAND-PDBQT: ATOM     20  C8  UNL     1       7.810  -3.422   3.854  0.00  0.00    +0.055 C 
INPUT-LIGAND-PDBQT: ATOM     21  C9  UNL     1       6.056  -3.697   5.602  0.00  0.00    +0.055 C 
INPUT-LIGAND-PDBQT: ENDBRANCH  17  18
INPUT-LIGAND-PDBQT: ENDBRANCH  14  17
INPUT-LIGAND-PDBQT: ENDBRANCH  12  13
INPUT-LIGAND-PDBQT: BRANCH  12  22
INPUT-LIGAND-PDBQT: ATOM     22  C3  UNL     1       3.268  -4.977  -0.634  0.00  0.00    +0.031 C 
INPUT-LIGAND-PDBQT: BRANCH  22  24
INPUT-LIGAND-PDBQT: ATOM     23  C1  UNL     1       3.632  -7.173  -1.822  0.00  0.00    +0.004 C 
INPUT-LIGAND-PDBQT: ATOM     24  C2  UNL     1       4.296  -6.011  -1.097  0.00  0.00    -0.001 C 
INPUT-LIGAND-PDBQT: ENDBRANCH  22  24
INPUT-LIGAND-PDBQT: ENDBRANCH  12  22
INPUT-LIGAND-PDBQT: ENDBRANCH   8  12
INPUT-LIGAND-PDBQT: ENDBRANCH   6  10
INPUT-LIGAND-PDBQT: ENDBRANCH   2   6
INPUT-LIGAND-PDBQT: ENDBRANCH   1   4
INPUT-LIGAND-PDBQT: BRANCH   1  25
INPUT-LIGAND-PDBQT: ATOM     25  C15 UNL     1      -3.135  -1.983  -1.027  0.00  0.00    +0.060 C 
INPUT-LIGAND-PDBQT: BRANCH  25  26
INPUT-LIGAND-PDBQT: ATOM     26  C16 UNL     1      -2.941  -3.138  -0.063  0.00  0.00    -0.046 A 
INPUT-LIGAND-PDBQT: ATOM     27  C17 UNL     1      -3.333  -4.434  -0.427  0.00  0.00    +0.004 A 
INPUT-LIGAND-PDBQT: ATOM     28  C18 UNL     1      -3.119  -5.509   0.438  0.00  0.00    +0.000 A 
INPUT-LIGAND-PDBQT: ATOM     29  C19 UNL     1      -2.510  -5.300   1.673  0.00  0.00    +0.000 A 
INPUT-LIGAND-PDBQT: ATOM     30  C20 UNL     1      -2.118  -4.017   2.046  0.00  0.00    +0.000 A 
INPUT-LIGAND-PDBQT: ATOM     31  C21 UNL     1      -2.333  -2.940   1.184  0.00  0.00    +0.004 A 
INPUT-LIGAND-PDBQT: ENDBRANCH  25  26
INPUT-LIGAND-PDBQT: ENDBRANCH   1  25
INPUT-LIGAND-PDBQT: BRANCH   1  32
INPUT-LIGAND-PDBQT: ATOM     32  C22 UNL     1      -2.281  -1.059  -3.299  0.00  0.00    +0.136 C 
INPUT-LIGAND-PDBQT: BRANCH  32  33
INPUT-LIGAND-PDBQT: ATOM     33  O5  UNL     1      -3.349  -1.735  -3.981  0.00  0.00    -0.390 OA
INPUT-LIGAND-PDBQT: ATOM     34  H34 UNL     1      -2.994  -2.588  -4.298  0.00  0.00    +0.210 HD
INPUT-LIGAND-PDBQT: ENDBRANCH  32  33
INPUT-LIGAND-PDBQT: BRANCH  32  35
INPUT-LIGAND-PDBQT: ATOM     35  C23 UNL     1      -2.719   0.403  -3.098  0.00  0.00    +0.045 C 
INPUT-LIGAND-PDBQT: BRANCH  35  36
INPUT-LIGAND-PDBQT: ATOM     36  C24 UNL     1      -1.535   1.385  -3.122  0.00  0.00    +0.074 C 
INPUT-LIGAND-PDBQT: ATOM     37  C25 UNL     1      -1.144   1.791  -4.543  0.00  0.00    +0.017 C 
INPUT-LIGAND-PDBQT: BRANCH  36  38
INPUT-LIGAND-PDBQT: ATOM     38  C26 UNL     1      -1.830   2.602  -2.259  0.00  0.00    +0.217 C 
INPUT-LIGAND-PDBQT: ATOM     39  O6  UNL     1      -1.231   2.793  -1.201  0.00  0.00    -0.276 OA
INPUT-LIGAND-PDBQT: ATOM     40  N4  UNL     1      -2.819   3.435  -2.731  0.00  0.00    -0.304 N 
INPUT-LIGAND-PDBQT: ATOM     41  H41 UNL     1      -3.509   2.983  -3.320  0.00  0.00    +0.149 HD
INPUT-LIGAND-PDBQT: BRANCH  40  42
INPUT-LIGAND-PDBQT: ATOM     42  C27 UNL     1      -3.333   4.504  -1.879  0.00  0.00    +0.161 C 
INPUT-LIGAND-PDBQT: BRANCH  42  43
INPUT-LIGAND-PDBQT: ATOM     43  C28 UNL     1      -4.391   3.899  -0.927  0.00  0.00    +0.234 C 
INPUT-LIGAND-PDBQT: ATOM     44  O7  UNL     1      -4.947   2.825  -1.153  0.00  0.00    -0.274 OA
INPUT-LIGAND-PDBQT: ATOM     45  N5  UNL     1      -4.679   4.679   0.171  0.00  0.00    -0.310 N 
INPUT-LIGAND-PDBQT: ATOM     46  H43 UNL     1      -4.086   5.474   0.376  0.00  0.00    +0.149 HD
INPUT-LIGAND-PDBQT: BRANCH  45  47
INPUT-LIGAND-PDBQT: ATOM     47  C29 UNL     1      -5.553   4.215   1.227  0.00  0.00    +0.139 C 
INPUT-LIGAND-PDBQT: BRANCH  47  48
INPUT-LIGAND-PDBQT: ATOM     48  C30 UNL     1      -4.784   3.929   2.491  0.00  0.00    -0.027 A 
INPUT-LIGAND-PDBQT: ATOM     49  C31 UNL     1      -5.215   4.443   3.717  0.00  0.00    +0.025 A 
INPUT-LIGAND-PDBQT: ATOM     50  C32 UNL     1      -4.490   4.138   4.861  0.00  0.00    +0.111 A 
INPUT-LIGAND-PDBQT: ATOM     51  N6  UNL     1      -3.384   3.366   4.869  0.00  0.00    -0.263 NA
INPUT-LIGAND-PDBQT: ATOM     52  C33 UNL     1      -2.991   2.868   3.679  0.00  0.00    +0.111 A 
INPUT-LIGAND-PDBQT: ATOM     53  C34 UNL     1      -3.649   3.110   2.482  0.00  0.00    +0.025 A 
INPUT-LIGAND-PDBQT: ENDBRANCH  47  48
INPUT-LIGAND-PDBQT: ENDBRANCH  45  47
INPUT-LIGAND-PDBQT: ENDBRANCH  42  43
INPUT-LIGAND-PDBQT: BRANCH  42  54
INPUT-LIGAND-PDBQT: ATOM     54  C35 UNL     1      -3.913   5.687  -2.689  0.00  0.00    +0.012 C 
INPUT-LIGAND-PDBQT: ATOM     55  C36 UNL     1      -5.004   5.267  -3.682  0.00  0.00    +0.009 C 
INPUT-LIGAND-PDBQT: ATOM     56  C37 UNL     1      -2.801   6.443  -3.423  0.00  0.00    +0.009 C 
INPUT-LIGAND-PDBQT: ENDBRANCH  42  54
INPUT-LIGAND-PDBQT: ENDBRANCH  40  42
INPUT-LIGAND-PDBQT: ENDBRANCH  36  38
INPUT-LIGAND-PDBQT: ENDBRANCH  35  36
INPUT-LIGAND-PDBQT: ENDBRANCH  32  35
INPUT-LIGAND-PDBQT: ENDBRANCH   1  32
INPUT-LIGAND-PDBQT: TORSDOF 21


    FINAL DOCKED STATE:
    ________________________


Run:   1 / 20
Time taken for this run:   1.417s

DOCKED: MODEL        1
DOCKED: USER    Run = 1
DOCKED: USER
DOCKED: USER    Estimated Free Energy of Binding    =  +6.26 kcal/mol  [=(1)+(2)+(3)-(4)]
DOCKED: USER
DOCKED: USER    (1) Final Intermolecular Energy     =  +0.00 kcal/mol
DOCKED: USER        vdW + Hbond + desolv Energy     =  +0.00 kcal/mol
DOCKED: USER        Electrostatic Energy            =  +0.00 kcal/mol
DOCKED: USER        Moving Ligand-Fixed Receptor    =  +0.00 kcal/mol
DOCKED: USER        Moving Ligand-Moving Receptor   =  +0.00 kcal/mol
DOCKED: USER    (2) Final Total Internal Energy     = -14.75 kcal/mol
DOCKED: USER    (3) Torsional Free Energy           =  +6.26 kcal/mol
DOCKED: USER    (4) Unbound System's Energy         = -14.75 kcal/mol
DOCKED: USER
DOCKED: USER
DOCKED: REMARK  Name = ligands/ligand_11.pdb
DOCKED: REMARK  29 active torsions:
DOCKED: REMARK  status: ('A' for Active; 'I' for Inactive)
DOCKED: REMARK    1  A    between atoms: C1_1  and  C2_2
DOCKED: REMARK    2  A    between atoms: C2_2  and  C3_3
DOCKED: REMARK    3  A    between atoms: C3_3  and  C4_4
DOCKED: REMARK    4  A    between atoms: C4_4  and  N1_5
DOCKED: REMARK    5  A    between atoms: C4_4  and  C10_13
DOCKED: REMARK    6  A    between atoms: C5_6  and  O2_8
DOCKED: REMARK    7  A    between atoms: O2_8  and  C6_9
DOCKED: REMARK    8  A    between atoms: C6_9  and  C7_10
DOCKED: REMARK    9  A    between atoms: C6_9  and  C8_11
DOCKED: REMARK   10  A    between atoms: C6_9  and  C9_12
DOCKED: REMARK   11  A    between atoms: N2_15  and  C11_16
DOCKED: REMARK   12  A    between atoms: C11_16  and  C12_17
DOCKED: REMARK   13  A    between atoms: C11_16  and  C13_18
DOCKED: REMARK   14  A    between atoms: N3_20  and  C14_21
DOCKED: REMARK   15  A    between atoms: C14_21  and  C15_22
DOCKED: REMARK   16  A    between atoms: C14_21  and  C22_29
DOCKED: REMARK   17  A    between atoms: C15_22  and  C16_23
DOCKED: REMARK   18  A    between atoms: C22_29  and  O5_30
DOCKED: REMARK   19  A    between atoms: C22_29  and  C23_31
DOCKED: REMARK   20  A    between atoms: C23_31  and  C24_32
DOCKED: REMARK   21  A    between atoms: C24_32  and  C25_33
DOCKED: REMARK   22  A    between atoms: C24_32  and  C26_34
DOCKED: REMARK   23  A    between atoms: N4_36  and  C27_37
DOCKED: REMARK   24  A    between atoms: C27_37  and  C28_38
DOCKED: REMARK   25  A    between atoms: C27_37  and  C35_48
DOCKED: REMARK   26  A    between atoms: N5_40  and  C29_41
DOCKED: REMARK   27  A    between atoms: C29_41  and  C30_42
DOCKED: REMARK   28  A    between atoms: C35_48  and  C36_49
DOCKED: REMARK   29  A    between atoms: C35_48  and  C37_50
DOCKED: REMARK                            x       y       z     vdW  Elec       q    Type
DOCKED: REMARK                         _______ _______ _______ _____ _____    ______ ____
DOCKED: USER                              x       y       z     vdW  Elec       q    Type
DOCKED: USER                           _______ _______ _______ _____ _____    ______ ____
DOCKED: ROOT
DOCKED: ATOM      1  C14 UNL     1       8.427  -4.657  -2.795 +0.00 +0.00    +0.106 C  
DOCKED: ENDROOT
DOCKED: BRANCH   1   4
DOCKED: ATOM      2  C13 UNL     1       7.537  -5.592  -0.666 +0.00 +0.00    +0.233 C  
DOCKED: ATOM      3  O4  UNL     1       6.437  -5.056  -0.804 +0.00 -0.00    -0.274 OA 
DOCKED: ATOM      4  N3  UNL     1       8.538  -5.498  -1.605 +0.00 -0.00    -0.308 N  
DOCKED: ATOM      5  H24 UNL     1       9.408  -5.992  -1.444 +0.00 +0.00    +0.149 HD 
DOCKED: BRANCH   2   6
DOCKED: ATOM      6  C11 UNL     1       7.877  -6.460   0.559 +0.00 +0.00    +0.156 C  
DOCKED: ATOM      7  C12 UNL     1       7.057  -6.021   1.762 +0.00 +0.00    +0.038 C  
DOCKED: BRANCH   6  10
DOCKED: ATOM      8  C10 UNL     1      10.108  -7.387   1.035 +0.00 +0.00    +0.234 C  
DOCKED: ATOM      9  O3  UNL     1       9.667  -8.527   1.192 +0.00 -0.00    -0.274 OA 
DOCKED: ATOM     10  N2  UNL     1       9.300  -6.291   0.819 +0.00 -0.00    -0.303 N  
DOCKED: ATOM     11  H19 UNL     1       9.726  -5.473   0.400 +0.00 +0.00    +0.149 HD 
DOCKED: BRANCH   8  12
DOCKED: ATOM     12  C4  UNL     1      11.618  -7.077   1.022 +0.00 +0.00    +0.162 C  
DOCKED: BRANCH  12  13
DOCKED: ATOM     13  N1  UNL     1      12.059  -7.078  -0.362 +0.00 -0.00    -0.270 N  
DOCKED: ATOM     14  C5  UNL     1      11.941  -5.947  -1.114 +0.00 +0.00    +0.401 C  
DOCKED: ATOM     15  O1  UNL     1      11.224  -5.001  -0.840 +0.00 -0.00    -0.226 OA 
DOCKED: ATOM     16  H9  UNL     1      12.908  -7.589  -0.571 +0.00 +0.00    +0.153 HD 
DOCKED: BRANCH  14  17
DOCKED: ATOM     17  O2  UNL     1      12.767  -6.046  -2.179 +0.00 -0.00    -0.445 OA 
DOCKED: BRANCH  17  18
DOCKED: ATOM     18  C6  UNL     1      14.010  -5.300  -2.221 +0.00 +0.00    +0.107 C  
DOCKED: ATOM     19  C7  UNL     1      15.211  -6.212  -1.937 +0.00 +0.00    +0.055 C  
DOCKED: ATOM     20  C8  UNL     1      13.975  -4.095  -1.272 +0.00 +0.00    +0.055 C  
DOCKED: ATOM     21  C9  UNL     1      14.107  -4.783  -3.663 +0.00 +0.00    +0.055 C  
DOCKED: ENDBRANCH  17  18
DOCKED: ENDBRANCH  14  17
DOCKED: ENDBRANCH  12  13
DOCKED: BRANCH  12  22
DOCKED: ATOM     22  C3  UNL     1      11.858  -5.718   1.686 +0.00 +0.00    +0.031 C  
DOCKED: BRANCH  22  24
DOCKED: ATOM     23  C1  UNL     1      13.619  -3.966   2.133 +0.00 +0.00    +0.004 C  
DOCKED: ATOM     24  C2  UNL     1      13.342  -5.451   1.945 +0.00 -0.00    -0.001 C  
DOCKED: ENDBRANCH  22  24
DOCKED: ENDBRANCH  12  22
DOCKED: ENDBRANCH   8  12
DOCKED: ENDBRANCH   6  10
DOCKED: ENDBRANCH   2   6
DOCKED: ENDBRANCH   1   4
DOCKED: BRANCH   1  25
DOCKED: ATOM     25  C15 UNL     1       8.212  -3.173  -2.407 +0.00 +0.00    +0.060 C  
DOCKED: BRANCH  25  26
DOCKED: ATOM     26  C16 UNL     1       9.309  -2.666  -1.490 +0.00 -0.00    -0.046 A  
DOCKED: ATOM     27  C17 UNL     1       9.149  -2.727  -0.099 +0.00 +0.00    +0.004 A  
DOCKED: ATOM     28  C18 UNL     1      10.171  -2.302   0.752 +0.00 +0.00    +0.000 A  
DOCKED: ATOM     29  C19 UNL     1      11.363  -1.814   0.221 +0.00 +0.00    +0.000 A  
DOCKED: ATOM     30  C20 UNL     1      11.532  -1.747  -1.159 +0.00 +0.00    +0.000 A  
DOCKED: ATOM     31  C21 UNL     1      10.511  -2.170  -2.012 +0.00 +0.00    +0.004 A  
DOCKED: ENDBRANCH  25  26
DOCKED: ENDBRANCH   1  25
DOCKED: BRANCH   1  32
DOCKED: ATOM     32  C22 UNL     1       9.610  -4.873  -3.785 +0.00 +0.00    +0.136 C  
DOCKED: BRANCH  32  33
DOCKED: ATOM     33  O5  UNL     1      10.482  -5.893  -3.272 +0.00 -0.00    -0.390 OA 
DOCKED: ATOM     34  H34 UNL     1      11.304  -5.452  -2.986 +0.00 +0.00    +0.210 HD 
DOCKED: ENDBRANCH  32  33
DOCKED: BRANCH  32  35
DOCKED: ATOM     35  C23 UNL     1       9.202  -5.293  -5.209 +0.00 +0.00    +0.045 C  
DOCKED: BRANCH  35  36
DOCKED: ATOM     36  C24 UNL     1      10.413  -5.609  -6.104 +0.00 +0.00    +0.074 C  
DOCKED: ATOM     37  C25 UNL     1      11.511  -4.551  -5.992 +0.00 +0.00    +0.017 C  
DOCKED: BRANCH  36  38
DOCKED: ATOM     38  C26 UNL     1      10.951  -7.000  -5.808 +0.00 +0.00    +0.217 C  
DOCKED: ATOM     39  O6  UNL     1      10.385  -8.006  -6.234 +0.00 -0.00    -0.276 OA 
DOCKED: ATOM     40  N4  UNL     1      12.077  -7.042  -5.017 +0.00 -0.00    -0.304 N  
DOCKED: ATOM     41  H41 UNL     1      12.186  -6.252  -4.391 +0.00 +0.00    +0.149 HD 
DOCKED: BRANCH  40  42
DOCKED: ATOM     42  C27 UNL     1      12.546  -8.321  -4.491 +0.00 +0.00    +0.161 C  
DOCKED: BRANCH  42  43
DOCKED: ATOM     43  C28 UNL     1      11.796  -8.606  -3.169 +0.00 +0.00    +0.234 C  
DOCKED: ATOM     44  O7  UNL     1      12.371  -8.988  -2.151 +0.00 -0.00    -0.274 OA 
DOCKED: ATOM     45  N5  UNL     1      10.432  -8.428  -3.240 +0.00 -0.00    -0.310 N  
DOCKED: ATOM     46  H43 UNL     1      10.039  -7.974  -4.056 +0.00 +0.00    +0.149 HD 
DOCKED: BRANCH  45  47
DOCKED: ATOM     47  C29 UNL     1       9.588  -8.532  -2.069 +0.00 +0.00    +0.139 C  
DOCKED: BRANCH  47  48
DOCKED: ATOM     48  C30 UNL     1       8.129  -8.436  -2.434 +0.00 -0.00    -0.027 A  
DOCKED: ATOM     49  C31 UNL     1       7.736  -7.904  -3.665 +0.00 +0.00    +0.025 A  
DOCKED: ATOM     50  C32 UNL     1       6.383  -7.854  -3.970 +0.00 +0.00    +0.111 A  
DOCKED: ATOM     51  N6  UNL     1       5.408  -8.293  -3.148 +0.00 -0.00    -0.263 NA 
DOCKED: ATOM     52  C33 UNL     1       5.806  -8.815  -1.970 +0.00 +0.00    +0.111 A  
DOCKED: ATOM     53  C34 UNL     1       7.132  -8.914  -1.575 +0.00 +0.00    +0.025 A  
DOCKED: ENDBRANCH  47  48
DOCKED: ENDBRANCH  45  47
DOCKED: ENDBRANCH  42  43
DOCKED: BRANCH  42  54
DOCKED: ATOM     54  C35 UNL     1      14.079  -8.359  -4.290 +0.00 +0.00    +0.012 C  
DOCKED: ATOM     55  C36 UNL     1      14.855  -7.633  -5.396 +0.00 +0.00    +0.009 C  
DOCKED: ATOM     56  C37 UNL     1      14.577  -9.803  -4.163 +0.00 +0.00    +0.009 C  
DOCKED: ENDBRANCH  42  54
DOCKED: ENDBRANCH  40  42
DOCKED: ENDBRANCH  36  38
DOCKED: ENDBRANCH  35  36
DOCKED: ENDBRANCH  32  35
DOCKED: ENDBRANCH   1  32
DOCKED: TORSDOF 21
DOCKED: TER
DOCKED: ENDMDL
________________________________________________________________________________


    FINAL DOCKED STATE:
    ________________________


Run:   2 / 20
Time taken for this run:   1.417s

DOCKED: MODEL        2
DOCKED: USER    Run = 2
DOCKED: USER
DOCKED: USER    Estimated Free Energy of Binding    =  +6.26 kcal/mol  [=(1)+(2)+(3)-(4)]
DOCKED: USER
DOCKED: USER    (1) Final Intermolecular Energy     =  +0.00 kcal/mol
DOCKED: USER        vdW + Hbond + desolv Energy     =  +0.00 kcal/mol
DOCKED: USER        Electrostatic Energy            =  +0.00 kcal/mol
DOCKED: USER        Moving Ligand-Fixed Receptor    =  +0.00 kcal/mol
DOCKED: USER        Moving Ligand-Moving Receptor   =  +0.00 kcal/mol
DOCKED: USER    (2) Final Total Internal Energy     = -14.34 kcal/mol
DOCKED: USER    (3) Torsional Free Energy           =  +6.26 kcal/mol
DOCKED: USER    (4) Unbound System's Energy         = -14.34 kcal/mol
DOCKED: USER
DOCKED: USER
DOCKED: REMARK  Name = ligands/ligand_11.pdb
DOCKED: REMARK  29 active torsions:
DOCKED: REMARK  status: ('A' for Active; 'I' for Inactive)
DOCKED: REMARK    1  A    between atoms: C1_1  and  C2_2
DOCKED: REMARK    2  A    between atoms: C2_2  and  C3_3
DOCKED: REMARK    3  A    between atoms: C3_3  and  C4_4
DOCKED: REMARK    4  A    between atoms: C4_4  and  N1_5
DOCKED: REMARK    5  A    between atoms: C4_4  and  C10_13
DOCKED: REMARK    6  A    between atoms: C5_6  and  O2_8
DOCKED: REMARK    7  A    between atoms: O2_8  and  C6_9
DOCKED: REMARK    8  A    between atoms: C6_9  and  C7_10
DOCKED: REMARK    9  A    between atoms: C6_9  and  C8_11
DOCKED: REMARK   10  A    between atoms: C6_9  and  C9_12
DOCKED: REMARK   11  A    between atoms: N2_15  and  C11_16
DOCKED: REMARK   12  A    between atoms: C11_16  and  C12_17
DOCKED: REMARK   13  A    between atoms: C11_16  and  C13_18
DOCKED: REMARK   14  A    between atoms: N3_20  and  C14_21
DOCKED: REMARK   15  A    between atoms: C14_21  and  C15_22
DOCKED: REMARK   16  A    between atoms: C14_21  and  C22_29
DOCKED: REMARK   17  A    between atoms: C15_22  and  C16_23
DOCKED: REMARK   18  A    between atoms: C22_29  and  O5_30
DOCKED: REMARK   19  A    between atoms: C22_29  and  C23_31
DOCKED: REMARK   20  A    between atoms: C23_31  and  C24_32
DOCKED: REMARK   21  A    between atoms: C24_32  and  C25_33
DOCKED: REMARK   22  A    between atoms: C24_32  and  C26_34
DOCKED: REMARK   23  A    between atoms: N4_36  and  C27_37
DOCKED: REMARK   24  A    between atoms: C27_37  and  C28_38
DOCKED: REMARK   25  A    between atoms: C27_37  and  C35_48
DOCKED: REMARK   26  A    between atoms: N5_40  and  C29_41
DOCKED: REMARK   27  A    between atoms: C29_41  and  C30_42
DOCKED: REMARK   28  A    between atoms: C35_48  and  C36_49
DOCKED: REMARK   29  A    between atoms: C35_48  and  C37_50
DOCKED: REMARK                            x       y       z     vdW  Elec       q    Type
DOCKED: REMARK                         _______ _______ _______ _____ _____    ______ ____
DOCKED: USER                              x       y       z     vdW  Elec       q    Type
DOCKED: USER                           _______ _______ _______ _____ _____    ______ ____
DOCKED: ROOT
DOCKED: ATOM      1  C14 UNL     1      11.784  -1.132   4.430 +0.00 +0.00    +0.106 C  
DOCKED: ENDROOT
DOCKED: BRANCH   1   4
DOCKED: ATOM      2  C13 UNL     1       9.341  -0.713   4.672 +0.00 +0.00    +0.233 C  
DOCKED: ATOM      3  O4  UNL     1       9.507   0.283   5.375 +0.00 -0.00    -0.274 OA 
DOCKED: ATOM      4  N3  UNL     1      10.385  -1.425   4.127 +0.00 -0.00    -0.308 N  
DOCKED: ATOM      5  H24 UNL     1      10.177  -2.217   3.528 +0.00 +0.00    +0.149 HD 
DOCKED: BRANCH   2   6
DOCKED: ATOM      6  C11 UNL     1       7.940  -1.229   4.297 +0.00 +0.00    +0.156 C  
DOCKED: ATOM      7  C12 UNL     1       6.984  -1.059   5.469 +0.00 +0.00    +0.038 C  
DOCKED: BRANCH   6  10
DOCKED: ATOM      8  C10 UNL     1       6.971  -3.416   3.714 +0.00 +0.00    +0.234 C  
DOCKED: ATOM      9  O3  UNL     1       5.822  -3.035   3.942 +0.00 -0.00    -0.274 OA 
DOCKED: ATOM     10  N2  UNL     1       8.082  -2.636   3.951 +0.00 -0.00    -0.303 N  
DOCKED: ATOM     11  H19 UNL     1       8.937  -2.881   3.464 +0.00 +0.00    +0.149 HD 
DOCKED: BRANCH   8  12
DOCKED: ATOM     12  C4  UNL     1       7.280  -4.795   3.097 +0.00 +0.00    +0.162 C  
DOCKED: BRANCH  12  13
DOCKED: ATOM     13  N1  UNL     1       7.938  -4.572   1.821 +0.00 -0.00    -0.270 N  
DOCKED: ATOM     14  C5  UNL     1       9.282  -4.349   1.780 +0.00 +0.00    +0.401 C  
DOCKED: ATOM     15  O1  UNL     1       9.962  -4.018   2.734 +0.00 -0.00    -0.226 OA 
DOCKED: ATOM     16  H9  UNL     1       7.619  -5.129   1.038 +0.00 +0.00    +0.153 HD 
DOCKED: BRANCH  14  17
DOCKED: ATOM     17  O2  UNL     1       9.723  -4.586   0.524 +0.00 -0.00    -0.445 OA 
DOCKED: BRANCH  17  18
DOCKED: ATOM     18  C6  UNL     1      10.958  -5.314   0.301 +0.00 +0.00    +0.107 C  
DOCKED: ATOM     19  C7  UNL     1      11.208  -6.333   1.420 +0.00 +0.00    +0.055 C  
DOCKED: ATOM     20  C8  UNL     1      12.146  -4.361   0.123 +0.00 +0.00    +0.055 C  
DOCKED: ATOM     21  C9  UNL     1      10.734  -6.067  -1.018 +0.00 +0.00    +0.055 C  
DOCKED: ENDBRANCH  17  18
DOCKED: ENDBRANCH  14  17
DOCKED: ENDBRANCH  12  13
DOCKED: BRANCH  12  22
DOCKED: ATOM     22  C3  UNL     1       8.172  -5.587   4.057 +0.00 +0.00    +0.031 C  
DOCKED: BRANCH  22  24
DOCKED: ATOM     23  C1  UNL     1       7.244  -7.460   2.643 +0.00 +0.00    +0.004 C  
DOCKED: ATOM     24  C2  UNL     1       8.320  -7.051   3.638 +0.00 -0.00    -0.001 C  
DOCKED: ENDBRANCH  22  24
DOCKED: ENDBRANCH  12  22
DOCKED: ENDBRANCH   8  12
DOCKED: ENDBRANCH   6  10
DOCKED: ENDBRANCH   2   6
DOCKED: ENDBRANCH   1   4
DOCKED: BRANCH   1  25
DOCKED: ATOM     25  C15 UNL     1      12.149  -1.596   5.862 +0.00 +0.00    +0.060 C  
DOCKED: BRANCH  25  26
DOCKED: ATOM     26  C16 UNL     1      11.414  -2.866   6.248 +0.00 -0.00    -0.046 A  
DOCKED: ATOM     27  C17 UNL     1      10.413  -2.831   7.229 +0.00 +0.00    +0.004 A  
DOCKED: ATOM     28  C18 UNL     1       9.702  -3.987   7.558 +0.00 +0.00    +0.000 A  
DOCKED: ATOM     29  C19 UNL     1       9.983  -5.187   6.910 +0.00 +0.00    +0.000 A  
DOCKED: ATOM     30  C20 UNL     1      10.976  -5.234   5.935 +0.00 +0.00    +0.000 A  
DOCKED: ATOM     31  C21 UNL     1      11.690  -4.080   5.606 +0.00 +0.00    +0.004 A  
DOCKED: ENDBRANCH  25  26
DOCKED: ENDBRANCH   1  25
DOCKED: BRANCH   1  32
DOCKED: ATOM     32  C22 UNL     1      12.753  -1.674   3.338 +0.00 +0.00    +0.136 C  
DOCKED: BRANCH  32  33
DOCKED: ATOM     33  O5  UNL     1      12.012  -2.450   2.384 +0.00 -0.00    -0.390 OA 
DOCKED: ATOM     34  H34 UNL     1      11.078  -2.171   2.450 +0.00 +0.00    +0.210 HD 
DOCKED: ENDBRANCH  32  33
DOCKED: BRANCH  32  35
DOCKED: ATOM     35  C23 UNL     1      13.521  -0.595   2.552 +0.00 +0.00    +0.045 C  
DOCKED: BRANCH  35  36
DOCKED: ATOM     36  C24 UNL     1      12.907   0.807   2.717 +0.00 +0.00    +0.074 C  
DOCKED: ATOM     37  C25 UNL     1      13.968   1.907   2.747 +0.00 +0.00    +0.017 C  
DOCKED: BRANCH  36  38
DOCKED: ATOM     38  C26 UNL     1      11.869   1.067   1.636 +0.00 +0.00    +0.217 C  
DOCKED: ATOM     39  O6  UNL     1      11.580   2.214   1.294 +0.00 -0.00    -0.276 OA 
DOCKED: ATOM     40  N4  UNL     1      11.271  -0.055   1.108 +0.00 -0.00    -0.304 N  
DOCKED: ATOM     41  H41 UNL     1      11.247  -0.855   1.730 +0.00 +0.00    +0.149 HD 
DOCKED: BRANCH  40  42
DOCKED: ATOM     42  C27 UNL     1      10.112   0.087   0.231 +0.00 +0.00    +0.161 C  
DOCKED: BRANCH  42  43
DOCKED: ATOM     43  C28 UNL     1       8.949  -0.740   0.827 +0.00 +0.00    +0.234 C  
DOCKED: ATOM     44  O7  UNL     1       9.114  -1.555   1.733 +0.00 -0.00    -0.274 OA 
DOCKED: ATOM     45  N5  UNL     1       7.727  -0.508   0.236 +0.00 -0.00    -0.310 N  
DOCKED: ATOM     46  H43 UNL     1       7.630   0.275  -0.398 +0.00 +0.00    +0.149 HD 
DOCKED: BRANCH  45  47
DOCKED: ATOM     47  C29 UNL     1       6.510  -1.102   0.746 +0.00 +0.00    +0.139 C  
DOCKED: BRANCH  47  48
DOCKED: ATOM     48  C30 UNL     1       6.351  -2.524   0.271 +0.00 -0.00    -0.027 A  
DOCKED: ATOM     49  C31 UNL     1       7.223  -3.056  -0.682 +0.00 +0.00    +0.025 A  
DOCKED: ATOM     50  C32 UNL     1       7.055  -4.377  -1.077 +0.00 +0.00    +0.111 A  
DOCKED: ATOM     51  N6  UNL     1       6.096  -5.192  -0.593 +0.00 -0.00    -0.263 NA 
DOCKED: ATOM     52  C33 UNL     1       5.272  -4.665   0.335 +0.00 +0.00    +0.111 A  
DOCKED: ATOM     53  C34 UNL     1       5.360  -3.360   0.798 +0.00 +0.00    +0.025 A  
DOCKED: ENDBRANCH  47  48
DOCKED: ENDBRANCH  45  47
DOCKED: ENDBRANCH  42  43
DOCKED: BRANCH  42  54
DOCKED: ATOM     54  C35 UNL     1      10.412  -0.331  -1.227 +0.00 +0.00    +0.012 C  
DOCKED: ATOM     55  C36 UNL     1      10.273  -1.839  -1.469 +0.00 +0.00    +0.009 C  
DOCKED: ATOM     56  C37 UNL     1      11.806   0.140  -1.654 +0.00 +0.00    +0.009 C  
DOCKED: ENDBRANCH  42  54
DOCKED: ENDBRANCH  40  42
DOCKED: ENDBRANCH  36  38
DOCKED: ENDBRANCH  35  36
DOCKED: ENDBRANCH  32  35
DOCKED: ENDBRANCH   1  32
DOCKED: TORSDOF 21
DOCKED: TER
DOCKED: ENDMDL
________________________________________________________________________________


    FINAL DOCKED STATE:
    ________________________


Run:   3 / 20
Time taken for this run:   1.417s

DOCKED: MODEL        3
DOCKED: USER    Run = 3
DOCKED: USER
DOCKED: USER    Estimated Free Energy of Binding    =  +6.26 kcal/mol  [=(1)+(2)+(3)-(4)]
DOCKED: USER
DOCKED: USER    (1) Final Intermolecular Energy     =  +0.00 kcal/mol
DOCKED: USER        vdW + Hbond + desolv Energy     =  +0.00 kcal/mol
DOCKED: USER        Electrostatic Energy            =  +0.00 kcal/mol
DOCKED: USER        Moving Ligand-Fixed Receptor    =  +0.00 kcal/mol
DOCKED: USER        Moving Ligand-Moving Receptor   =  +0.00 kcal/mol
DOCKED: USER    (2) Final Total Internal Energy     = -14.69 kcal/mol
DOCKED: USER    (3) Torsional Free Energy           =  +6.26 kcal/mol
DOCKED: USER    (4) Unbound System's Energy         = -14.69 kcal/mol
DOCKED: USER
DOCKED: USER
DOCKED: REMARK  Name = ligands/ligand_11.pdb
DOCKED: REMARK  29 active torsions:
DOCKED: REMARK  status: ('A' for Active; 'I' for Inactive)
DOCKED: REMARK    1  A    between atoms: C1_1  and  C2_2
DOCKED: REMARK    2  A    between atoms: C2_2  and  C3_3
DOCKED: REMARK    3  A    between atoms: C3_3  and  C4_4
DOCKED: REMARK    4  A    between atoms: C4_4  and  N1_5
DOCKED: REMARK    5  A    between atoms: C4_4  and  C10_13
DOCKED: REMARK    6  A    between atoms: C5_6  and  O2_8
DOCKED: REMARK    7  A    between atoms: O2_8  and  C6_9
DOCKED: REMARK    8  A    between atoms: C6_9  and  C7_10
DOCKED: REMARK    9  A    between atoms: C6_9  and  C8_11
DOCKED: REMARK   10  A    between atoms: C6_9  and  C9_12
DOCKED: REMARK   11  A    between atoms: N2_15  and  C11_16
DOCKED: REMARK   12  A    between atoms: C11_16  and  C12_17
DOCKED: REMARK   13  A    between atoms: C11_16  and  C13_18
DOCKED: REMARK   14  A    between atoms: N3_20  and  C14_21
DOCKED: REMARK   15  A    between atoms: C14_21  and  C15_22
DOCKED: REMARK   16  A    between atoms: C14_21  and  C22_29
DOCKED: REMARK   17  A    between atoms: C15_22  and  C16_23
DOCKED: REMARK   18  A    between atoms: C22_29  and  O5_30
DOCKED: REMARK   19  A    between atoms: C22_29  and  C23_31
DOCKED: REMARK   20  A    between atoms: C23_31  and  C24_32
DOCKED: REMARK   21  A    between atoms: C24_32  and  C25_33
DOCKED: REMARK   22  A    between atoms: C24_32  and  C26_34
DOCKED: REMARK   23  A    between atoms: N4_36  and  C27_37
DOCKED: REMARK   24  A    between atoms: C27_37  and  C28_38
DOCKED: REMARK   25  A    between atoms: C27_37  and  C35_48
DOCKED: REMARK   26  A    between atoms: N5_40  and  C29_41
DOCKED: REMARK   27  A    between atoms: C29_41  and  C30_42
DOCKED: REMARK   28  A    between atoms: C35_48  and  C36_49
DOCKED: REMARK   29  A    between atoms: C35_48  and  C37_50
DOCKED: REMARK                            x       y       z     vdW  Elec       q    Type
DOCKED: REMARK                         _______ _______ _______ _____ _____    ______ ____
DOCKED: USER                              x       y       z     vdW  Elec       q    Type
DOCKED: USER                           _______ _______ _______ _____ _____    ______ ____
DOCKED: ROOT
DOCKED: ATOM      1  C14 UNL     1       7.083  -7.869  -3.549 +0.00 +0.00    +0.106 C  
DOCKED: ENDROOT
DOCKED: BRANCH   1   4
DOCKED: ATOM      2  C13 UNL     1       5.587  -6.375  -2.234 +0.00 +0.00    +0.233 C  
DOCKED: ATOM      3  O4  UNL     1       6.397  -5.449  -2.224 +0.00 -0.00    -0.274 OA 
DOCKED: ATOM      4  N3  UNL     1       5.812  -7.560  -2.897 +0.00 -0.00    -0.308 N  
DOCKED: ATOM      5  H24 UNL     1       5.088  -8.269  -2.893 +0.00 +0.00    +0.149 HD 
DOCKED: BRANCH   2   6
DOCKED: ATOM      6  C11 UNL     1       4.217  -6.273  -1.539 +0.00 +0.00    +0.156 C  
DOCKED: ATOM      7  C12 UNL     1       4.378  -6.402  -0.032 +0.00 +0.00    +0.038 C  
DOCKED: BRANCH   6  10
DOCKED: ATOM      8  C10 UNL     1       2.020  -7.313  -1.937 +0.00 +0.00    +0.234 C  
DOCKED: ATOM      9  O3  UNL     1       1.433  -6.477  -1.249 +0.00 -0.00    -0.274 OA 
DOCKED: ATOM     10  N2  UNL     1       3.393  -7.355  -2.061 +0.00 -0.00    -0.303 N  
DOCKED: ATOM     11  H19 UNL     1       3.774  -7.848  -2.861 +0.00 +0.00    +0.149 HD 
DOCKED: BRANCH   8  12
DOCKED: ATOM     12  C4  UNL     1       1.274  -8.375  -2.769 +0.00 +0.00    +0.162 C  
DOCKED: BRANCH  12  13
DOCKED: ATOM     13  N1  UNL     1       1.427  -9.654  -2.097 +0.00 -0.00    -0.270 N  
DOCKED: ATOM     14  C5  UNL     1       2.668 -10.199  -1.949 +0.00 +0.00    +0.401 C  
DOCKED: ATOM     15  O1  UNL     1       3.652  -9.871  -2.587 +0.00 -0.00    -0.226 OA 
DOCKED: ATOM     16  H9  UNL     1       0.838  -9.821  -1.291 +0.00 +0.00    +0.153 HD 
DOCKED: BRANCH  14  17
DOCKED: ATOM     17  O2  UNL     1       2.620 -11.127  -0.968 +0.00 -0.00    -0.445 OA 
DOCKED: BRANCH  17  18
DOCKED: ATOM     18  C6  UNL     1       2.543 -10.726   0.424 +0.00 +0.00    +0.107 C  
DOCKED: ATOM     19  C7  UNL     1       1.088 -10.704   0.912 +0.00 +0.00    +0.055 C  
DOCKED: ATOM     20  C8  UNL     1       3.243  -9.383   0.662 +0.00 +0.00    +0.055 C  
DOCKED: ATOM     21  C9  UNL     1       3.307 -11.818   1.187 +0.00 +0.00    +0.055 C  
DOCKED: ENDBRANCH  17  18
DOCKED: ENDBRANCH  14  17
DOCKED: ENDBRANCH  12  13
DOCKED: BRANCH  12  22
DOCKED: ATOM     22  C3  UNL     1      -0.200  -7.977  -2.887 +0.00 +0.00    +0.031 C  
DOCKED: BRANCH  22  24
DOCKED: ATOM     23  C1  UNL     1       0.683  -6.799  -4.935 +0.00 +0.00    +0.004 C  
DOCKED: ATOM     24  C2  UNL     1      -0.541  -7.406  -4.265 +0.00 -0.00    -0.001 C  
DOCKED: ENDBRANCH  22  24
DOCKED: ENDBRANCH  12  22
DOCKED: ENDBRANCH   8  12
DOCKED: ENDBRANCH   6  10
DOCKED: ENDBRANCH   2   6
DOCKED: ENDBRANCH   1   4
DOCKED: BRANCH   1  25
DOCKED: ATOM     25  C15 UNL     1       8.154  -8.284  -2.509 +0.00 +0.00    +0.060 C  
DOCKED: BRANCH  25  26
DOCKED: ATOM     26  C16 UNL     1       7.563  -9.138  -1.403 +0.00 -0.00    -0.046 A  
DOCKED: ATOM     27  C17 UNL     1       7.409  -8.612  -0.112 +0.00 +0.00    +0.004 A  
DOCKED: ATOM     28  C18 UNL     1       6.827  -9.377   0.901 +0.00 +0.00    +0.000 A  
DOCKED: ATOM     29  C19 UNL     1       6.392 -10.672   0.633 +0.00 +0.00    +0.000 A  
DOCKED: ATOM     30  C20 UNL     1       6.541 -11.206  -0.644 +0.00 +0.00    +0.000 A  
DOCKED: ATOM     31  C21 UNL     1       7.125 -10.444  -1.658 +0.00 +0.00    +0.004 A  
DOCKED: ENDBRANCH  25  26
DOCKED: ENDBRANCH   1  25
DOCKED: BRANCH   1  32
DOCKED: ATOM     32  C22 UNL     1       6.919  -8.894  -4.711 +0.00 +0.00    +0.136 C  
DOCKED: BRANCH  32  33
DOCKED: ATOM     33  O5  UNL     1       5.875  -9.824  -4.383 +0.00 -0.00    -0.390 OA 
DOCKED: ATOM     34  H34 UNL     1       5.133  -9.306  -4.014 +0.00 +0.00    +0.210 HD 
DOCKED: ENDBRANCH  32  33
DOCKED: BRANCH  32  35
DOCKED: ATOM     35  C23 UNL     1       6.571  -8.280  -6.079 +0.00 +0.00    +0.045 C  
DOCKED: BRANCH  35  36
DOCKED: ATOM     36  C24 UNL     1       5.425  -7.258  -5.996 +0.00 +0.00    +0.074 C  
DOCKED: ATOM     37  C25 UNL     1       5.317  -6.400  -7.257 +0.00 +0.00    +0.017 C  
DOCKED: BRANCH  36  38
DOCKED: ATOM     38  C26 UNL     1       4.108  -7.953  -5.684 +0.00 +0.00    +0.217 C  
DOCKED: ATOM     39  O6  UNL     1       3.703  -8.060  -4.527 +0.00 -0.00    -0.276 OA 
DOCKED: ATOM     40  N4  UNL     1       3.439  -8.466  -6.772 +0.00 -0.00    -0.304 N  
DOCKED: ATOM     41  H41 UNL     1       4.031  -8.710  -7.558 +0.00 +0.00    +0.149 HD 
DOCKED: BRANCH  40  42
DOCKED: ATOM     42  C27 UNL     1       2.286  -9.339  -6.567 +0.00 +0.00    +0.161 C  
DOCKED: BRANCH  42  43
DOCKED: ATOM     43  C28 UNL     1       2.799 -10.789  -6.403 +0.00 +0.00    +0.234 C  
DOCKED: ATOM     44  O7  UNL     1       2.546 -11.676  -7.218 +0.00 -0.00    -0.274 OA 
DOCKED: ATOM     45  N5  UNL     1       3.529 -11.006  -5.256 +0.00 -0.00    -0.310 N  
DOCKED: ATOM     46  H43 UNL     1       3.825 -10.210  -4.706 +0.00 +0.00    +0.149 HD 
DOCKED: BRANCH  45  47
DOCKED: ATOM     47  C29 UNL     1       4.187 -12.270  -5.000 +0.00 +0.00    +0.139 C  
DOCKED: BRANCH  47  48
DOCKED: ATOM     48  C30 UNL     1       3.705 -12.890  -3.714 +0.00 -0.00    -0.027 A  
DOCKED: ATOM     49  C31 UNL     1       2.356 -13.210  -3.542 +0.00 +0.00    +0.025 A  
DOCKED: ATOM     50  C32 UNL     1       1.957 -13.800  -2.350 +0.00 +0.00    +0.111 A  
DOCKED: ATOM     51  N6  UNL     1       2.796 -14.092  -1.335 +0.00 -0.00    -0.263 NA 
DOCKED: ATOM     52  C33 UNL     1       4.096 -13.789  -1.526 +0.00 +0.00    +0.111 A  
DOCKED: ATOM     53  C34 UNL     1       4.595 -13.203  -2.680 +0.00 +0.00    +0.025 A  
DOCKED: ENDBRANCH  47  48
DOCKED: ENDBRANCH  45  47
DOCKED: ENDBRANCH  42  43
DOCKED: BRANCH  42  54
DOCKED: ATOM     54  C35 UNL     1       1.247  -9.233  -7.707 +0.00 +0.00    +0.012 C  
DOCKED: ATOM     55  C36 UNL     1       1.212  -7.851  -8.372 +0.00 +0.00    +0.009 C  
DOCKED: ATOM     56  C37 UNL     1      -0.152  -9.607  -7.207 +0.00 +0.00    +0.009 C  
DOCKED: ENDBRANCH  42  54
DOCKED: ENDBRANCH  40  42
DOCKED: ENDBRANCH  36  38
DOCKED: ENDBRANCH  35  36
DOCKED: ENDBRANCH  32  35
DOCKED: ENDBRANCH   1  32
DOCKED: TORSDOF 21
DOCKED: TER
DOCKED: ENDMDL
________________________________________________________________________________


    FINAL DOCKED STATE:
    ________________________


Run:   4 / 20
Time taken for this run:   1.417s

DOCKED: MODEL        4
DOCKED: USER    Run = 4
DOCKED: USER
DOCKED: USER    Estimated Free Energy of Binding    =  +6.26 kcal/mol  [=(1)+(2)+(3)-(4)]
DOCKED: USER
DOCKED: USER    (1) Final Intermolecular Energy     =  +0.00 kcal/mol
DOCKED: USER        vdW + Hbond + desolv Energy     =  +0.00 kcal/mol
DOCKED: USER        Electrostatic Energy            =  +0.00 kcal/mol
DOCKED: USER        Moving Ligand-Fixed Receptor    =  +0.00 kcal/mol
DOCKED: USER        Moving Ligand-Moving Receptor   =  +0.00 kcal/mol
DOCKED: USER    (2) Final Total Internal Energy     = -14.75 kcal/mol
DOCKED: USER    (3) Torsional Free Energy           =  +6.26 kcal/mol
DOCKED: USER    (4) Unbound System's Energy         = -14.75 kcal/mol
DOCKED: USER
DOCKED: USER
DOCKED: REMARK  Name = ligands/ligand_11.pdb
DOCKED: REMARK  29 active torsions:
DOCKED: REMARK  status: ('A' for Active; 'I' for Inactive)
DOCKED: REMARK    1  A    between atoms: C1_1  and  C2_2
DOCKED: REMARK    2  A    between atoms: C2_2  and  C3_3
DOCKED: REMARK    3  A    between atoms: C3_3  and  C4_4
DOCKED: REMARK    4  A    between atoms: C4_4  and  N1_5
DOCKED: REMARK    5  A    between atoms: C4_4  and  C10_13
DOCKED: REMARK    6  A    between atoms: C5_6  and  O2_8
DOCKED: REMARK    7  A    between atoms: O2_8  and  C6_9
DOCKED: REMARK    8  A    between atoms: C6_9  and  C7_10
DOCKED: REMARK    9  A    between atoms: C6_9  and  C8_11
DOCKED: REMARK   10  A    between atoms: C6_9  and  C9_12
DOCKED: REMARK   11  A    between atoms: N2_15  and  C11_16
DOCKED: REMARK   12  A    between atoms: C11_16  and  C12_17
DOCKED: REMARK   13  A    between atoms: C11_16  and  C13_18
DOCKED: REMARK   14  A    between atoms: N3_20  and  C14_21
DOCKED: REMARK   15  A    between atoms: C14_21  and  C15_22
DOCKED: REMARK   16  A    between atoms: C14_21  and  C22_29
DOCKED: REMARK   17  A    between atoms: C15_22  and  C16_23
DOCKED: REMARK   18  A    between atoms: C22_29  and  O5_30
DOCKED: REMARK   19  A    between atoms: C22_29  and  C23_31
DOCKED: REMARK   20  A    between atoms: C23_31  and  C24_32
DOCKED: REMARK   21  A    between atoms: C24_32  and  C25_33
DOCKED: REMARK   22  A    between atoms: C24_32  and  C26_34
DOCKED: REMARK   23  A    between atoms: N4_36  and  C27_37
DOCKED: REMARK   24  A    between atoms: C27_37  and  C28_38
DOCKED: REMARK   25  A    between atoms: C27_37  and  C35_48
DOCKED: REMARK   26  A    between atoms: N5_40  and  C29_41
DOCKED: REMARK   27  A    between atoms: C29_41  and  C30_42
DOCKED: REMARK   28  A    between atoms: C35_48  and  C36_49
DOCKED: REMARK   29  A    between atoms: C35_48  and  C37_50
DOCKED: REMARK                            x       y       z     vdW  Elec       q    Type
DOCKED: REMARK                         _______ _______ _______ _____ _____    ______ ____
DOCKED: USER                              x       y       z     vdW  Elec       q    Type
DOCKED: USER                           _______ _______ _______ _____ _____    ______ ____
DOCKED: ROOT
DOCKED: ATOM      1  C14 UNL     1      13.041  -6.979  -0.982 +0.00 +0.00    +0.106 C  
DOCKED: ENDROOT
DOCKED: BRANCH   1   4
DOCKED: ATOM      2  C13 UNL     1      11.987  -9.225  -1.191 +0.00 +0.00    +0.233 C  
DOCKED: ATOM      3  O4  UNL     1      10.885  -8.763  -1.483 +0.00 -0.00    -0.274 OA 
DOCKED: ATOM      4  N3  UNL     1      13.098  -8.439  -0.986 +0.00 -0.00    -0.308 N  
DOCKED: ATOM      5  H24 UNL     1      13.984  -8.887  -0.780 +0.00 +0.00    +0.149 HD 
DOCKED: BRANCH   2   6
DOCKED: ATOM      6  C11 UNL     1      12.235 -10.740  -1.072 +0.00 +0.00    +0.156 C  
DOCKED: ATOM      7  C12 UNL     1      10.945 -11.460  -0.709 +0.00 +0.00    +0.038 C  
DOCKED: BRANCH   6  10
DOCKED: ATOM      8  C10 UNL     1      14.343 -11.718  -0.256 +0.00 +0.00    +0.234 C  
DOCKED: ATOM      9  O3  UNL     1      14.467 -12.433  -1.252 +0.00 -0.00    -0.274 OA 
DOCKED: ATOM     10  N2  UNL     1      13.237 -10.927  -0.031 +0.00 -0.00    -0.303 N  
DOCKED: ATOM     11  H19 UNL     1      13.339 -10.157   0.621 +0.00 +0.00    +0.149 HD 
DOCKED: BRANCH   8  12
DOCKED: ATOM     12  C4  UNL     1      15.439 -11.601   0.822 +0.00 +0.00    +0.162 C  
DOCKED: BRANCH  12  13
DOCKED: ATOM     13  N1  UNL     1      16.285 -10.472   0.476 +0.00 -0.00    -0.270 N  
DOCKED: ATOM     14  C5  UNL     1      15.927  -9.214   0.859 +0.00 +0.00    +0.401 C  
DOCKED: ATOM     15  O1  UNL     1      14.810  -8.885   1.213 +0.00 -0.00    -0.226 OA 
DOCKED: ATOM     16  H9  UNL     1      17.285 -10.617   0.525 +0.00 +0.00    +0.153 HD 
DOCKED: BRANCH  14  17
DOCKED: ATOM     17  O2  UNL     1      17.019  -8.418   0.808 +0.00 -0.00    -0.445 OA 
DOCKED: BRANCH  17  18
DOCKED: ATOM     18  C6  UNL     1      17.697  -8.016   2.025 +0.00 +0.00    +0.107 C  
DOCKED: ATOM     19  C7  UNL     1      19.016  -8.780   2.200 +0.00 +0.00    +0.055 C  
DOCKED: ATOM     20  C8  UNL     1      16.788  -8.164   3.251 +0.00 +0.00    +0.055 C  
DOCKED: ATOM     21  C9  UNL     1      18.008  -6.526   1.825 +0.00 +0.00    +0.055 C  
DOCKED: ENDBRANCH  17  18
DOCKED: ENDBRANCH  14  17
DOCKED: ENDBRANCH  12  13
DOCKED: BRANCH  12  22
DOCKED: ATOM     22  C3  UNL     1      14.780 -11.410   2.191 +0.00 +0.00    +0.031 C  
DOCKED: BRANCH  22  24
DOCKED: ATOM     23  C1  UNL     1      15.290 -10.892   4.607 +0.00 +0.00    +0.004 C  
DOCKED: ATOM     24  C2  UNL     1      15.769 -11.593   3.344 +0.00 -0.00    -0.001 C  
DOCKED: ENDBRANCH  22  24
DOCKED: ENDBRANCH  12  22
DOCKED: ENDBRANCH   8  12
DOCKED: ENDBRANCH   6  10
DOCKED: ENDBRANCH   2   6
DOCKED: ENDBRANCH   1   4
DOCKED: BRANCH   1  25
DOCKED: ATOM     25  C15 UNL     1      12.052  -6.465   0.095 +0.00 +0.00    +0.060 C  
DOCKED: BRANCH  25  26
DOCKED: ATOM     26  C16 UNL     1      12.418  -6.965   1.479 +0.00 -0.00    -0.046 A  
DOCKED: ATOM     27  C17 UNL     1      11.852  -8.149   1.974 +0.00 +0.00    +0.004 A  
DOCKED: ATOM     28  C18 UNL     1      12.216  -8.638   3.230 +0.00 +0.00    +0.000 A  
DOCKED: ATOM     29  C19 UNL     1      13.149  -7.951   4.003 +0.00 +0.00    +0.000 A  
DOCKED: ATOM     30  C20 UNL     1      13.717  -6.773   3.522 +0.00 +0.00    +0.000 A  
DOCKED: ATOM     31  C21 UNL     1      13.353  -6.281   2.267 +0.00 +0.00    +0.004 A  
DOCKED: ENDBRANCH  25  26
DOCKED: ENDBRANCH   1  25
DOCKED: BRANCH   1  32
DOCKED: ATOM     32  C22 UNL     1      14.454  -6.331  -0.884 +0.00 +0.00    +0.136 C  
DOCKED: BRANCH  32  33
DOCKED: ATOM     33  O5  UNL     1      15.454  -7.362  -0.905 +0.00 -0.00    -0.390 OA 
DOCKED: ATOM     34  H34 UNL     1      15.863  -7.384  -0.018 +0.00 +0.00    +0.210 HD 
DOCKED: ENDBRANCH  32  33
DOCKED: BRANCH  32  35
DOCKED: ATOM     35  C23 UNL     1      14.797  -5.338  -2.009 +0.00 +0.00    +0.045 C  
DOCKED: BRANCH  35  36
DOCKED: ATOM     36  C24 UNL     1      16.238  -4.807  -1.912 +0.00 +0.00    +0.074 C  
DOCKED: ATOM     37  C25 UNL     1      16.604  -4.371  -0.493 +0.00 +0.00    +0.017 C  
DOCKED: BRANCH  36  38
DOCKED: ATOM     38  C26 UNL     1      17.224  -5.832  -2.449 +0.00 +0.00    +0.217 C  
DOCKED: ATOM     39  O6  UNL     1      17.374  -5.999  -3.659 +0.00 -0.00    -0.276 OA 
DOCKED: ATOM     40  N4  UNL     1      17.896  -6.562  -1.495 +0.00 -0.00    -0.304 N  
DOCKED: ATOM     41  H41 UNL     1      17.405  -6.662  -0.614 +0.00 +0.00    +0.149 HD 
DOCKED: BRANCH  40  42
DOCKED: ATOM     42  C27 UNL     1      18.696  -7.716  -1.895 +0.00 +0.00    +0.161 C  
DOCKED: BRANCH  42  43
DOCKED: ATOM     43  C28 UNL     1      17.768  -8.952  -1.954 +0.00 +0.00    +0.234 C  
DOCKED: ATOM     44  O7  UNL     1      18.065 -10.027  -1.435 +0.00 -0.00    -0.274 OA 
DOCKED: ATOM     45  N5  UNL     1      16.603  -8.755  -2.662 +0.00 -0.00    -0.310 N  
DOCKED: ATOM     46  H43 UNL     1      16.351  -7.813  -2.936 +0.00 +0.00    +0.149 HD 
DOCKED: BRANCH  45  47
DOCKED: ATOM     47  C29 UNL     1      15.566  -9.762  -2.717 +0.00 +0.00    +0.139 C  
DOCKED: BRANCH  47  48
DOCKED: ATOM     48  C30 UNL     1      14.443  -9.345  -3.632 +0.00 -0.00    -0.027 A  
DOCKED: ATOM     49  C31 UNL     1      13.517 -10.284  -4.094 +0.00 +0.00    +0.025 A  
DOCKED: ATOM     50  C32 UNL     1      12.485  -9.854  -4.918 +0.00 +0.00    +0.111 A  
DOCKED: ATOM     51  N6  UNL     1      12.313  -8.574  -5.305 +0.00 -0.00    -0.263 NA 
DOCKED: ATOM     52  C33 UNL     1      13.209  -7.680  -4.839 +0.00 +0.00    +0.111 A  
DOCKED: ATOM     53  C34 UNL     1      14.270  -8.008  -4.008 +0.00 +0.00    +0.025 A  
DOCKED: ENDBRANCH  47  48
DOCKED: ENDBRANCH  45  47
DOCKED: ENDBRANCH  42  43
DOCKED: BRANCH  42  54
DOCKED: ATOM     54  C35 UNL     1      19.903  -7.960  -0.960 +0.00 +0.00    +0.012 C  
DOCKED: ATOM     55  C36 UNL     1      20.559  -6.665  -0.463 +0.00 +0.00    +0.009 C  
DOCKED: ATOM     56  C37 UNL     1      20.950  -8.848  -1.641 +0.00 +0.00    +0.009 C  
DOCKED: ENDBRANCH  42  54
DOCKED: ENDBRANCH  40  42
DOCKED: ENDBRANCH  36  38
DOCKED: ENDBRANCH  35  36
DOCKED: ENDBRANCH  32  35
DOCKED: ENDBRANCH   1  32
DOCKED: TORSDOF 21
DOCKED: TER
DOCKED: ENDMDL
________________________________________________________________________________


    FINAL DOCKED STATE:
    ________________________


Run:   5 / 20
Time taken for this run:   1.417s

DOCKED: MODEL        5
DOCKED: USER    Run = 5
DOCKED: USER
DOCKED: USER    Estimated Free Energy of Binding    =  +6.26 kcal/mol  [=(1)+(2)+(3)-(4)]
DOCKED: USER
DOCKED: USER    (1) Final Intermolecular Energy     =  +0.00 kcal/mol
DOCKED: USER        vdW + Hbond + desolv Energy     =  +0.00 kcal/mol
DOCKED: USER        Electrostatic Energy            =  +0.00 kcal/mol
DOCKED: USER        Moving Ligand-Fixed Receptor    =  +0.00 kcal/mol
DOCKED: USER        Moving Ligand-Moving Receptor   =  +0.00 kcal/mol
DOCKED: USER    (2) Final Total Internal Energy     = -14.70 kcal/mol
DOCKED: USER    (3) Torsional Free Energy           =  +6.26 kcal/mol
DOCKED: USER    (4) Unbound System's Energy         = -14.70 kcal/mol
DOCKED: USER
DOCKED: USER
DOCKED: REMARK  Name = ligands/ligand_11.pdb
DOCKED: REMARK  29 active torsions:
DOCKED: REMARK  status: ('A' for Active; 'I' for Inactive)
DOCKED: REMARK    1  A    between atoms: C1_1  and  C2_2
DOCKED: REMARK    2  A    between atoms: C2_2  and  C3_3
DOCKED: REMARK    3  A    between atoms: C3_3  and  C4_4
DOCKED: REMARK    4  A    between atoms: C4_4  and  N1_5
DOCKED: REMARK    5  A    between atoms: C4_4  and  C10_13
DOCKED: REMARK    6  A    between atoms: C5_6  and  O2_8
DOCKED: REMARK    7  A    between atoms: O2_8  and  C6_9
DOCKED: REMARK    8  A    between atoms: C6_9  and  C7_10
DOCKED: REMARK    9  A    between atoms: C6_9  and  C8_11
DOCKED: REMARK   10  A    between atoms: C6_9  and  C9_12
DOCKED: REMARK   11  A    between atoms: N2_15  and  C11_16
DOCKED: REMARK   12  A    between atoms: C11_16  and  C12_17
DOCKED: REMARK   13  A    between atoms: C11_16  and  C13_18
DOCKED: REMARK   14  A    between atoms: N3_20  and  C14_21
DOCKED: REMARK   15  A    between atoms: C14_21  and  C15_22
DOCKED: REMARK   16  A    between atoms: C14_21  and  C22_29
DOCKED: REMARK   17  A    between atoms: C15_22  and  C16_23
DOCKED: REMARK   18  A    between atoms: C22_29  and  O5_30
DOCKED: REMARK   19  A    between atoms: C22_29  and  C23_31
DOCKED: REMARK   20  A    between atoms: C23_31  and  C24_32
DOCKED: REMARK   21  A    between atoms: C24_32  and  C25_33
DOCKED: REMARK   22  A    between atoms: C24_32  and  C26_34
DOCKED: REMARK   23  A    between atoms: N4_36  and  C27_37
DOCKED: REMARK   24  A    between atoms: C27_37  and  C28_38
DOCKED: REMARK   25  A    between atoms: C27_37  and  C35_48
DOCKED: REMARK   26  A    between atoms: N5_40  and  C29_41
DOCKED: REMARK   27  A    between atoms: C29_41  and  C30_42
DOCKED: REMARK   28  A    between atoms: C35_48  and  C36_49
DOCKED: REMARK   29  A    between atoms: C35_48  and  C37_50
DOCKED: REMARK                            x       y       z     vdW  Elec       q    Type
DOCKED: REMARK                         _______ _______ _______ _____ _____    ______ ____
DOCKED: USER                              x       y       z     vdW  Elec       q    Type
DOCKED: USER                           _______ _______ _______ _____ _____    ______ ____
DOCKED: ROOT
DOCKED: ATOM      1  C14 UNL     1       5.509  -5.250  -4.710 +0.00 +0.00    +0.106 C  
DOCKED: ENDROOT
DOCKED: BRANCH   1   4
DOCKED: ATOM      2  C13 UNL     1       7.412  -4.036  -3.658 +0.00 +0.00    +0.233 C  
DOCKED: ATOM      3  O4  UNL     1       7.985  -5.072  -3.324 +0.00 -0.00    -0.274 OA 
DOCKED: ATOM      4  N3  UNL     1       6.240  -4.028  -4.379 +0.00 -0.00    -0.308 N  
DOCKED: ATOM      5  H24 UNL     1       5.838  -3.138  -4.651 +0.00 +0.00    +0.149 HD 
DOCKED: BRANCH   2   6
DOCKED: ATOM      6  C11 UNL     1       7.984  -2.643  -3.337 +0.00 +0.00    +0.156 C  
DOCKED: ATOM      7  C12 UNL     1       7.754  -2.302  -1.873 +0.00 +0.00    +0.038 C  
DOCKED: BRANCH   6  10
DOCKED: ATOM      8  C10 UNL     1       7.834  -0.444  -4.436 +0.00 +0.00    +0.234 C  
DOCKED: ATOM      9  O3  UNL     1       8.805  -0.003  -3.819 +0.00 -0.00    -0.274 OA 
DOCKED: ATOM     10  N2  UNL     1       7.296  -1.691  -4.199 +0.00 -0.00    -0.303 N  
DOCKED: ATOM     11  H19 UNL     1       6.724  -2.099  -4.930 +0.00 +0.00    +0.149 HD 
DOCKED: BRANCH   8  12
DOCKED: ATOM     12  C4  UNL     1       7.146   0.341  -5.571 +0.00 +0.00    +0.162 C  
DOCKED: BRANCH  12  13
DOCKED: ATOM     13  N1  UNL     1       5.878   0.836  -5.063 +0.00 -0.00    -0.270 N  
DOCKED: ATOM     14  C5  UNL     1       4.912  -0.043  -4.676 +0.00 +0.00    +0.401 C  
DOCKED: ATOM     15  O1  UNL     1       4.876  -1.220  -4.987 +0.00 -0.00    -0.226 OA 
DOCKED: ATOM     16  H9  UNL     1       5.913   1.653  -4.467 +0.00 +0.00    +0.153 HD 
DOCKED: BRANCH  14  17
DOCKED: ATOM     17  O2  UNL     1       4.034   0.602  -3.877 +0.00 -0.00    -0.445 OA 
DOCKED: BRANCH  17  18
DOCKED: ATOM     18  C6  UNL     1       4.397   0.961  -2.519 +0.00 +0.00    +0.107 C  
DOCKED: ATOM     19  C7  UNL     1       4.930   2.399  -2.454 +0.00 +0.00    +0.055 C  
DOCKED: ATOM     20  C8  UNL     1       5.389  -0.042  -1.919 +0.00 +0.00    +0.055 C  
DOCKED: ATOM     21  C9  UNL     1       3.083   0.882  -1.729 +0.00 +0.00    +0.055 C  
DOCKED: ENDBRANCH  17  18
DOCKED: ENDBRANCH  14  17
DOCKED: ENDBRANCH  12  13
DOCKED: BRANCH  12  22
DOCKED: ATOM     22  C3  UNL     1       8.059   1.487  -6.015 +0.00 +0.00    +0.031 C  
DOCKED: BRANCH  22  24
DOCKED: ATOM     23  C1  UNL     1       9.009  -0.284  -7.541 +0.00 +0.00    +0.004 C  
DOCKED: ATOM     24  C2  UNL     1       8.741   1.203  -7.355 +0.00 -0.00    -0.001 C  
DOCKED: ENDBRANCH  22  24
DOCKED: ENDBRANCH  12  22
DOCKED: ENDBRANCH   8  12
DOCKED: ENDBRANCH   6  10
DOCKED: ENDBRANCH   2   6
DOCKED: ENDBRANCH   1   4
DOCKED: BRANCH   1  25
DOCKED: ATOM     25  C15 UNL     1       4.687  -5.750  -3.497 +0.00 +0.00    +0.060 C  
DOCKED: BRANCH  25  26
DOCKED: ATOM     26  C16 UNL     1       4.088  -4.600  -2.709 +0.00 -0.00    -0.046 A  
DOCKED: ATOM     27  C17 UNL     1       4.603  -4.265  -1.449 +0.00 +0.00    +0.004 A  
DOCKED: ATOM     28  C18 UNL     1       4.085  -3.181  -0.737 +0.00 +0.00    +0.000 A  
DOCKED: ATOM     29  C19 UNL     1       3.051  -2.421  -1.278 +0.00 +0.00    +0.000 A  
DOCKED: ATOM     30  C20 UNL     1       2.531  -2.745  -2.528 +0.00 +0.00    +0.000 A  
DOCKED: ATOM     31  C21 UNL     1       3.045  -3.830  -3.241 +0.00 +0.00    +0.004 A  
DOCKED: ENDBRANCH  25  26
DOCKED: ENDBRANCH   1  25
DOCKED: BRANCH   1  32
DOCKED: ATOM     32  C22 UNL     1       4.665  -5.101  -6.011 +0.00 +0.00    +0.136 C  
DOCKED: BRANCH  32  33
DOCKED: ATOM     33  O5  UNL     1       4.181  -3.753  -6.114 +0.00 -0.00    -0.390 OA 
DOCKED: ATOM     34  H34 UNL     1       4.911  -3.163  -5.845 +0.00 +0.00    +0.210 HD 
DOCKED: ENDBRANCH  32  33
DOCKED: BRANCH  32  35
DOCKED: ATOM     35  C23 UNL     1       5.417  -5.419  -7.317 +0.00 +0.00    +0.045 C  
DOCKED: BRANCH  35  36
DOCKED: ATOM     36  C24 UNL     1       6.790  -4.730  -7.393 +0.00 +0.00    +0.074 C  
DOCKED: ATOM     37  C25 UNL     1       7.668  -5.303  -8.505 +0.00 +0.00    +0.017 C  
DOCKED: BRANCH  36  38
DOCKED: ATOM     38  C26 UNL     1       6.627  -3.224  -7.535 +0.00 +0.00    +0.217 C  
DOCKED: ATOM     39  O6  UNL     1       6.609  -2.490  -6.548 +0.00 -0.00    -0.276 OA 
DOCKED: ATOM     40  N4  UNL     1       6.475  -2.766  -8.824 +0.00 -0.00    -0.304 N  
DOCKED: ATOM     41  H41 UNL     1       6.074  -3.438  -9.469 +0.00 +0.00    +0.149 HD 
DOCKED: BRANCH  40  42
DOCKED: ATOM     42  C27 UNL     1       6.092  -1.376  -9.058 +0.00 +0.00    +0.161 C  
DOCKED: BRANCH  42  43
DOCKED: ATOM     43  C28 UNL     1       4.549  -1.283  -9.008 +0.00 +0.00    +0.234 C  
DOCKED: ATOM     44  O7  UNL     1       3.871  -1.009  -9.997 +0.00 -0.00    -0.274 OA 
DOCKED: ATOM     45  N5  UNL     1       4.008  -1.498  -7.760 +0.00 -0.00    -0.310 N  
DOCKED: ATOM     46  H43 UNL     1       4.602  -1.861  -7.024 +0.00 +0.00    +0.149 HD 
DOCKED: BRANCH  45  47
DOCKED: ATOM     47  C29 UNL     1       2.577  -1.569  -7.552 +0.00 +0.00    +0.139 C  
DOCKED: BRANCH  47  48
DOCKED: ATOM     48  C30 UNL     1       2.123  -0.578  -6.511 +0.00 -0.00    -0.027 A  
DOCKED: ATOM     49  C31 UNL     1       2.292   0.794  -6.714 +0.00 +0.00    +0.025 A  
DOCKED: ATOM     50  C32 UNL     1       1.840   1.674  -5.740 +0.00 +0.00    +0.111 A  
DOCKED: ATOM     51  N6  UNL     1       1.239   1.288  -4.596 +0.00 -0.00    -0.263 NA 
DOCKED: ATOM     52  C33 UNL     1       1.073  -0.039  -4.423 +0.00 +0.00    +0.111 A  
DOCKED: ATOM     53  C34 UNL     1       1.485  -0.997  -5.338 +0.00 +0.00    +0.025 A  
DOCKED: ENDBRANCH  47  48
DOCKED: ENDBRANCH  45  47
DOCKED: ENDBRANCH  42  43
DOCKED: BRANCH  42  54
DOCKED: ATOM     54  C35 UNL     1       6.649  -0.819 -10.389 +0.00 +0.00    +0.012 C  
DOCKED: ATOM     55  C36 UNL     1       8.010  -1.411 -10.774 +0.00 +0.00    +0.009 C  
DOCKED: ATOM     56  C37 UNL     1       6.736   0.710 -10.347 +0.00 +0.00    +0.009 C  
DOCKED: ENDBRANCH  42  54
DOCKED: ENDBRANCH  40  42
DOCKED: ENDBRANCH  36  38
DOCKED: ENDBRANCH  35  36
DOCKED: ENDBRANCH  32  35
DOCKED: ENDBRANCH   1  32
DOCKED: TORSDOF 21
DOCKED: TER
DOCKED: ENDMDL
________________________________________________________________________________


    FINAL DOCKED STATE:
    ________________________


Run:   6 / 20
Time taken for this run:   1.417s

DOCKED: MODEL        6
DOCKED: USER    Run = 6
DOCKED: USER
DOCKED: USER    Estimated Free Energy of Binding    =  +6.26 kcal/mol  [=(1)+(2)+(3)-(4)]
DOCKED: USER
DOCKED: USER    (1) Final Intermolecular Energy     =  +0.00 kcal/mol
DOCKED: USER        vdW + Hbond + desolv Energy     =  +0.00 kcal/mol
DOCKED: USER        Electrostatic Energy            =  +0.00 kcal/mol
DOCKED: USER        Moving Ligand-Fixed Receptor    =  +0.00 kcal/mol
DOCKED: USER        Moving Ligand-Moving Receptor   =  +0.00 kcal/mol
DOCKED: USER    (2) Final Total Internal Energy     = -14.75 kcal/mol
DOCKED: USER    (3) Torsional Free Energy           =  +6.26 kcal/mol
DOCKED: USER    (4) Unbound System's Energy         = -14.75 kcal/mol
DOCKED: USER
DOCKED: USER
DOCKED: REMARK  Name = ligands/ligand_11.pdb
DOCKED: REMARK  29 active torsions:
DOCKED: REMARK  status: ('A' for Active; 'I' for Inactive)
DOCKED: REMARK    1  A    between atoms: C1_1  and  C2_2
DOCKED: REMARK    2  A    between atoms: C2_2  and  C3_3
DOCKED: REMARK    3  A    between atoms: C3_3  and  C4_4
DOCKED: REMARK    4  A    between atoms: C4_4  and  N1_5
DOCKED: REMARK    5  A    between atoms: C4_4  and  C10_13
DOCKED: REMARK    6  A    between atoms: C5_6  and  O2_8
DOCKED: REMARK    7  A    between atoms: O2_8  and  C6_9
DOCKED: REMARK    8  A    between atoms: C6_9  and  C7_10
DOCKED: REMARK    9  A    between atoms: C6_9  and  C8_11
DOCKED: REMARK   10  A    between atoms: C6_9  and  C9_12
DOCKED: REMARK   11  A    between atoms: N2_15  and  C11_16
DOCKED: REMARK   12  A    between atoms: C11_16  and  C12_17
DOCKED: REMARK   13  A    between atoms: C11_16  and  C13_18
DOCKED: REMARK   14  A    between atoms: N3_20  and  C14_21
DOCKED: REMARK   15  A    between atoms: C14_21  and  C15_22
DOCKED: REMARK   16  A    between atoms: C14_21  and  C22_29
DOCKED: REMARK   17  A    between atoms: C15_22  and  C16_23
DOCKED: REMARK   18  A    between atoms: C22_29  and  O5_30
DOCKED: REMARK   19  A    between atoms: C22_29  and  C23_31
DOCKED: REMARK   20  A    between atoms: C23_31  and  C24_32
DOCKED: REMARK   21  A    between atoms: C24_32  and  C25_33
DOCKED: REMARK   22  A    between atoms: C24_32  and  C26_34
DOCKED: REMARK   23  A    between atoms: N4_36  and  C27_37
DOCKED: REMARK   24  A    between atoms: C27_37  and  C28_38
DOCKED: REMARK   25  A    between atoms: C27_37  and  C35_48
DOCKED: REMARK   26  A    between atoms: N5_40  and  C29_41
DOCKED: REMARK   27  A    between atoms: C29_41  and  C30_42
DOCKED: REMARK   28  A    between atoms: C35_48  and  C36_49
DOCKED: REMARK   29  A    between atoms: C35_48  and  C37_50
DOCKED: REMARK                            x       y       z     vdW  Elec       q    Type
DOCKED: REMARK                         _______ _______ _______ _____ _____    ______ ____
DOCKED: USER                              x       y       z     vdW  Elec       q    Type
DOCKED: USER                           _______ _______ _______ _____ _____    ______ ____
DOCKED: ROOT
DOCKED: ATOM      1  C14 UNL     1       4.708  -6.279   3.580 +0.00 +0.00    +0.106 C  
DOCKED: ENDROOT
DOCKED: BRANCH   1   4
DOCKED: ATOM      2  C13 UNL     1       6.462  -6.282   5.348 +0.00 +0.00    +0.233 C  
DOCKED: ATOM      3  O4  UNL     1       6.168  -7.410   5.741 +0.00 -0.00    -0.274 OA 
DOCKED: ATOM      4  N3  UNL     1       5.846  -5.679   4.275 +0.00 -0.00    -0.308 N  
DOCKED: ATOM      5  H24 UNL     1       6.159  -4.760   3.983 +0.00 +0.00    +0.149 HD 
DOCKED: BRANCH   2   6
DOCKED: ATOM      6  C11 UNL     1       7.586  -5.454   5.998 +0.00 +0.00    +0.156 C  
DOCKED: ATOM      7  C12 UNL     1       7.765  -5.858   7.454 +0.00 +0.00    +0.038 C  
DOCKED: BRANCH   6  10
DOCKED: ATOM      8  C10 UNL     1       8.088  -3.107   5.446 +0.00 +0.00    +0.234 C  
DOCKED: ATOM      9  O3  UNL     1       9.285  -3.343   5.268 +0.00 -0.00    -0.274 OA 
DOCKED: ATOM     10  N2  UNL     1       7.195  -4.054   5.899 +0.00 -0.00    -0.303 N  
DOCKED: ATOM     11  H19 UNL     1       6.210  -3.887   5.726 +0.00 +0.00    +0.149 HD 
DOCKED: BRANCH   8  12
DOCKED: ATOM     12  C4  UNL     1       7.459  -1.734   5.136 +0.00 +0.00    +0.162 C  
DOCKED: BRANCH  12  13
DOCKED: ATOM     13  N1  UNL     1       6.909  -1.791   3.793 +0.00 -0.00    -0.270 N  
DOCKED: ATOM     14  C5  UNL     1       5.653  -2.280   3.593 +0.00 +0.00    +0.401 C  
DOCKED: ATOM     15  O1  UNL     1       5.035  -2.961   4.392 +0.00 -0.00    -0.226 OA 
DOCKED: ATOM     16  H9  UNL     1       7.119  -1.013   3.180 +0.00 +0.00    +0.153 HD 
DOCKED: BRANCH  14  17
DOCKED: ATOM     17  O2  UNL     1       5.209  -1.858   2.388 +0.00 -0.00    -0.445 OA 
DOCKED: BRANCH  17  18
DOCKED: ATOM     18  C6  UNL     1       4.218  -0.804   2.294 +0.00 +0.00    +0.107 C  
DOCKED: ATOM     19  C7  UNL     1       4.863   0.524   1.876 +0.00 +0.00    +0.055 C  
DOCKED: ATOM     20  C8  UNL     1       3.421  -0.664   3.596 +0.00 +0.00    +0.055 C  
DOCKED: ATOM     21  C9  UNL     1       3.263  -1.264   1.183 +0.00 +0.00    +0.055 C  
DOCKED: ENDBRANCH  17  18
DOCKED: ENDBRANCH  14  17
DOCKED: ENDBRANCH  12  13
DOCKED: BRANCH  12  22
DOCKED: ATOM     22  C3  UNL     1       6.374  -1.433   6.174 +0.00 +0.00    +0.031 C  
DOCKED: BRANCH  22  24
DOCKED: ATOM     23  C1  UNL     1       4.498   0.158   6.736 +0.00 +0.00    +0.004 C  
DOCKED: ATOM     24  C2  UNL     1       5.864   0.007   6.082 +0.00 -0.00    -0.001 C  
DOCKED: ENDBRANCH  22  24
DOCKED: ENDBRANCH  12  22
DOCKED: ENDBRANCH   8  12
DOCKED: ENDBRANCH   6  10
DOCKED: ENDBRANCH   2   6
DOCKED: ENDBRANCH   1   4
DOCKED: BRANCH   1  25
DOCKED: ATOM     25  C15 UNL     1       3.521  -6.501   4.550 +0.00 +0.00    +0.060 C  
DOCKED: BRANCH  25  26
DOCKED: ATOM     26  C16 UNL     1       3.107  -5.215   5.239 +0.00 -0.00    -0.046 A  
DOCKED: ATOM     27  C17 UNL     1       3.660  -4.870   6.480 +0.00 +0.00    +0.004 A  
DOCKED: ATOM     28  C18 UNL     1       3.316  -3.667   7.100 +0.00 +0.00    +0.000 A  
DOCKED: ATOM     29  C19 UNL     1       2.418  -2.797   6.485 +0.00 +0.00    +0.000 A  
DOCKED: ATOM     30  C20 UNL     1       1.862  -3.130   5.253 +0.00 +0.00    +0.000 A  
DOCKED: ATOM     31  C21 UNL     1       2.202  -4.333   4.632 +0.00 +0.00    +0.004 A  
DOCKED: ENDBRANCH  25  26
DOCKED: ENDBRANCH   1  25
DOCKED: BRANCH   1  32
DOCKED: ATOM     32  C22 UNL     1       4.317  -5.490   2.295 +0.00 +0.00    +0.136 C  
DOCKED: BRANCH  32  33
DOCKED: ATOM     33  O5  UNL     1       5.212  -4.380   2.125 +0.00 -0.00    -0.390 OA 
DOCKED: ATOM     34  H34 UNL     1       4.703  -3.568   2.314 +0.00 +0.00    +0.210 HD 
DOCKED: ENDBRANCH  32  33
DOCKED: BRANCH  32  35
DOCKED: ATOM     35  C23 UNL     1       4.351  -6.309   0.991 +0.00 +0.00    +0.045 C  
DOCKED: BRANCH  35  36
DOCKED: ATOM     36  C24 UNL     1       4.077  -5.449  -0.255 +0.00 +0.00    +0.074 C  
DOCKED: ATOM     37  C25 UNL     1       2.889  -4.506  -0.063 +0.00 +0.00    +0.017 C  
DOCKED: BRANCH  36  38
DOCKED: ATOM     38  C26 UNL     1       5.328  -4.689  -0.668 +0.00 +0.00    +0.217 C  
DOCKED: ATOM     39  O6  UNL     1       6.244  -5.248  -1.271 +0.00 -0.00    -0.276 OA 
DOCKED: ATOM     40  N4  UNL     1       5.364  -3.365  -0.295 +0.00 -0.00    -0.304 N  
DOCKED: ATOM     41  H41 UNL     1       4.816  -3.141   0.528 +0.00 +0.00    +0.149 HD 
DOCKED: BRANCH  40  42
DOCKED: ATOM     42  C27 UNL     1       6.602  -2.604  -0.443 +0.00 +0.00    +0.161 C  
DOCKED: BRANCH  42  43
DOCKED: ATOM     43  C28 UNL     1       7.465  -2.832   0.819 +0.00 +0.00    +0.234 C  
DOCKED: ATOM     44  O7  UNL     1       8.034  -1.912   1.407 +0.00 -0.00    -0.274 OA 
DOCKED: ATOM     45  N5  UNL     1       7.569  -4.150   1.206 +0.00 -0.00    -0.310 N  
DOCKED: ATOM     46  H43 UNL     1       6.963  -4.836   0.773 +0.00 +0.00    +0.149 HD 
DOCKED: BRANCH  45  47
DOCKED: ATOM     47  C29 UNL     1       8.236  -4.534   2.431 +0.00 +0.00    +0.139 C  
DOCKED: BRANCH  47  48
DOCKED: ATOM     48  C30 UNL     1       8.386  -6.030   2.530 +0.00 -0.00    -0.027 A  
DOCKED: ATOM     49  C31 UNL     1       9.321  -6.595   3.401 +0.00 +0.00    +0.025 A  
DOCKED: ATOM     50  C32 UNL     1       9.413  -7.978   3.478 +0.00 +0.00    +0.111 A  
DOCKED: ATOM     51  N6  UNL     1       8.647  -8.825   2.759 +0.00 -0.00    -0.263 NA 
DOCKED: ATOM     52  C33 UNL     1       7.742  -8.262   1.934 +0.00 +0.00    +0.111 A  
DOCKED: ATOM     53  C34 UNL     1       7.570  -6.893   1.790 +0.00 +0.00    +0.025 A  
DOCKED: ENDBRANCH  47  48
DOCKED: ENDBRANCH  45  47
DOCKED: ENDBRANCH  42  43
DOCKED: BRANCH  42  54
DOCKED: ATOM     54  C35 UNL     1       6.351  -1.098  -0.692 +0.00 +0.00    +0.012 C  
DOCKED: ATOM     55  C36 UNL     1       5.168  -0.825  -1.629 +0.00 +0.00    +0.009 C  
DOCKED: ATOM     56  C37 UNL     1       7.613  -0.417  -1.230 +0.00 +0.00    +0.009 C  
DOCKED: ENDBRANCH  42  54
DOCKED: ENDBRANCH  40  42
DOCKED: ENDBRANCH  36  38
DOCKED: ENDBRANCH  35  36
DOCKED: ENDBRANCH  32  35
DOCKED: ENDBRANCH   1  32
DOCKED: TORSDOF 21
DOCKED: TER
DOCKED: ENDMDL
________________________________________________________________________________


    FINAL DOCKED STATE:
    ________________________


Run:   7 / 20
Time taken for this run:   1.417s

DOCKED: MODEL        7
DOCKED: USER    Run = 7
DOCKED: USER
DOCKED: USER    Estimated Free Energy of Binding    =  +6.26 kcal/mol  [=(1)+(2)+(3)-(4)]
DOCKED: USER
DOCKED: USER    (1) Final Intermolecular Energy     =  +0.00 kcal/mol
DOCKED: USER        vdW + Hbond + desolv Energy     =  +0.00 kcal/mol
DOCKED: USER        Electrostatic Energy            =  +0.00 kcal/mol
DOCKED: USER        Moving Ligand-Fixed Receptor    =  +0.00 kcal/mol
DOCKED: USER        Moving Ligand-Moving Receptor   =  +0.00 kcal/mol
DOCKED: USER    (2) Final Total Internal Energy     = -14.58 kcal/mol
DOCKED: USER    (3) Torsional Free Energy           =  +6.26 kcal/mol
DOCKED: USER    (4) Unbound System's Energy         = -14.58 kcal/mol
DOCKED: USER
DOCKED: USER
DOCKED: REMARK  Name = ligands/ligand_11.pdb
DOCKED: REMARK  29 active torsions:
DOCKED: REMARK  status: ('A' for Active; 'I' for Inactive)
DOCKED: REMARK    1  A    between atoms: C1_1  and  C2_2
DOCKED: REMARK    2  A    between atoms: C2_2  and  C3_3
DOCKED: REMARK    3  A    between atoms: C3_3  and  C4_4
DOCKED: REMARK    4  A    between atoms: C4_4  and  N1_5
DOCKED: REMARK    5  A    between atoms: C4_4  and  C10_13
DOCKED: REMARK    6  A    between atoms: C5_6  and  O2_8
DOCKED: REMARK    7  A    between atoms: O2_8  and  C6_9
DOCKED: REMARK    8  A    between atoms: C6_9  and  C7_10
DOCKED: REMARK    9  A    between atoms: C6_9  and  C8_11
DOCKED: REMARK   10  A    between atoms: C6_9  and  C9_12
DOCKED: REMARK   11  A    between atoms: N2_15  and  C11_16
DOCKED: REMARK   12  A    between atoms: C11_16  and  C12_17
DOCKED: REMARK   13  A    between atoms: C11_16  and  C13_18
DOCKED: REMARK   14  A    between atoms: N3_20  and  C14_21
DOCKED: REMARK   15  A    between atoms: C14_21  and  C15_22
DOCKED: REMARK   16  A    between atoms: C14_21  and  C22_29
DOCKED: REMARK   17  A    between atoms: C15_22  and  C16_23
DOCKED: REMARK   18  A    between atoms: C22_29  and  O5_30
DOCKED: REMARK   19  A    between atoms: C22_29  and  C23_31
DOCKED: REMARK   20  A    between atoms: C23_31  and  C24_32
DOCKED: REMARK   21  A    between atoms: C24_32  and  C25_33
DOCKED: REMARK   22  A    between atoms: C24_32  and  C26_34
DOCKED: REMARK   23  A    between atoms: N4_36  and  C27_37
DOCKED: REMARK   24  A    between atoms: C27_37  and  C28_38
DOCKED: REMARK   25  A    between atoms: C27_37  and  C35_48
DOCKED: REMARK   26  A    between atoms: N5_40  and  C29_41
DOCKED: REMARK   27  A    between atoms: C29_41  and  C30_42
DOCKED: REMARK   28  A    between atoms: C35_48  and  C36_49
DOCKED: REMARK   29  A    between atoms: C35_48  and  C37_50
DOCKED: REMARK                            x       y       z     vdW  Elec       q    Type
DOCKED: REMARK                         _______ _______ _______ _____ _____    ______ ____
DOCKED: USER                              x       y       z     vdW  Elec       q    Type
DOCKED: USER                           _______ _______ _______ _____ _____    ______ ____
DOCKED: ROOT
DOCKED: ATOM      1  C14 UNL     1       9.270  -5.916  -2.165 +0.00 +0.00    +0.106 C  
DOCKED: ENDROOT
DOCKED: BRANCH   1   4
DOCKED: ATOM      2  C13 UNL     1      11.377  -6.377  -0.921 +0.00 +0.00    +0.233 C  
DOCKED: ATOM      3  O4  UNL     1      10.785  -6.694   0.111 +0.00 -0.00    -0.274 OA 
DOCKED: ATOM      4  N3  UNL     1      10.724  -6.040  -2.084 +0.00 -0.00    -0.308 N  
DOCKED: ATOM      5  H24 UNL     1      11.273  -5.821  -2.908 +0.00 +0.00    +0.149 HD 
DOCKED: BRANCH   2   6
DOCKED: ATOM      6  C11 UNL     1      12.914  -6.373  -1.016 +0.00 +0.00    +0.156 C  
DOCKED: ATOM      7  C12 UNL     1      13.478  -5.109  -0.385 +0.00 +0.00    +0.038 C  
DOCKED: BRANCH   6  10
DOCKED: ATOM      8  C10 UNL     1      14.486  -6.899  -2.836 +0.00 +0.00    +0.234 C  
DOCKED: ATOM      9  O3  UNL     1      15.412  -7.118  -2.054 +0.00 -0.00    -0.274 OA 
DOCKED: ATOM     10  N2  UNL     1      13.253  -6.435  -2.431 +0.00 -0.00    -0.303 N  
DOCKED: ATOM     11  H19 UNL     1      12.471  -6.575  -3.061 +0.00 +0.00    +0.149 HD 
DOCKED: BRANCH   8  12
DOCKED: ATOM     12  C4  UNL     1      14.599  -7.166  -4.351 +0.00 +0.00    +0.162 C  
DOCKED: BRANCH  12  13
DOCKED: ATOM     13  N1  UNL     1      14.669  -5.880  -5.024 +0.00 -0.00    -0.270 N  
DOCKED: ATOM     14  C5  UNL     1      13.609  -5.025  -4.966 +0.00 +0.00    +0.401 C  
DOCKED: ATOM     15  O1  UNL     1      12.475  -5.342  -4.654 +0.00 -0.00    -0.226 OA 
DOCKED: ATOM     16  H9  UNL     1      15.555  -5.393  -4.989 +0.00 +0.00    +0.153 HD 
DOCKED: BRANCH  14  17
DOCKED: ATOM     17  O2  UNL     1      14.037  -3.782  -5.279 +0.00 -0.00    -0.445 OA 
DOCKED: BRANCH  17  18
DOCKED: ATOM     18  C6  UNL     1      13.575  -2.631  -4.527 +0.00 +0.00    +0.107 C  
DOCKED: ATOM     19  C7  UNL     1      14.445  -1.400  -4.815 +0.00 +0.00    +0.055 C  
DOCKED: ATOM     20  C8  UNL     1      13.498  -2.934  -3.026 +0.00 +0.00    +0.055 C  
DOCKED: ATOM     21  C9  UNL     1      12.154  -2.369  -5.046 +0.00 +0.00    +0.055 C  
DOCKED: ENDBRANCH  17  18
DOCKED: ENDBRANCH  14  17
DOCKED: ENDBRANCH  12  13
DOCKED: BRANCH  12  22
DOCKED: ATOM     22  C3  UNL     1      15.848  -8.009  -4.621 +0.00 +0.00    +0.031 C  
DOCKED: BRANCH  22  24
DOCKED: ATOM     23  C1  UNL     1      14.098  -9.823  -4.513 +0.00 +0.00    +0.004 C  
DOCKED: ATOM     24  C2  UNL     1      15.508  -9.462  -4.958 +0.00 -0.00    -0.001 C  
DOCKED: ENDBRANCH  22  24
DOCKED: ENDBRANCH  12  22
DOCKED: ENDBRANCH   8  12
DOCKED: ENDBRANCH   6  10
DOCKED: ENDBRANCH   2   6
DOCKED: ENDBRANCH   1   4
DOCKED: BRANCH   1  25
DOCKED: ATOM     25  C15 UNL     1       8.758  -4.784  -1.239 +0.00 +0.00    +0.060 C  
DOCKED: BRANCH  25  26
DOCKED: ATOM     26  C16 UNL     1       9.358  -3.441  -1.607 +0.00 -0.00    -0.046 A  
DOCKED: ATOM     27  C17 UNL     1      10.441  -2.928  -0.879 +0.00 +0.00    +0.004 A  
DOCKED: ATOM     28  C18 UNL     1      11.025  -1.712  -1.238 +0.00 +0.00    +0.000 A  
DOCKED: ATOM     29  C19 UNL     1      10.535  -0.998  -2.329 +0.00 +0.00    +0.000 A  
DOCKED: ATOM     30  C20 UNL     1       9.459  -1.497  -3.059 +0.00 +0.00    +0.000 A  
DOCKED: ATOM     31  C21 UNL     1       8.872  -2.711  -2.700 +0.00 +0.00    +0.004 A  
DOCKED: ENDBRANCH  25  26
DOCKED: ENDBRANCH   1  25
DOCKED: BRANCH   1  32
DOCKED: ATOM     32  C22 UNL     1       8.767  -5.789  -3.634 +0.00 +0.00    +0.136 C  
DOCKED: BRANCH  32  33
DOCKED: ATOM     33  O5  UNL     1       9.838  -5.314  -4.465 +0.00 -0.00    -0.390 OA 
DOCKED: ATOM     34  H34 UNL     1      10.614  -5.880  -4.286 +0.00 +0.00    +0.210 HD 
DOCKED: ENDBRANCH  32  33
DOCKED: BRANCH  32  35
DOCKED: ATOM     35  C23 UNL     1       8.245  -7.094  -4.261 +0.00 +0.00    +0.045 C  
DOCKED: BRANCH  35  36
DOCKED: ATOM     36  C24 UNL     1       9.140  -8.304  -3.942 +0.00 +0.00    +0.074 C  
DOCKED: ATOM     37  C25 UNL     1       8.454  -9.634  -4.254 +0.00 +0.00    +0.017 C  
DOCKED: BRANCH  36  38
DOCKED: ATOM     38  C26 UNL     1      10.476  -8.188  -4.659 +0.00 +0.00    +0.217 C  
DOCKED: ATOM     39  O6  UNL     1      11.411  -7.558  -4.166 +0.00 -0.00    -0.276 OA 
DOCKED: ATOM     40  N4  UNL     1      10.541  -8.804  -5.889 +0.00 -0.00    -0.304 N  
DOCKED: ATOM     41  H41 UNL     1       9.652  -8.892  -6.367 +0.00 +0.00    +0.149 HD 
DOCKED: BRANCH  40  42
DOCKED: ATOM     42  C27 UNL     1      11.693  -8.569  -6.755 +0.00 +0.00    +0.161 C  
DOCKED: BRANCH  42  43
DOCKED: ATOM     43  C28 UNL     1      11.411  -7.309  -7.607 +0.00 +0.00    +0.234 C  
DOCKED: ATOM     44  O7  UNL     1      11.331  -7.345  -8.834 +0.00 -0.00    -0.274 OA 
DOCKED: ATOM     45  N5  UNL     1      11.291  -6.147  -6.878 +0.00 -0.00    -0.310 N  
DOCKED: ATOM     46  H43 UNL     1      11.219  -6.206  -5.870 +0.00 +0.00    +0.149 HD 
DOCKED: BRANCH  45  47
DOCKED: ATOM     47  C29 UNL     1      10.907  -4.896  -7.497 +0.00 +0.00    +0.139 C  
DOCKED: BRANCH  47  48
DOCKED: ATOM     48  C30 UNL     1       9.514  -4.487  -7.092 +0.00 -0.00    -0.027 A  
DOCKED: ATOM     49  C31 UNL     1       8.441  -5.369  -7.247 +0.00 +0.00    +0.025 A  
DOCKED: ATOM     50  C32 UNL     1       7.178  -4.961  -6.842 +0.00 +0.00    +0.111 A  
DOCKED: ATOM     51  N6  UNL     1       6.913  -3.756  -6.298 +0.00 -0.00    -0.263 NA 
DOCKED: ATOM     52  C33 UNL     1       7.963  -2.923  -6.144 +0.00 +0.00    +0.111 A  
DOCKED: ATOM     53  C34 UNL     1       9.263  -3.238  -6.513 +0.00 +0.00    +0.025 A  
DOCKED: ENDBRANCH  47  48
DOCKED: ENDBRANCH  45  47
DOCKED: ENDBRANCH  42  43
DOCKED: BRANCH  42  54
DOCKED: ATOM     54  C35 UNL     1      12.029  -9.788  -7.645 +0.00 +0.00    +0.012 C  
DOCKED: ATOM     55  C36 UNL     1      11.691 -11.132  -6.988 +0.00 +0.00    +0.009 C  
DOCKED: ATOM     56  C37 UNL     1      13.502  -9.768  -8.065 +0.00 +0.00    +0.009 C  
DOCKED: ENDBRANCH  42  54
DOCKED: ENDBRANCH  40  42
DOCKED: ENDBRANCH  36  38
DOCKED: ENDBRANCH  35  36
DOCKED: ENDBRANCH  32  35
DOCKED: ENDBRANCH   1  32
DOCKED: TORSDOF 21
DOCKED: TER
DOCKED: ENDMDL
________________________________________________________________________________


    FINAL DOCKED STATE:
    ________________________


Run:   8 / 20
Time taken for this run:   1.417s

DOCKED: MODEL        8
DOCKED: USER    Run = 8
DOCKED: USER
DOCKED: USER    Estimated Free Energy of Binding    =  +6.26 kcal/mol  [=(1)+(2)+(3)-(4)]
DOCKED: USER
DOCKED: USER    (1) Final Intermolecular Energy     =  +0.00 kcal/mol
DOCKED: USER        vdW + Hbond + desolv Energy     =  +0.00 kcal/mol
DOCKED: USER        Electrostatic Energy            =  +0.00 kcal/mol
DOCKED: USER        Moving Ligand-Fixed Receptor    =  +0.00 kcal/mol
DOCKED: USER        Moving Ligand-Moving Receptor   =  +0.00 kcal/mol
DOCKED: USER    (2) Final Total Internal Energy     = -14.79 kcal/mol
DOCKED: USER    (3) Torsional Free Energy           =  +6.26 kcal/mol
DOCKED: USER    (4) Unbound System's Energy         = -14.79 kcal/mol
DOCKED: USER
DOCKED: USER
DOCKED: REMARK  Name = ligands/ligand_11.pdb
DOCKED: REMARK  29 active torsions:
DOCKED: REMARK  status: ('A' for Active; 'I' for Inactive)
DOCKED: REMARK    1  A    between atoms: C1_1  and  C2_2
DOCKED: REMARK    2  A    between atoms: C2_2  and  C3_3
DOCKED: REMARK    3  A    between atoms: C3_3  and  C4_4
DOCKED: REMARK    4  A    between atoms: C4_4  and  N1_5
DOCKED: REMARK    5  A    between atoms: C4_4  and  C10_13
DOCKED: REMARK    6  A    between atoms: C5_6  and  O2_8
DOCKED: REMARK    7  A    between atoms: O2_8  and  C6_9
DOCKED: REMARK    8  A    between atoms: C6_9  and  C7_10
DOCKED: REMARK    9  A    between atoms: C6_9  and  C8_11
DOCKED: REMARK   10  A    between atoms: C6_9  and  C9_12
DOCKED: REMARK   11  A    between atoms: N2_15  and  C11_16
DOCKED: REMARK   12  A    between atoms: C11_16  and  C12_17
DOCKED: REMARK   13  A    between atoms: C11_16  and  C13_18
DOCKED: REMARK   14  A    between atoms: N3_20  and  C14_21
DOCKED: REMARK   15  A    between atoms: C14_21  and  C15_22
DOCKED: REMARK   16  A    between atoms: C14_21  and  C22_29
DOCKED: REMARK   17  A    between atoms: C15_22  and  C16_23
DOCKED: REMARK   18  A    between atoms: C22_29  and  O5_30
DOCKED: REMARK   19  A    between atoms: C22_29  and  C23_31
DOCKED: REMARK   20  A    between atoms: C23_31  and  C24_32
DOCKED: REMARK   21  A    between atoms: C24_32  and  C25_33
DOCKED: REMARK   22  A    between atoms: C24_32  and  C26_34
DOCKED: REMARK   23  A    between atoms: N4_36  and  C27_37
DOCKED: REMARK   24  A    between atoms: C27_37  and  C28_38
DOCKED: REMARK   25  A    between atoms: C27_37  and  C35_48
DOCKED: REMARK   26  A    between atoms: N5_40  and  C29_41
DOCKED: REMARK   27  A    between atoms: C29_41  and  C30_42
DOCKED: REMARK   28  A    between atoms: C35_48  and  C36_49
DOCKED: REMARK   29  A    between atoms: C35_48  and  C37_50
DOCKED: REMARK                            x       y       z     vdW  Elec       q    Type
DOCKED: REMARK                         _______ _______ _______ _____ _____    ______ ____
DOCKED: USER                              x       y       z     vdW  Elec       q    Type
DOCKED: USER                           _______ _______ _______ _____ _____    ______ ____
DOCKED: ROOT
DOCKED: ATOM      1  C14 UNL     1      13.489  -6.753   0.920 +0.00 +0.00    +0.106 C  
DOCKED: ENDROOT
DOCKED: BRANCH   1   4
DOCKED: ATOM      2  C13 UNL     1      12.059  -5.488   2.520 +0.00 +0.00    +0.233 C  
DOCKED: ATOM      3  O4  UNL     1      11.720  -4.659   1.675 +0.00 -0.00    -0.274 OA 
DOCKED: ATOM      4  N3  UNL     1      12.867  -6.563   2.230 +0.00 -0.00    -0.308 N  
DOCKED: ATOM      5  H24 UNL     1      13.081  -7.227   2.965 +0.00 +0.00    +0.149 HD 
DOCKED: BRANCH   2   6
DOCKED: ATOM      6  C11 UNL     1      11.569  -5.420   3.978 +0.00 +0.00    +0.156 C  
DOCKED: ATOM      7  C12 UNL     1      11.115  -4.009   4.318 +0.00 +0.00    +0.038 C  
DOCKED: BRANCH   6  10
DOCKED: ATOM      8  C10 UNL     1      12.472  -6.503   5.997 +0.00 +0.00    +0.234 C  
DOCKED: ATOM      9  O3  UNL     1      11.352  -6.668   6.482 +0.00 -0.00    -0.274 OA 
DOCKED: ATOM     10  N2  UNL     1      12.689  -5.816   4.822 +0.00 -0.00    -0.303 N  
DOCKED: ATOM     11  H19 UNL     1      13.563  -5.985   4.337 +0.00 +0.00    +0.149 HD 
DOCKED: BRANCH   8  12
DOCKED: ATOM     12  C4  UNL     1      13.747  -7.088   6.636 +0.00 +0.00    +0.162 C  
DOCKED: BRANCH  12  13
DOCKED: ATOM     13  N1  UNL     1      14.128  -8.263   5.871 +0.00 -0.00    -0.270 N  
DOCKED: ATOM     14  C5  UNL     1      14.813  -8.119   4.702 +0.00 +0.00    +0.401 C  
DOCKED: ATOM     15  O1  UNL     1      14.889  -7.085   4.063 +0.00 -0.00    -0.226 OA 
DOCKED: ATOM     16  H9  UNL     1      14.435  -9.071   6.397 +0.00 +0.00    +0.153 HD 
DOCKED: BRANCH  14  17
DOCKED: ATOM     17  O2  UNL     1      15.407  -9.294   4.399 +0.00 -0.00    -0.445 OA 
DOCKED: BRANCH  17  18
DOCKED: ATOM     18  C6  UNL     1      16.853  -9.406   4.375 +0.00 +0.00    +0.107 C  
DOCKED: ATOM     19  C7  UNL     1      17.394  -9.263   2.946 +0.00 +0.00    +0.055 C  
DOCKED: ATOM     20  C8  UNL     1      17.327 -10.707   5.034 +0.00 +0.00    +0.055 C  
DOCKED: ATOM     21  C9  UNL     1      17.351  -8.223   5.217 +0.00 +0.00    +0.055 C  
DOCKED: ENDBRANCH  17  18
DOCKED: ENDBRANCH  14  17
DOCKED: ENDBRANCH  12  13
DOCKED: BRANCH  12  22
DOCKED: ATOM     22  C3  UNL     1      14.851  -6.027   6.621 +0.00 +0.00    +0.031 C  
DOCKED: BRANCH  22  24
DOCKED: ATOM     23  C1  UNL     1      14.378  -3.555   6.442 +0.00 +0.00    +0.004 C  
DOCKED: ATOM     24  C2  UNL     1      14.447  -4.757   7.373 +0.00 -0.00    -0.001 C  
DOCKED: ENDBRANCH  22  24
DOCKED: ENDBRANCH  12  22
DOCKED: ENDBRANCH   8  12
DOCKED: ENDBRANCH   6  10
DOCKED: ENDBRANCH   2   6
DOCKED: ENDBRANCH   1   4
DOCKED: BRANCH   1  25
DOCKED: ATOM     25  C15 UNL     1      14.351  -5.525   0.534 +0.00 +0.00    +0.060 C  
DOCKED: BRANCH  25  26
DOCKED: ATOM     26  C16 UNL     1      15.389  -5.209   1.595 +0.00 -0.00    -0.046 A  
DOCKED: ATOM     27  C17 UNL     1      15.152  -4.195   2.534 +0.00 +0.00    +0.004 A  
DOCKED: ATOM     28  C18 UNL     1      16.083  -3.927   3.539 +0.00 +0.00    +0.000 A  
DOCKED: ATOM     29  C19 UNL     1      17.259  -4.670   3.616 +0.00 +0.00    +0.000 A  
DOCKED: ATOM     30  C20 UNL     1      17.506  -5.678   2.688 +0.00 +0.00    +0.000 A  
DOCKED: ATOM     31  C21 UNL     1      16.577  -5.947   1.681 +0.00 +0.00    +0.004 A  
DOCKED: ENDBRANCH  25  26
DOCKED: ENDBRANCH   1  25
DOCKED: BRANCH   1  32
DOCKED: ATOM     32  C22 UNL     1      14.256  -8.105   0.819 +0.00 +0.00    +0.136 C  
DOCKED: BRANCH  32  33
DOCKED: ATOM     33  O5  UNL     1      14.402  -8.670   2.131 +0.00 -0.00    -0.390 OA 
DOCKED: ATOM     34  H34 UNL     1      15.252  -8.348   2.491 +0.00 +0.00    +0.210 HD 
DOCKED: ENDBRANCH  32  33
DOCKED: BRANCH  32  35
DOCKED: ATOM     35  C23 UNL     1      13.587  -9.171  -0.067 +0.00 +0.00    +0.045 C  
DOCKED: BRANCH  35  36
DOCKED: ATOM     36  C24 UNL     1      14.283 -10.539   0.025 +0.00 +0.00    +0.074 C  
DOCKED: ATOM     37  C25 UNL     1      15.789 -10.412   0.256 +0.00 +0.00    +0.017 C  
DOCKED: BRANCH  36  38
DOCKED: ATOM     38  C26 UNL     1      13.629 -11.404   1.092 +0.00 +0.00    +0.217 C  
DOCKED: ATOM     39  O6  UNL     1      12.633 -12.082   0.840 +0.00 -0.00    -0.276 OA 
DOCKED: ATOM     40  N4  UNL     1      14.209 -11.343   2.338 +0.00 -0.00    -0.304 N  
DOCKED: ATOM     41  H41 UNL     1      14.697 -10.477   2.537 +0.00 +0.00    +0.149 HD 
DOCKED: BRANCH  40  42
DOCKED: ATOM     42  C27 UNL     1      13.536 -11.954   3.481 +0.00 +0.00    +0.161 C  
DOCKED: BRANCH  42  43
DOCKED: ATOM     43  C28 UNL     1      12.261 -11.135   3.788 +0.00 +0.00    +0.234 C  
DOCKED: ATOM     44  O7  UNL     1      11.177 -11.664   4.031 +0.00 -0.00    -0.274 OA 
DOCKED: ATOM     45  N5  UNL     1      12.437  -9.770   3.733 +0.00 -0.00    -0.310 N  
DOCKED: ATOM     46  H43 UNL     1      13.377  -9.399   3.675 +0.00 +0.00    +0.149 HD 
DOCKED: BRANCH  45  47
DOCKED: ATOM     47  C29 UNL     1      11.384  -8.851   4.110 +0.00 +0.00    +0.139 C  
DOCKED: BRANCH  47  48
DOCKED: ATOM     48  C30 UNL     1      10.512  -8.500   2.932 +0.00 -0.00    -0.027 A  
DOCKED: ATOM     49  C31 UNL     1      10.819  -8.975   1.655 +0.00 +0.00    +0.025 A  
DOCKED: ATOM     50  C32 UNL     1       9.977  -8.647   0.600 +0.00 +0.00    +0.111 A  
DOCKED: ATOM     51  N6  UNL     1       8.868  -7.891   0.729 +0.00 -0.00    -0.263 NA 
DOCKED: ATOM     52  C33 UNL     1       8.581  -7.452   1.971 +0.00 +0.00    +0.111 A  
DOCKED: ATOM     53  C34 UNL     1       9.354  -7.730   3.089 +0.00 +0.00    +0.025 A  
DOCKED: ENDBRANCH  47  48
DOCKED: ENDBRANCH  45  47
DOCKED: ENDBRANCH  42  43
DOCKED: BRANCH  42  54
DOCKED: ATOM     54  C35 UNL     1      14.450 -12.064   4.724 +0.00 +0.00    +0.012 C  
DOCKED: ATOM     55  C36 UNL     1      15.020 -13.472   4.937 +0.00 +0.00    +0.009 C  
DOCKED: ATOM     56  C37 UNL     1      13.713 -11.602   5.985 +0.00 +0.00    +0.009 C  
DOCKED: ENDBRANCH  42  54
DOCKED: ENDBRANCH  40  42
DOCKED: ENDBRANCH  36  38
DOCKED: ENDBRANCH  35  36
DOCKED: ENDBRANCH  32  35
DOCKED: ENDBRANCH   1  32
DOCKED: TORSDOF 21
DOCKED: TER
DOCKED: ENDMDL
________________________________________________________________________________


    FINAL DOCKED STATE:
    ________________________


Run:   9 / 20
Time taken for this run:   1.417s

DOCKED: MODEL        9
DOCKED: USER    Run = 9
DOCKED: USER
DOCKED: USER    Estimated Free Energy of Binding    =  +6.26 kcal/mol  [=(1)+(2)+(3)-(4)]
DOCKED: USER
DOCKED: USER    (1) Final Intermolecular Energy     =  +0.00 kcal/mol
DOCKED: USER        vdW + Hbond + desolv Energy     =  +0.00 kcal/mol
DOCKED: USER        Electrostatic Energy            =  +0.00 kcal/mol
DOCKED: USER        Moving Ligand-Fixed Receptor    =  +0.00 kcal/mol
DOCKED: USER        Moving Ligand-Moving Receptor   =  +0.00 kcal/mol
DOCKED: USER    (2) Final Total Internal Energy     = -14.37 kcal/mol
DOCKED: USER    (3) Torsional Free Energy           =  +6.26 kcal/mol
DOCKED: USER    (4) Unbound System's Energy         = -14.37 kcal/mol
DOCKED: USER
DOCKED: USER
DOCKED: REMARK  Name = ligands/ligand_11.pdb
DOCKED: REMARK  29 active torsions:
DOCKED: REMARK  status: ('A' for Active; 'I' for Inactive)
DOCKED: REMARK    1  A    between atoms: C1_1  and  C2_2
DOCKED: REMARK    2  A    between atoms: C2_2  and  C3_3
DOCKED: REMARK    3  A    between atoms: C3_3  and  C4_4
DOCKED: REMARK    4  A    between atoms: C4_4  and  N1_5
DOCKED: REMARK    5  A    between atoms: C4_4  and  C10_13
DOCKED: REMARK    6  A    between atoms: C5_6  and  O2_8
DOCKED: REMARK    7  A    between atoms: O2_8  and  C6_9
DOCKED: REMARK    8  A    between atoms: C6_9  and  C7_10
DOCKED: REMARK    9  A    between atoms: C6_9  and  C8_11
DOCKED: REMARK   10  A    between atoms: C6_9  and  C9_12
DOCKED: REMARK   11  A    between atoms: N2_15  and  C11_16
DOCKED: REMARK   12  A    between atoms: C11_16  and  C12_17
DOCKED: REMARK   13  A    between atoms: C11_16  and  C13_18
DOCKED: REMARK   14  A    between atoms: N3_20  and  C14_21
DOCKED: REMARK   15  A    between atoms: C14_21  and  C15_22
DOCKED: REMARK   16  A    between atoms: C14_21  and  C22_29
DOCKED: REMARK   17  A    between atoms: C15_22  and  C16_23
DOCKED: REMARK   18  A    between atoms: C22_29  and  O5_30
DOCKED: REMARK   19  A    between atoms: C22_29  and  C23_31
DOCKED: REMARK   20  A    between atoms: C23_31  and  C24_32
DOCKED: REMARK   21  A    between atoms: C24_32  and  C25_33
DOCKED: REMARK   22  A    between atoms: C24_32  and  C26_34
DOCKED: REMARK   23  A    between atoms: N4_36  and  C27_37
DOCKED: REMARK   24  A    between atoms: C27_37  and  C28_38
DOCKED: REMARK   25  A    between atoms: C27_37  and  C35_48
DOCKED: REMARK   26  A    between atoms: N5_40  and  C29_41
DOCKED: REMARK   27  A    between atoms: C29_41  and  C30_42
DOCKED: REMARK   28  A    between atoms: C35_48  and  C36_49
DOCKED: REMARK   29  A    between atoms: C35_48  and  C37_50
DOCKED: REMARK                            x       y       z     vdW  Elec       q    Type
DOCKED: REMARK                         _______ _______ _______ _____ _____    ______ ____
DOCKED: USER                              x       y       z     vdW  Elec       q    Type
DOCKED: USER                           _______ _______ _______ _____ _____    ______ ____
DOCKED: ROOT
DOCKED: ATOM      1  C14 UNL     1      13.413  -1.950   0.524 +0.00 +0.00    +0.106 C  
DOCKED: ENDROOT
DOCKED: BRANCH   1   4
DOCKED: ATOM      2  C13 UNL     1      11.558  -2.897  -0.841 +0.00 +0.00    +0.233 C  
DOCKED: ATOM      3  O4  UNL     1      10.856  -3.133   0.142 +0.00 -0.00    -0.274 OA 
DOCKED: ATOM      4  N3  UNL     1      12.783  -2.278  -0.754 +0.00 -0.00    -0.308 N  
DOCKED: ATOM      5  H24 UNL     1      13.295  -2.083  -1.607 +0.00 +0.00    +0.149 HD 
DOCKED: BRANCH   2   6
DOCKED: ATOM      6  C11 UNL     1      11.103  -3.236  -2.272 +0.00 +0.00    +0.156 C  
DOCKED: ATOM      7  C12 UNL     1      10.311  -4.535  -2.282 +0.00 +0.00    +0.038 C  
DOCKED: BRANCH   6  10
DOCKED: ATOM      8  C10 UNL     1      12.232  -3.811  -4.384 +0.00 +0.00    +0.234 C  
DOCKED: ATOM      9  O3  UNL     1      11.205  -4.281  -4.875 +0.00 -0.00    -0.274 OA 
DOCKED: ATOM     10  N2  UNL     1      12.307  -3.364  -3.082 +0.00 -0.00    -0.303 N  
DOCKED: ATOM     11  H19 UNL     1      13.058  -2.724  -2.851 +0.00 +0.00    +0.149 HD 
DOCKED: BRANCH   8  12
DOCKED: ATOM     12  C4  UNL     1      13.532  -3.633  -5.194 +0.00 +0.00    +0.162 C  
DOCKED: BRANCH  12  13
DOCKED: ATOM     13  N1  UNL     1      13.844  -2.215  -5.228 +0.00 -0.00    -0.270 N  
DOCKED: ATOM     14  C5  UNL     1      14.507  -1.641  -4.185 +0.00 +0.00    +0.401 C  
DOCKED: ATOM     15  O1  UNL     1      14.614  -2.128  -3.074 +0.00 -0.00    -0.226 OA 
DOCKED: ATOM     16  H9  UNL     1      14.128  -1.830  -6.120 +0.00 +0.00    +0.153 HD 
DOCKED: BRANCH  14  17
DOCKED: ATOM     17  O2  UNL     1      15.043  -0.472  -4.602 +0.00 -0.00    -0.445 OA 
DOCKED: BRANCH  17  18
DOCKED: ATOM     18  C6  UNL     1      16.402  -0.113  -4.246 +0.00 +0.00    +0.107 C  
DOCKED: ATOM     19  C7  UNL     1      17.258  -1.365  -4.005 +0.00 +0.00    +0.055 C  
DOCKED: ATOM     20  C8  UNL     1      16.436   0.838  -3.044 +0.00 +0.00    +0.055 C  
DOCKED: ATOM     21  C9  UNL     1      16.945   0.631  -5.474 +0.00 +0.00    +0.055 C  
DOCKED: ENDBRANCH  17  18
DOCKED: ENDBRANCH  14  17
DOCKED: ENDBRANCH  12  13
DOCKED: BRANCH  12  22
DOCKED: ATOM     22  C3  UNL     1      14.652  -4.438  -4.530 +0.00 +0.00    +0.031 C  
DOCKED: BRANCH  22  24
DOCKED: ATOM     23  C1  UNL     1      15.648  -4.145  -6.830 +0.00 +0.00    +0.004 C  
DOCKED: ATOM     24  C2  UNL     1      15.933  -4.454  -5.367 +0.00 -0.00    -0.001 C  
DOCKED: ENDBRANCH  22  24
DOCKED: ENDBRANCH  12  22
DOCKED: ENDBRANCH   8  12
DOCKED: ENDBRANCH   6  10
DOCKED: ENDBRANCH   2   6
DOCKED: ENDBRANCH   1   4
DOCKED: BRANCH   1  25
DOCKED: ATOM     25  C15 UNL     1      13.941  -3.227   1.224 +0.00 +0.00    +0.060 C  
DOCKED: BRANCH  25  26
DOCKED: ATOM     26  C16 UNL     1      14.467  -4.241   0.226 +0.00 -0.00    -0.046 A  
DOCKED: ATOM     27  C17 UNL     1      13.776  -5.441   0.010 +0.00 +0.00    +0.004 A  
DOCKED: ATOM     28  C18 UNL     1      14.230  -6.361  -0.937 +0.00 +0.00    +0.000 A  
DOCKED: ATOM     29  C19 UNL     1      15.376  -6.089  -1.680 +0.00 +0.00    +0.000 A  
DOCKED: ATOM     30  C20 UNL     1      16.072  -4.900  -1.473 +0.00 +0.00    +0.000 A  
DOCKED: ATOM     31  C21 UNL     1      15.621  -3.980  -0.524 +0.00 +0.00    +0.004 A  
DOCKED: ENDBRANCH  25  26
DOCKED: ENDBRANCH   1  25
DOCKED: BRANCH   1  32
DOCKED: ATOM     32  C22 UNL     1      14.487  -0.830   0.384 +0.00 +0.00    +0.136 C  
DOCKED: BRANCH  32  33
DOCKED: ATOM     33  O5  UNL     1      14.678  -0.522  -1.005 +0.00 -0.00    -0.390 OA 
DOCKED: ATOM     34  H34 UNL     1      13.885  -0.836  -1.482 +0.00 +0.00    +0.210 HD 
DOCKED: ENDBRANCH  32  33
DOCKED: BRANCH  32  35
DOCKED: ATOM     35  C23 UNL     1      14.152   0.489   1.104 +0.00 +0.00    +0.045 C  
DOCKED: BRANCH  35  36
DOCKED: ATOM     36  C24 UNL     1      12.666   0.594   1.488 +0.00 +0.00    +0.074 C  
DOCKED: ATOM     37  C25 UNL     1      12.458   1.315   2.820 +0.00 +0.00    +0.017 C  
DOCKED: BRANCH  36  38
DOCKED: ATOM     38  C26 UNL     1      11.869   1.250   0.371 +0.00 +0.00    +0.217 C  
DOCKED: ATOM     39  O6  UNL     1      10.794   1.805   0.597 +0.00 -0.00    -0.276 OA 
DOCKED: ATOM     40  N4  UNL     1      12.421   1.150  -0.886 +0.00 -0.00    -0.304 N  
DOCKED: ATOM     41  H41 UNL     1      13.021   0.345  -1.022 +0.00 +0.00    +0.149 HD 
DOCKED: BRANCH  40  42
DOCKED: ATOM     42  C27 UNL     1      11.639   1.547  -2.053 +0.00 +0.00    +0.161 C  
DOCKED: BRANCH  42  43
DOCKED: ATOM     43  C28 UNL     1      11.529   0.330  -3.001 +0.00 +0.00    +0.234 C  
DOCKED: ATOM     44  O7  UNL     1      12.216  -0.681  -2.862 +0.00 -0.00    -0.274 OA 
DOCKED: ATOM     45  N5  UNL     1      10.624   0.489  -4.027 +0.00 -0.00    -0.310 N  
DOCKED: ATOM     46  H43 UNL     1       9.987   1.276  -4.001 +0.00 +0.00    +0.149 HD 
DOCKED: BRANCH  45  47
DOCKED: ATOM     47  C29 UNL     1      10.303  -0.592  -4.934 +0.00 +0.00    +0.139 C  
DOCKED: BRANCH  47  48
DOCKED: ATOM     48  C30 UNL     1      11.337  -0.721  -6.022 +0.00 -0.00    -0.027 A  
DOCKED: ATOM     49  C31 UNL     1      12.350   0.233  -6.158 +0.00 +0.00    +0.025 A  
DOCKED: ATOM     50  C32 UNL     1      13.296   0.065  -7.160 +0.00 +0.00    +0.111 A  
DOCKED: ATOM     51  N6  UNL     1      13.305  -0.972  -8.022 +0.00 -0.00    -0.263 NA 
DOCKED: ATOM     52  C33 UNL     1      12.328  -1.889  -7.868 +0.00 +0.00    +0.111 A  
DOCKED: ATOM     53  C34 UNL     1      11.341  -1.815  -6.896 +0.00 +0.00    +0.025 A  
DOCKED: ENDBRANCH  47  48
DOCKED: ENDBRANCH  45  47
DOCKED: ENDBRANCH  42  43
DOCKED: BRANCH  42  54
DOCKED: ATOM     54  C35 UNL     1      12.233   2.776  -2.780 +0.00 +0.00    +0.012 C  
DOCKED: ATOM     55  C36 UNL     1      13.371   2.421  -3.745 +0.00 +0.00    +0.009 C  
DOCKED: ATOM     56  C37 UNL     1      12.711   3.827  -1.773 +0.00 +0.00    +0.009 C  
DOCKED: ENDBRANCH  42  54
DOCKED: ENDBRANCH  40  42
DOCKED: ENDBRANCH  36  38
DOCKED: ENDBRANCH  35  36
DOCKED: ENDBRANCH  32  35
DOCKED: ENDBRANCH   1  32
DOCKED: TORSDOF 21
DOCKED: TER
DOCKED: ENDMDL
________________________________________________________________________________


    FINAL DOCKED STATE:
    ________________________


Run:   10 / 20
Time taken for this run:   1.417s

DOCKED: MODEL        10
DOCKED: USER    Run = 10
DOCKED: USER
DOCKED: USER    Estimated Free Energy of Binding    =  +6.26 kcal/mol  [=(1)+(2)+(3)-(4)]
DOCKED: USER
DOCKED: USER    (1) Final Intermolecular Energy     =  +0.00 kcal/mol
DOCKED: USER        vdW + Hbond + desolv Energy     =  +0.00 kcal/mol
DOCKED: USER        Electrostatic Energy            =  +0.00 kcal/mol
DOCKED: USER        Moving Ligand-Fixed Receptor    =  +0.00 kcal/mol
DOCKED: USER        Moving Ligand-Moving Receptor   =  +0.00 kcal/mol
DOCKED: USER    (2) Final Total Internal Energy     = -14.70 kcal/mol
DOCKED: USER    (3) Torsional Free Energy           =  +6.26 kcal/mol
DOCKED: USER    (4) Unbound System's Energy         = -14.70 kcal/mol
DOCKED: USER
DOCKED: USER
DOCKED: REMARK  Name = ligands/ligand_11.pdb
DOCKED: REMARK  29 active torsions:
DOCKED: REMARK  status: ('A' for Active; 'I' for Inactive)
DOCKED: REMARK    1  A    between atoms: C1_1  and  C2_2
DOCKED: REMARK    2  A    between atoms: C2_2  and  C3_3
DOCKED: REMARK    3  A    between atoms: C3_3  and  C4_4
DOCKED: REMARK    4  A    between atoms: C4_4  and  N1_5
DOCKED: REMARK    5  A    between atoms: C4_4  and  C10_13
DOCKED: REMARK    6  A    between atoms: C5_6  and  O2_8
DOCKED: REMARK    7  A    between atoms: O2_8  and  C6_9
DOCKED: REMARK    8  A    between atoms: C6_9  and  C7_10
DOCKED: REMARK    9  A    between atoms: C6_9  and  C8_11
DOCKED: REMARK   10  A    between atoms: C6_9  and  C9_12
DOCKED: REMARK   11  A    between atoms: N2_15  and  C11_16
DOCKED: REMARK   12  A    between atoms: C11_16  and  C12_17
DOCKED: REMARK   13  A    between atoms: C11_16  and  C13_18
DOCKED: REMARK   14  A    between atoms: N3_20  and  C14_21
DOCKED: REMARK   15  A    between atoms: C14_21  and  C15_22
DOCKED: REMARK   16  A    between atoms: C14_21  and  C22_29
DOCKED: REMARK   17  A    between atoms: C15_22  and  C16_23
DOCKED: REMARK   18  A    between atoms: C22_29  and  O5_30
DOCKED: REMARK   19  A    between atoms: C22_29  and  C23_31
DOCKED: REMARK   20  A    between atoms: C23_31  and  C24_32
DOCKED: REMARK   21  A    between atoms: C24_32  and  C25_33
DOCKED: REMARK   22  A    between atoms: C24_32  and  C26_34
DOCKED: REMARK   23  A    between atoms: N4_36  and  C27_37
DOCKED: REMARK   24  A    between atoms: C27_37  and  C28_38
DOCKED: REMARK   25  A    between atoms: C27_37  and  C35_48
DOCKED: REMARK   26  A    between atoms: N5_40  and  C29_41
DOCKED: REMARK   27  A    between atoms: C29_41  and  C30_42
DOCKED: REMARK   28  A    between atoms: C35_48  and  C36_49
DOCKED: REMARK   29  A    between atoms: C35_48  and  C37_50
DOCKED: REMARK                            x       y       z     vdW  Elec       q    Type
DOCKED: REMARK                         _______ _______ _______ _____ _____    ______ ____
DOCKED: USER                              x       y       z     vdW  Elec       q    Type
DOCKED: USER                           _______ _______ _______ _____ _____    ______ ____
DOCKED: ROOT
DOCKED: ATOM      1  C14 UNL     1       8.622  -2.938   4.573 +0.00 +0.00    +0.106 C  
DOCKED: ENDROOT
DOCKED: BRANCH   1   4
DOCKED: ATOM      2  C13 UNL     1       6.203  -2.367   4.413 +0.00 +0.00    +0.233 C  
DOCKED: ATOM      3  O4  UNL     1       6.182  -1.827   5.519 +0.00 -0.00    -0.274 OA 
DOCKED: ATOM      4  N3  UNL     1       7.350  -2.882   3.855 +0.00 -0.00    -0.308 N  
DOCKED: ATOM      5  H24 UNL     1       7.304  -3.284   2.925 +0.00 +0.00    +0.149 HD 
DOCKED: BRANCH   2   6
DOCKED: ATOM      6  C11 UNL     1       4.947  -2.475   3.530 +0.00 +0.00    +0.156 C  
DOCKED: ATOM      7  C12 UNL     1       4.026  -3.567   4.052 +0.00 +0.00    +0.038 C  
DOCKED: BRANCH   6  10
DOCKED: ATOM      8  C10 UNL     1       4.574  -2.582   1.098 +0.00 +0.00    +0.234 C  
DOCKED: ATOM      9  O3  UNL     1       3.381  -2.296   1.208 +0.00 -0.00    -0.274 OA 
DOCKED: ATOM     10  N2  UNL     1       5.401  -2.789   2.182 +0.00 -0.00    -0.303 N  
DOCKED: ATOM     11  H19 UNL     1       6.400  -2.710   2.028 +0.00 +0.00    +0.149 HD 
DOCKED: BRANCH   8  12
DOCKED: ATOM     12  C4  UNL     1       5.277  -2.695  -0.270 +0.00 +0.00    +0.162 C  
DOCKED: BRANCH  12  13
DOCKED: ATOM     13  N1  UNL     1       5.492  -4.106  -0.543 +0.00 -0.00    -0.270 N  
DOCKED: ATOM     14  C5  UNL     1       6.299  -4.840   0.274 +0.00 +0.00    +0.401 C  
DOCKED: ATOM     15  O1  UNL     1       7.110  -4.374   1.053 +0.00 -0.00    -0.226 OA 
DOCKED: ATOM     16  H9  UNL     1       4.693  -4.636  -0.868 +0.00 +0.00    +0.153 HD 
DOCKED: BRANCH  14  17
DOCKED: ATOM     17  O2  UNL     1       6.023  -6.151   0.092 +0.00 -0.00    -0.445 OA 
DOCKED: BRANCH  17  18
DOCKED: ATOM     18  C6  UNL     1       4.798  -6.727   0.613 +0.00 +0.00    +0.107 C  
DOCKED: ATOM     19  C7  UNL     1       3.695  -6.734  -0.453 +0.00 +0.00    +0.055 C  
DOCKED: ATOM     20  C8  UNL     1       4.345  -6.019   1.896 +0.00 +0.00    +0.055 C  
DOCKED: ATOM     21  C9  UNL     1       5.165  -8.177   0.960 +0.00 +0.00    +0.055 C  
DOCKED: ENDBRANCH  17  18
DOCKED: ENDBRANCH  14  17
DOCKED: ENDBRANCH  12  13
DOCKED: BRANCH  12  22
DOCKED: ATOM     22  C3  UNL     1       4.399  -2.044  -1.342 +0.00 +0.00    +0.031 C  
DOCKED: BRANCH  22  24
DOCKED: ATOM     23  C1  UNL     1       5.698   0.017  -0.686 +0.00 +0.00    +0.004 C  
DOCKED: ATOM     24  C2  UNL     1       4.951  -0.694  -1.805 +0.00 -0.00    -0.001 C  
DOCKED: ENDBRANCH  22  24
DOCKED: ENDBRANCH  12  22
DOCKED: ENDBRANCH   8  12
DOCKED: ENDBRANCH   6  10
DOCKED: ENDBRANCH   2   6
DOCKED: ENDBRANCH   1   4
DOCKED: BRANCH   1  25
DOCKED: ATOM     25  C15 UNL     1       8.643  -4.125   5.569 +0.00 +0.00    +0.060 C  
DOCKED: BRANCH  25  26
DOCKED: ATOM     26  C16 UNL     1       7.950  -5.349   5.002 +0.00 -0.00    -0.046 A  
DOCKED: ATOM     27  C17 UNL     1       6.703  -5.749   5.502 +0.00 +0.00    +0.004 A  
DOCKED: ATOM     28  C18 UNL     1       6.039  -6.849   4.956 +0.00 +0.00    +0.000 A  
DOCKED: ATOM     29  C19 UNL     1       6.614  -7.559   3.905 +0.00 +0.00    +0.000 A  
DOCKED: ATOM     30  C20 UNL     1       7.853  -7.173   3.401 +0.00 +0.00    +0.000 A  
DOCKED: ATOM     31  C21 UNL     1       8.520  -6.074   3.947 +0.00 +0.00    +0.004 A  
DOCKED: ENDBRANCH  25  26
DOCKED: ENDBRANCH   1  25
DOCKED: BRANCH   1  32
DOCKED: ATOM     32  C22 UNL     1       9.847  -2.915   3.612 +0.00 +0.00    +0.136 C  
DOCKED: BRANCH  32  33
DOCKED: ATOM     33  O5  UNL     1       9.513  -3.602   2.396 +0.00 -0.00    -0.390 OA 
DOCKED: ATOM     34  H34 UNL     1       8.602  -3.341   2.158 +0.00 +0.00    +0.210 HD 
DOCKED: ENDBRANCH  32  33
DOCKED: BRANCH  32  35
DOCKED: ATOM     35  C23 UNL     1      10.344  -1.511   3.222 +0.00 +0.00    +0.045 C  
DOCKED: BRANCH  35  36
DOCKED: ATOM     36  C24 UNL     1       9.203  -0.581   2.776 +0.00 +0.00    +0.074 C  
DOCKED: ATOM     37  C25 UNL     1       9.636   0.884   2.717 +0.00 +0.00    +0.017 C  
DOCKED: BRANCH  36  38
DOCKED: ATOM     38  C26 UNL     1       8.625  -1.042   1.447 +0.00 +0.00    +0.217 C  
DOCKED: ATOM     39  O6  UNL     1       7.657  -1.801   1.403 +0.00 -0.00    -0.276 OA 
DOCKED: ATOM     40  N4  UNL     1       9.275  -0.577   0.326 +0.00 -0.00    -0.304 N  
DOCKED: ATOM     41  H41 UNL     1      10.254  -0.354   0.466 +0.00 +0.00    +0.149 HD 
DOCKED: BRANCH  40  42
DOCKED: ATOM     42  C27 UNL     1       8.944  -1.129  -0.984 +0.00 +0.00    +0.161 C  
DOCKED: BRANCH  42  43
DOCKED: ATOM     43  C28 UNL     1       9.800  -2.397  -1.207 +0.00 +0.00    +0.234 C  
DOCKED: ATOM     44  O7  UNL     1      10.675  -2.461  -2.069 +0.00 -0.00    -0.274 OA 
DOCKED: ATOM     45  N5  UNL     1       9.477  -3.453  -0.383 +0.00 -0.00    -0.310 N  
DOCKED: ATOM     46  H43 UNL     1       8.854  -3.290   0.399 +0.00 +0.00    +0.149 HD 
DOCKED: BRANCH  45  47
DOCKED: ATOM     47  C29 UNL     1      10.253  -4.674  -0.369 +0.00 +0.00    +0.139 C  
DOCKED: BRANCH  47  48
DOCKED: ATOM     48  C30 UNL     1       9.391  -5.876  -0.658 +0.00 -0.00    -0.027 A  
DOCKED: ATOM     49  C31 UNL     1       8.710  -5.986  -1.873 +0.00 +0.00    +0.025 A  
DOCKED: ATOM     50  C32 UNL     1       7.944  -7.120  -2.109 +0.00 +0.00    +0.111 A  
DOCKED: ATOM     51  N6  UNL     1       7.814  -8.137  -1.233 +0.00 -0.00    -0.263 NA 
DOCKED: ATOM     52  C33 UNL     1       8.490  -8.020  -0.072 +0.00 +0.00    +0.111 A  
DOCKED: ATOM     53  C34 UNL     1       9.284  -6.931   0.256 +0.00 +0.00    +0.025 A  
DOCKED: ENDBRANCH  47  48
DOCKED: ENDBRANCH  45  47
DOCKED: ENDBRANCH  42  43
DOCKED: BRANCH  42  54
DOCKED: ATOM     54  C35 UNL     1       9.139  -0.108  -2.130 +0.00 +0.00    +0.012 C  
DOCKED: ATOM     55  C36 UNL     1       8.897   1.344  -1.697 +0.00 +0.00    +0.009 C  
DOCKED: ATOM     56  C37 UNL     1       8.246  -0.453  -3.326 +0.00 +0.00    +0.009 C  
DOCKED: ENDBRANCH  42  54
DOCKED: ENDBRANCH  40  42
DOCKED: ENDBRANCH  36  38
DOCKED: ENDBRANCH  35  36
DOCKED: ENDBRANCH  32  35
DOCKED: ENDBRANCH   1  32
DOCKED: TORSDOF 21
DOCKED: TER
DOCKED: ENDMDL
________________________________________________________________________________


    FINAL DOCKED STATE:
    ________________________


Run:   11 / 20
Time taken for this run:   1.417s

DOCKED: MODEL        11
DOCKED: USER    Run = 11
DOCKED: USER
DOCKED: USER    Estimated Free Energy of Binding    =  +6.26 kcal/mol  [=(1)+(2)+(3)-(4)]
DOCKED: USER
DOCKED: USER    (1) Final Intermolecular Energy     =  +0.00 kcal/mol
DOCKED: USER        vdW + Hbond + desolv Energy     =  +0.00 kcal/mol
DOCKED: USER        Electrostatic Energy            =  +0.00 kcal/mol
DOCKED: USER        Moving Ligand-Fixed Receptor    =  +0.00 kcal/mol
DOCKED: USER        Moving Ligand-Moving Receptor   =  +0.00 kcal/mol
DOCKED: USER    (2) Final Total Internal Energy     = -14.70 kcal/mol
DOCKED: USER    (3) Torsional Free Energy           =  +6.26 kcal/mol
DOCKED: USER    (4) Unbound System's Energy         = -14.70 kcal/mol
DOCKED: USER
DOCKED: USER
DOCKED: REMARK  Name = ligands/ligand_11.pdb
DOCKED: REMARK  29 active torsions:
DOCKED: REMARK  status: ('A' for Active; 'I' for Inactive)
DOCKED: REMARK    1  A    between atoms: C1_1  and  C2_2
DOCKED: REMARK    2  A    between atoms: C2_2  and  C3_3
DOCKED: REMARK    3  A    between atoms: C3_3  and  C4_4
DOCKED: REMARK    4  A    between atoms: C4_4  and  N1_5
DOCKED: REMARK    5  A    between atoms: C4_4  and  C10_13
DOCKED: REMARK    6  A    between atoms: C5_6  and  O2_8
DOCKED: REMARK    7  A    between atoms: O2_8  and  C6_9
DOCKED: REMARK    8  A    between atoms: C6_9  and  C7_10
DOCKED: REMARK    9  A    between atoms: C6_9  and  C8_11
DOCKED: REMARK   10  A    between atoms: C6_9  and  C9_12
DOCKED: REMARK   11  A    between atoms: N2_15  and  C11_16
DOCKED: REMARK   12  A    between atoms: C11_16  and  C12_17
DOCKED: REMARK   13  A    between atoms: C11_16  and  C13_18
DOCKED: REMARK   14  A    between atoms: N3_20  and  C14_21
DOCKED: REMARK   15  A    between atoms: C14_21  and  C15_22
DOCKED: REMARK   16  A    between atoms: C14_21  and  C22_29
DOCKED: REMARK   17  A    between atoms: C15_22  and  C16_23
DOCKED: REMARK   18  A    between atoms: C22_29  and  O5_30
DOCKED: REMARK   19  A    between atoms: C22_29  and  C23_31
DOCKED: REMARK   20  A    between atoms: C23_31  and  C24_32
DOCKED: REMARK   21  A    between atoms: C24_32  and  C25_33
DOCKED: REMARK   22  A    between atoms: C24_32  and  C26_34
DOCKED: REMARK   23  A    between atoms: N4_36  and  C27_37
DOCKED: REMARK   24  A    between atoms: C27_37  and  C28_38
DOCKED: REMARK   25  A    between atoms: C27_37  and  C35_48
DOCKED: REMARK   26  A    between atoms: N5_40  and  C29_41
DOCKED: REMARK   27  A    between atoms: C29_41  and  C30_42
DOCKED: REMARK   28  A    between atoms: C35_48  and  C36_49
DOCKED: REMARK   29  A    between atoms: C35_48  and  C37_50
DOCKED: REMARK                            x       y       z     vdW  Elec       q    Type
DOCKED: REMARK                         _______ _______ _______ _____ _____    ______ ____
DOCKED: USER                              x       y       z     vdW  Elec       q    Type
DOCKED: USER                           _______ _______ _______ _____ _____    ______ ____
DOCKED: ROOT
DOCKED: ATOM      1  C14 UNL     1      12.545  -5.117  -3.595 +0.00 +0.00    +0.106 C  
DOCKED: ENDROOT
DOCKED: BRANCH   1   4
DOCKED: ATOM      2  C13 UNL     1      11.054  -4.257  -1.796 +0.00 +0.00    +0.233 C  
DOCKED: ATOM      3  O4  UNL     1      10.053  -4.280  -2.512 +0.00 -0.00    -0.274 OA 
DOCKED: ATOM      4  N3  UNL     1      12.287  -4.695  -2.220 +0.00 -0.00    -0.308 N  
DOCKED: ATOM      5  H24 UNL     1      13.063  -4.680  -1.568 +0.00 +0.00    +0.149 HD 
DOCKED: BRANCH   2   6
DOCKED: ATOM      6  C11 UNL     1      11.005  -3.775  -0.334 +0.00 +0.00    +0.156 C  
DOCKED: ATOM      7  C12 UNL     1      10.919  -2.258  -0.281 +0.00 +0.00    +0.038 C  
DOCKED: BRANCH   6  10
DOCKED: ATOM      8  C10 UNL     1      12.304  -4.332   1.683 +0.00 +0.00    +0.234 C  
DOCKED: ATOM      9  O3  UNL     1      11.443  -3.873   2.436 +0.00 -0.00    -0.274 OA 
DOCKED: ATOM     10  N2  UNL     1      12.225  -4.243   0.309 +0.00 -0.00    -0.303 N  
DOCKED: ATOM     11  H19 UNL     1      12.783  -4.893  -0.233 +0.00 +0.00    +0.149 HD 
DOCKED: BRANCH   8  12
DOCKED: ATOM     12  C4  UNL     1      13.539  -5.094   2.202 +0.00 +0.00    +0.162 C  
DOCKED: BRANCH  12  13
DOCKED: ATOM     13  N1  UNL     1      14.694  -4.226   2.048 +0.00 -0.00    -0.270 N  
DOCKED: ATOM     14  C5  UNL     1      15.088  -3.835   0.803 +0.00 +0.00    +0.401 C  
DOCKED: ATOM     15  O1  UNL     1      14.754  -4.377  -0.235 +0.00 -0.00    -0.226 OA 
DOCKED: ATOM     16  H9  UNL     1      14.807  -3.490   2.733 +0.00 +0.00    +0.153 HD 
DOCKED: BRANCH  14  17
DOCKED: ATOM     17  O2  UNL     1      15.875  -2.743   0.920 +0.00 -0.00    -0.445 OA 
DOCKED: BRANCH  17  18
DOCKED: ATOM     18  C6  UNL     1      15.302  -1.452   1.254 +0.00 +0.00    +0.107 C  
DOCKED: ATOM     19  C7  UNL     1      15.362  -1.197   2.766 +0.00 +0.00    +0.055 C  
DOCKED: ATOM     20  C8  UNL     1      13.875  -1.313   0.710 +0.00 +0.00    +0.055 C  
DOCKED: ATOM     21  C9  UNL     1      16.198  -0.430   0.540 +0.00 +0.00    +0.055 C  
DOCKED: ENDBRANCH  17  18
DOCKED: ENDBRANCH  14  17
DOCKED: ENDBRANCH  12  13
DOCKED: BRANCH  12  22
DOCKED: ATOM     22  C3  UNL     1      13.316  -5.475   3.668 +0.00 +0.00    +0.031 C  
DOCKED: BRANCH  22  24
DOCKED: ATOM     23  C1  UNL     1      12.266  -7.523   2.635 +0.00 +0.00    +0.004 C  
DOCKED: ATOM     24  C2  UNL     1      13.004  -6.963   3.842 +0.00 -0.00    -0.001 C  
DOCKED: ENDBRANCH  22  24
DOCKED: ENDBRANCH  12  22
DOCKED: ENDBRANCH   8  12
DOCKED: ENDBRANCH   6  10
DOCKED: ENDBRANCH   2   6
DOCKED: ENDBRANCH   1   4
DOCKED: BRANCH   1  25
DOCKED: ATOM     25  C15 UNL     1      12.718  -3.891  -4.527 +0.00 +0.00    +0.060 C  
DOCKED: BRANCH  25  26
DOCKED: ATOM     26  C16 UNL     1      13.467  -2.764  -3.843 +0.00 -0.00    -0.046 A  
DOCKED: ATOM     27  C17 UNL     1      12.791  -1.595  -3.464 +0.00 +0.00    +0.004 A  
DOCKED: ATOM     28  C18 UNL     1      13.465  -0.571  -2.796 +0.00 +0.00    +0.000 A  
DOCKED: ATOM     29  C19 UNL     1      14.819  -0.706  -2.497 +0.00 +0.00    +0.000 A  
DOCKED: ATOM     30  C20 UNL     1      15.501  -1.861  -2.870 +0.00 +0.00    +0.000 A  
DOCKED: ATOM     31  C21 UNL     1      14.830  -2.886  -3.540 +0.00 +0.00    +0.004 A  
DOCKED: ENDBRANCH  25  26
DOCKED: ENDBRANCH   1  25
DOCKED: BRANCH   1  32
DOCKED: ATOM     32  C22 UNL     1      13.717  -6.138  -3.692 +0.00 +0.00    +0.136 C  
DOCKED: BRANCH  32  33
DOCKED: ATOM     33  O5  UNL     1      14.694  -5.841  -2.682 +0.00 -0.00    -0.390 OA 
DOCKED: ATOM     34  H34 UNL     1      14.206  -5.631  -1.863 +0.00 +0.00    +0.210 HD 
DOCKED: ENDBRANCH  32  33
DOCKED: BRANCH  32  35
DOCKED: ATOM     35  C23 UNL     1      13.313  -7.614  -3.518 +0.00 +0.00    +0.045 C  
DOCKED: BRANCH  35  36
DOCKED: ATOM     36  C24 UNL     1      12.412  -7.841  -2.292 +0.00 +0.00    +0.074 C  
DOCKED: ATOM     37  C25 UNL     1      11.744  -9.216  -2.307 +0.00 +0.00    +0.017 C  
DOCKED: BRANCH  36  38
DOCKED: ATOM     38  C26 UNL     1      13.191  -7.617  -1.005 +0.00 +0.00    +0.217 C  
DOCKED: ATOM     39  O6  UNL     1      13.212  -6.516  -0.457 +0.00 -0.00    -0.276 OA 
DOCKED: ATOM     40  N4  UNL     1      13.879  -8.712  -0.533 +0.00 -0.00    -0.304 N  
DOCKED: ATOM     41  H41 UNL     1      14.149  -9.382  -1.244 +0.00 +0.00    +0.149 HD 
DOCKED: BRANCH  40  42
DOCKED: ATOM     42  C27 UNL     1      14.831  -8.552   0.563 +0.00 +0.00    +0.161 C  
DOCKED: BRANCH  42  43
DOCKED: ATOM     43  C28 UNL     1      16.196  -8.142  -0.036 +0.00 +0.00    +0.234 C  
DOCKED: ATOM     44  O7  UNL     1      17.183  -8.876   0.004 +0.00 -0.00    -0.274 OA 
DOCKED: ATOM     45  N5  UNL     1      16.220  -6.879  -0.584 +0.00 -0.00    -0.310 N  
DOCKED: ATOM     46  H43 UNL     1      15.345  -6.387  -0.718 +0.00 +0.00    +0.149 HD 
DOCKED: BRANCH  45  47
DOCKED: ATOM     47  C29 UNL     1      17.377  -6.379  -1.296 +0.00 +0.00    +0.139 C  
DOCKED: BRANCH  47  48
DOCKED: ATOM     48  C30 UNL     1      17.861  -5.077  -0.711 +0.00 -0.00    -0.027 A  
DOCKED: ATOM     49  C31 UNL     1      18.317  -5.017   0.609 +0.00 +0.00    +0.025 A  
DOCKED: ATOM     50  C32 UNL     1      18.775  -3.802   1.102 +0.00 +0.00    +0.111 A  
DOCKED: ATOM     51  N6  UNL     1      18.812  -2.662   0.382 +0.00 -0.00    -0.263 NA 
DOCKED: ATOM     52  C33 UNL     1      18.381  -2.743  -0.893 +0.00 +0.00    +0.111 A  
DOCKED: ATOM     53  C34 UNL     1      17.910  -3.909  -1.480 +0.00 +0.00    +0.025 A  
DOCKED: ENDBRANCH  47  48
DOCKED: ENDBRANCH  45  47
DOCKED: ENDBRANCH  42  43
DOCKED: BRANCH  42  54
DOCKED: ATOM     54  C35 UNL     1      14.955  -9.822   1.436 +0.00 +0.00    +0.012 C  
DOCKED: ATOM     55  C36 UNL     1      13.665 -10.650   1.492 +0.00 +0.00    +0.009 C  
DOCKED: ATOM     56  C37 UNL     1      15.410  -9.466   2.855 +0.00 +0.00    +0.009 C  
DOCKED: ENDBRANCH  42  54
DOCKED: ENDBRANCH  40  42
DOCKED: ENDBRANCH  36  38
DOCKED: ENDBRANCH  35  36
DOCKED: ENDBRANCH  32  35
DOCKED: ENDBRANCH   1  32
DOCKED: TORSDOF 21
DOCKED: TER
DOCKED: ENDMDL
________________________________________________________________________________


    FINAL DOCKED STATE:
    ________________________


Run:   12 / 20
Time taken for this run:   1.417s

DOCKED: MODEL        12
DOCKED: USER    Run = 12
DOCKED: USER
DOCKED: USER    Estimated Free Energy of Binding    =  +6.26 kcal/mol  [=(1)+(2)+(3)-(4)]
DOCKED: USER
DOCKED: USER    (1) Final Intermolecular Energy     =  +0.00 kcal/mol
DOCKED: USER        vdW + Hbond + desolv Energy     =  +0.00 kcal/mol
DOCKED: USER        Electrostatic Energy            =  +0.00 kcal/mol
DOCKED: USER        Moving Ligand-Fixed Receptor    =  +0.00 kcal/mol
DOCKED: USER        Moving Ligand-Moving Receptor   =  +0.00 kcal/mol
DOCKED: USER    (2) Final Total Internal Energy     = -14.80 kcal/mol
DOCKED: USER    (3) Torsional Free Energy           =  +6.26 kcal/mol
DOCKED: USER    (4) Unbound System's Energy         = -14.80 kcal/mol
DOCKED: USER
DOCKED: USER
DOCKED: REMARK  Name = ligands/ligand_11.pdb
DOCKED: REMARK  29 active torsions:
DOCKED: REMARK  status: ('A' for Active; 'I' for Inactive)
DOCKED: REMARK    1  A    between atoms: C1_1  and  C2_2
DOCKED: REMARK    2  A    between atoms: C2_2  and  C3_3
DOCKED: REMARK    3  A    between atoms: C3_3  and  C4_4
DOCKED: REMARK    4  A    between atoms: C4_4  and  N1_5
DOCKED: REMARK    5  A    between atoms: C4_4  and  C10_13
DOCKED: REMARK    6  A    between atoms: C5_6  and  O2_8
DOCKED: REMARK    7  A    between atoms: O2_8  and  C6_9
DOCKED: REMARK    8  A    between atoms: C6_9  and  C7_10
DOCKED: REMARK    9  A    between atoms: C6_9  and  C8_11
DOCKED: REMARK   10  A    between atoms: C6_9  and  C9_12
DOCKED: REMARK   11  A    between atoms: N2_15  and  C11_16
DOCKED: REMARK   12  A    between atoms: C11_16  and  C12_17
DOCKED: REMARK   13  A    between atoms: C11_16  and  C13_18
DOCKED: REMARK   14  A    between atoms: N3_20  and  C14_21
DOCKED: REMARK   15  A    between atoms: C14_21  and  C15_22
DOCKED: REMARK   16  A    between atoms: C14_21  and  C22_29
DOCKED: REMARK   17  A    between atoms: C15_22  and  C16_23
DOCKED: REMARK   18  A    between atoms: C22_29  and  O5_30
DOCKED: REMARK   19  A    between atoms: C22_29  and  C23_31
DOCKED: REMARK   20  A    between atoms: C23_31  and  C24_32
DOCKED: REMARK   21  A    between atoms: C24_32  and  C25_33
DOCKED: REMARK   22  A    between atoms: C24_32  and  C26_34
DOCKED: REMARK   23  A    between atoms: N4_36  and  C27_37
DOCKED: REMARK   24  A    between atoms: C27_37  and  C28_38
DOCKED: REMARK   25  A    between atoms: C27_37  and  C35_48
DOCKED: REMARK   26  A    between atoms: N5_40  and  C29_41
DOCKED: REMARK   27  A    between atoms: C29_41  and  C30_42
DOCKED: REMARK   28  A    between atoms: C35_48  and  C36_49
DOCKED: REMARK   29  A    between atoms: C35_48  and  C37_50
DOCKED: REMARK                            x       y       z     vdW  Elec       q    Type
DOCKED: REMARK                         _______ _______ _______ _____ _____    ______ ____
DOCKED: USER                              x       y       z     vdW  Elec       q    Type
DOCKED: USER                           _______ _______ _______ _____ _____    ______ ____
DOCKED: ROOT
DOCKED: ATOM      1  C14 UNL     1       5.176  -7.003  -3.846 +0.00 +0.00    +0.106 C  
DOCKED: ENDROOT
DOCKED: BRANCH   1   4
DOCKED: ATOM      2  C13 UNL     1       6.759  -8.796  -3.153 +0.00 +0.00    +0.233 C  
DOCKED: ATOM      3  O4  UNL     1       5.859  -9.598  -2.907 +0.00 -0.00    -0.274 OA 
DOCKED: ATOM      4  N3  UNL     1       6.523  -7.539  -3.662 +0.00 -0.00    -0.308 N  
DOCKED: ATOM      5  H24 UNL     1       7.313  -6.940  -3.874 +0.00 +0.00    +0.149 HD 
DOCKED: BRANCH   2   6
DOCKED: ATOM      6  C11 UNL     1       8.245  -9.145  -2.955 +0.00 +0.00    +0.156 C  
DOCKED: ATOM      7  C12 UNL     1       8.403 -10.173  -1.845 +0.00 +0.00    +0.038 C  
DOCKED: BRANCH   6  10
DOCKED: ATOM      8  C10 UNL     1      10.243  -7.705  -2.982 +0.00 +0.00    +0.234 C  
DOCKED: ATOM      9  O3  UNL     1      10.950  -8.593  -3.460 +0.00 -0.00    -0.274 OA 
DOCKED: ATOM     10  N2  UNL     1       8.931  -7.908  -2.609 +0.00 -0.00    -0.303 N  
DOCKED: ATOM     11  H19 UNL     1       8.339  -7.089  -2.524 +0.00 +0.00    +0.149 HD 
DOCKED: BRANCH   8  12
DOCKED: ATOM     12  C4  UNL     1      10.743  -6.259  -2.791 +0.00 +0.00    +0.162 C  
DOCKED: BRANCH  12  13
DOCKED: ATOM     13  N1  UNL     1      10.094  -5.430  -3.792 +0.00 -0.00    -0.270 N  
DOCKED: ATOM     14  C5  UNL     1       8.850  -4.928  -3.555 +0.00 +0.00    +0.401 C  
DOCKED: ATOM     15  O1  UNL     1       8.082  -5.343  -2.706 +0.00 -0.00    -0.226 OA 
DOCKED: ATOM     16  H9  UNL     1      10.681  -4.775  -4.294 +0.00 +0.00    +0.153 HD 
DOCKED: BRANCH  14  17
DOCKED: ATOM     17  O2  UNL     1       8.634  -3.889  -4.391 +0.00 -0.00    -0.445 OA 
DOCKED: BRANCH  17  18
DOCKED: ATOM     18  C6  UNL     1       8.633  -2.527  -3.891 +0.00 +0.00    +0.107 C  
DOCKED: ATOM     19  C7  UNL     1      10.034  -1.907  -3.975 +0.00 +0.00    +0.055 C  
DOCKED: ATOM     20  C8  UNL     1       8.062  -2.450  -2.470 +0.00 +0.00    +0.055 C  
DOCKED: ATOM     21  C9  UNL     1       7.694  -1.764  -4.837 +0.00 +0.00    +0.055 C  
DOCKED: ENDBRANCH  17  18
DOCKED: ENDBRANCH  14  17
DOCKED: ENDBRANCH  12  13
DOCKED: BRANCH  12  22
DOCKED: ATOM     22  C3  UNL     1      10.406  -5.793  -1.372 +0.00 +0.00    +0.031 C  
DOCKED: BRANCH  22  24
DOCKED: ATOM     23  C1  UNL     1      10.201  -3.658  -0.043 +0.00 +0.00    +0.004 C  
DOCKED: ATOM     24  C2  UNL     1      11.046  -4.445  -1.035 +0.00 -0.00    -0.001 C  
DOCKED: ENDBRANCH  22  24
DOCKED: ENDBRANCH  12  22
DOCKED: ENDBRANCH   8  12
DOCKED: ENDBRANCH   6  10
DOCKED: ENDBRANCH   2   6
DOCKED: ENDBRANCH   1   4
DOCKED: BRANCH   1  25
DOCKED: ATOM     25  C15 UNL     1       4.434  -6.893  -2.490 +0.00 +0.00    +0.060 C  
DOCKED: BRANCH  25  26
DOCKED: ATOM     26  C16 UNL     1       5.270  -6.176  -1.447 +0.00 -0.00    -0.046 A  
DOCKED: ATOM     27  C17 UNL     1       6.063  -6.909  -0.554 +0.00 +0.00    +0.004 A  
DOCKED: ATOM     28  C18 UNL     1       6.868  -6.255   0.381 +0.00 +0.00    +0.000 A  
DOCKED: ATOM     29  C19 UNL     1       6.889  -4.863   0.431 +0.00 +0.00    +0.000 A  
DOCKED: ATOM     30  C20 UNL     1       6.105  -4.125  -0.451 +0.00 +0.00    +0.000 A  
DOCKED: ATOM     31  C21 UNL     1       5.297  -4.776  -1.385 +0.00 +0.00    +0.004 A  
DOCKED: ENDBRANCH  25  26
DOCKED: ENDBRANCH   1  25
DOCKED: BRANCH   1  32
DOCKED: ATOM     32  C22 UNL     1       5.173  -5.677  -4.663 +0.00 +0.00    +0.136 C  
DOCKED: BRANCH  32  33
DOCKED: ATOM     33  O5  UNL     1       6.513  -5.168  -4.752 +0.00 -0.00    -0.390 OA 
DOCKED: ATOM     34  H34 UNL     1       6.631  -4.538  -4.015 +0.00 +0.00    +0.210 HD 
DOCKED: ENDBRANCH  32  33
DOCKED: BRANCH  32  35
DOCKED: ATOM     35  C23 UNL     1       4.631  -5.796  -6.099 +0.00 +0.00    +0.045 C  
DOCKED: BRANCH  35  36
DOCKED: ATOM     36  C24 UNL     1       4.810  -4.500  -6.909 +0.00 +0.00    +0.074 C  
DOCKED: ATOM     37  C25 UNL     1       4.755  -3.251  -6.029 +0.00 +0.00    +0.017 C  
DOCKED: BRANCH  36  38
DOCKED: ATOM     38  C26 UNL     1       6.093  -4.549  -7.723 +0.00 +0.00    +0.217 C  
DOCKED: ATOM     39  O6  UNL     1       6.111  -5.027  -8.857 +0.00 -0.00    -0.276 OA 
DOCKED: ATOM     40  N4  UNL     1       7.212  -4.055  -7.092 +0.00 -0.00    -0.304 N  
DOCKED: ATOM     41  H41 UNL     1       7.186  -4.107  -6.080 +0.00 +0.00    +0.149 HD 
DOCKED: BRANCH  40  42
DOCKED: ATOM     42  C27 UNL     1       8.529  -4.254  -7.691 +0.00 +0.00    +0.161 C  
DOCKED: BRANCH  42  43
DOCKED: ATOM     43  C28 UNL     1       8.906  -5.747  -7.548 +0.00 +0.00    +0.234 C  
DOCKED: ATOM     44  O7  UNL     1       9.407  -6.394  -8.467 +0.00 -0.00    -0.274 OA 
DOCKED: ATOM     45  N5  UNL     1       8.603  -6.294  -6.321 +0.00 -0.00    -0.310 N  
DOCKED: ATOM     46  H43 UNL     1       8.331  -5.679  -5.564 +0.00 +0.00    +0.149 HD 
DOCKED: BRANCH  45  47
DOCKED: ATOM     47  C29 UNL     1       8.995  -7.642  -5.970 +0.00 +0.00    +0.139 C  
DOCKED: BRANCH  47  48
DOCKED: ATOM     48  C30 UNL     1       7.926  -8.639  -6.337 +0.00 -0.00    -0.027 A  
DOCKED: ATOM     49  C31 UNL     1       8.146 -10.009  -6.176 +0.00 +0.00    +0.025 A  
DOCKED: ATOM     50  C32 UNL     1       7.127 -10.893  -6.505 +0.00 +0.00    +0.111 A  
DOCKED: ATOM     51  N6  UNL     1       5.921 -10.512  -6.973 +0.00 -0.00    -0.263 NA 
DOCKED: ATOM     52  C33 UNL     1       5.722  -9.185  -7.109 +0.00 +0.00    +0.111 A  
DOCKED: ATOM     53  C34 UNL     1       6.673  -8.223  -6.804 +0.00 +0.00    +0.025 A  
DOCKED: ENDBRANCH  47  48
DOCKED: ENDBRANCH  45  47
DOCKED: ENDBRANCH  42  43
DOCKED: BRANCH  42  54
DOCKED: ATOM     54  C35 UNL     1       9.611  -3.337  -7.074 +0.00 +0.00    +0.012 C  
DOCKED: ATOM     55  C36 UNL     1       9.912  -2.096  -7.924 +0.00 +0.00    +0.009 C  
DOCKED: ATOM     56  C37 UNL     1      10.903  -4.117  -6.813 +0.00 +0.00    +0.009 C  
DOCKED: ENDBRANCH  42  54
DOCKED: ENDBRANCH  40  42
DOCKED: ENDBRANCH  36  38
DOCKED: ENDBRANCH  35  36
DOCKED: ENDBRANCH  32  35
DOCKED: ENDBRANCH   1  32
DOCKED: TORSDOF 21
DOCKED: TER
DOCKED: ENDMDL
________________________________________________________________________________


    FINAL DOCKED STATE:
    ________________________


Run:   13 / 20
Time taken for this run:   1.417s

DOCKED: MODEL        13
DOCKED: USER    Run = 13
DOCKED: USER
DOCKED: USER    Estimated Free Energy of Binding    =  +6.26 kcal/mol  [=(1)+(2)+(3)-(4)]
DOCKED: USER
DOCKED: USER    (1) Final Intermolecular Energy     =  +0.00 kcal/mol
DOCKED: USER        vdW + Hbond + desolv Energy     =  +0.00 kcal/mol
DOCKED: USER        Electrostatic Energy            =  +0.00 kcal/mol
DOCKED: USER        Moving Ligand-Fixed Receptor    =  +0.00 kcal/mol
DOCKED: USER        Moving Ligand-Moving Receptor   =  +0.00 kcal/mol
DOCKED: USER    (2) Final Total Internal Energy     = -14.68 kcal/mol
DOCKED: USER    (3) Torsional Free Energy           =  +6.26 kcal/mol
DOCKED: USER    (4) Unbound System's Energy         = -14.68 kcal/mol
DOCKED: USER
DOCKED: USER
DOCKED: REMARK  Name = ligands/ligand_11.pdb
DOCKED: REMARK  29 active torsions:
DOCKED: REMARK  status: ('A' for Active; 'I' for Inactive)
DOCKED: REMARK    1  A    between atoms: C1_1  and  C2_2
DOCKED: REMARK    2  A    between atoms: C2_2  and  C3_3
DOCKED: REMARK    3  A    between atoms: C3_3  and  C4_4
DOCKED: REMARK    4  A    between atoms: C4_4  and  N1_5
DOCKED: REMARK    5  A    between atoms: C4_4  and  C10_13
DOCKED: REMARK    6  A    between atoms: C5_6  and  O2_8
DOCKED: REMARK    7  A    between atoms: O2_8  and  C6_9
DOCKED: REMARK    8  A    between atoms: C6_9  and  C7_10
DOCKED: REMARK    9  A    between atoms: C6_9  and  C8_11
DOCKED: REMARK   10  A    between atoms: C6_9  and  C9_12
DOCKED: REMARK   11  A    between atoms: N2_15  and  C11_16
DOCKED: REMARK   12  A    between atoms: C11_16  and  C12_17
DOCKED: REMARK   13  A    between atoms: C11_16  and  C13_18
DOCKED: REMARK   14  A    between atoms: N3_20  and  C14_21
DOCKED: REMARK   15  A    between atoms: C14_21  and  C15_22
DOCKED: REMARK   16  A    between atoms: C14_21  and  C22_29
DOCKED: REMARK   17  A    between atoms: C15_22  and  C16_23
DOCKED: REMARK   18  A    between atoms: C22_29  and  O5_30
DOCKED: REMARK   19  A    between atoms: C22_29  and  C23_31
DOCKED: REMARK   20  A    between atoms: C23_31  and  C24_32
DOCKED: REMARK   21  A    between atoms: C24_32  and  C25_33
DOCKED: REMARK   22  A    between atoms: C24_32  and  C26_34
DOCKED: REMARK   23  A    between atoms: N4_36  and  C27_37
DOCKED: REMARK   24  A    between atoms: C27_37  and  C28_38
DOCKED: REMARK   25  A    between atoms: C27_37  and  C35_48
DOCKED: REMARK   26  A    between atoms: N5_40  and  C29_41
DOCKED: REMARK   27  A    between atoms: C29_41  and  C30_42
DOCKED: REMARK   28  A    between atoms: C35_48  and  C36_49
DOCKED: REMARK   29  A    between atoms: C35_48  and  C37_50
DOCKED: REMARK                            x       y       z     vdW  Elec       q    Type
DOCKED: REMARK                         _______ _______ _______ _____ _____    ______ ____
DOCKED: USER                              x       y       z     vdW  Elec       q    Type
DOCKED: USER                           _______ _______ _______ _____ _____    ______ ____
DOCKED: ROOT
DOCKED: ATOM      1  C14 UNL     1       5.280  -4.662   1.258 +0.00 +0.00    +0.106 C  
DOCKED: ENDROOT
DOCKED: BRANCH   1   4
DOCKED: ATOM      2  C13 UNL     1       7.620  -4.992   2.043 +0.00 +0.00    +0.233 C  
DOCKED: ATOM      3  O4  UNL     1       8.051  -5.194   0.908 +0.00 -0.00    -0.274 OA 
DOCKED: ATOM      4  N3  UNL     1       6.306  -4.674   2.299 +0.00 -0.00    -0.308 N  
DOCKED: ATOM      5  H24 UNL     1       6.025  -4.488   3.255 +0.00 +0.00    +0.149 HD 
DOCKED: BRANCH   2   6
DOCKED: ATOM      6  C11 UNL     1       8.530  -5.034   3.284 +0.00 +0.00    +0.156 C  
DOCKED: ATOM      7  C12 UNL     1       8.882  -6.472   3.634 +0.00 +0.00    +0.038 C  
DOCKED: BRANCH   6  10
DOCKED: ATOM      8  C10 UNL     1       8.448  -3.985   5.511 +0.00 +0.00    +0.234 C  
DOCKED: ATOM      9  O3  UNL     1       9.626  -4.259   5.749 +0.00 -0.00    -0.274 OA 
DOCKED: ATOM     10  N2  UNL     1       7.794  -4.406   4.373 +0.00 -0.00    -0.303 N  
DOCKED: ATOM     11  H19 UNL     1       6.959  -3.900   4.101 +0.00 +0.00    +0.149 HD 
DOCKED: BRANCH   8  12
DOCKED: ATOM     12  C4  UNL     1       7.597  -3.103   6.445 +0.00 +0.00    +0.162 C  
DOCKED: BRANCH  12  13
DOCKED: ATOM     13  N1  UNL     1       6.679  -3.971   7.162 +0.00 -0.00    -0.270 N  
DOCKED: ATOM     14  C5  UNL     1       5.746  -4.688   6.475 +0.00 +0.00    +0.401 C  
DOCKED: ATOM     15  O1  UNL     1       5.393  -4.457   5.332 +0.00 -0.00    -0.226 OA 
DOCKED: ATOM     16  H9  UNL     1       7.057  -4.488   7.946 +0.00 +0.00    +0.153 HD 
DOCKED: BRANCH  14  17
DOCKED: ATOM     17  O2  UNL     1       5.312  -5.700   7.258 +0.00 -0.00    -0.445 OA 
DOCKED: BRANCH  17  18
DOCKED: ATOM     18  C6  UNL     1       6.165  -6.841   7.530 +0.00 +0.00    +0.107 C  
DOCKED: ATOM     19  C7  UNL     1       6.928  -6.658   8.849 +0.00 +0.00    +0.055 C  
DOCKED: ATOM     20  C8  UNL     1       7.113  -7.126   6.360 +0.00 +0.00    +0.055 C  
DOCKED: ATOM     21  C9  UNL     1       5.198  -8.025   7.675 +0.00 +0.00    +0.055 C  
DOCKED: ENDBRANCH  17  18
DOCKED: ENDBRANCH  14  17
DOCKED: ENDBRANCH  12  13
DOCKED: BRANCH  12  22
DOCKED: ATOM     22  C3  UNL     1       8.521  -2.349   7.406 +0.00 +0.00    +0.031 C  
DOCKED: BRANCH  22  24
DOCKED: ATOM     23  C1  UNL     1       8.426  -0.599   5.590 +0.00 +0.00    +0.004 C  
DOCKED: ATOM     24  C2  UNL     1       8.607  -0.857   7.079 +0.00 -0.00    -0.001 C  
DOCKED: ENDBRANCH  22  24
DOCKED: ENDBRANCH  12  22
DOCKED: ENDBRANCH   8  12
DOCKED: ENDBRANCH   6  10
DOCKED: ENDBRANCH   2   6
DOCKED: ENDBRANCH   1   4
DOCKED: BRANCH   1  25
DOCKED: ATOM     25  C15 UNL     1       4.828  -6.102   0.910 +0.00 +0.00    +0.060 C  
DOCKED: BRANCH  25  26
DOCKED: ATOM     26  C16 UNL     1       4.771  -6.988   2.139 +0.00 -0.00    -0.046 A  
DOCKED: ATOM     27  C17 UNL     1       5.716  -8.008   2.318 +0.00 +0.00    +0.004 A  
DOCKED: ATOM     28  C18 UNL     1       5.696  -8.800   3.468 +0.00 +0.00    +0.000 A  
DOCKED: ATOM     29  C19 UNL     1       4.734  -8.580   4.450 +0.00 +0.00    +0.000 A  
DOCKED: ATOM     30  C20 UNL     1       3.789  -7.571   4.283 +0.00 +0.00    +0.000 A  
DOCKED: ATOM     31  C21 UNL     1       3.805  -6.779   3.133 +0.00 +0.00    +0.004 A  
DOCKED: ENDBRANCH  25  26
DOCKED: ENDBRANCH   1  25
DOCKED: BRANCH   1  32
DOCKED: ATOM     32  C22 UNL     1       4.098  -3.708   1.604 +0.00 +0.00    +0.136 C  
DOCKED: BRANCH  32  33
DOCKED: ATOM     33  O5  UNL     1       3.869  -3.725   3.021 +0.00 -0.00    -0.390 OA 
DOCKED: ATOM     34  H34 UNL     1       4.745  -3.727   3.454 +0.00 +0.00    +0.210 HD 
DOCKED: ENDBRANCH  32  33
DOCKED: BRANCH  32  35
DOCKED: ATOM     35  C23 UNL     1       4.301  -2.240   1.190 +0.00 +0.00    +0.045 C  
DOCKED: BRANCH  35  36
DOCKED: ATOM     36  C24 UNL     1       5.674  -1.690   1.613 +0.00 +0.00    +0.074 C  
DOCKED: ATOM     37  C25 UNL     1       6.018  -0.377   0.908 +0.00 +0.00    +0.017 C  
DOCKED: BRANCH  36  38
DOCKED: ATOM     38  C26 UNL     1       5.750  -1.543   3.125 +0.00 +0.00    +0.217 C  
DOCKED: ATOM     39  O6  UNL     1       6.247  -2.425   3.826 +0.00 -0.00    -0.276 OA 
DOCKED: ATOM     40  N4  UNL     1       5.204  -0.388   3.635 +0.00 -0.00    -0.304 N  
DOCKED: ATOM     41  H41 UNL     1       4.471   0.022   3.067 +0.00 +0.00    +0.149 HD 
DOCKED: BRANCH  40  42
DOCKED: ATOM     42  C27 UNL     1       5.025  -0.246   5.077 +0.00 +0.00    +0.161 C  
DOCKED: BRANCH  42  43
DOCKED: ATOM     43  C28 UNL     1       3.665  -0.876   5.461 +0.00 +0.00    +0.234 C  
DOCKED: ATOM     44  O7  UNL     1       2.723  -0.208   5.885 +0.00 -0.00    -0.274 OA 
DOCKED: ATOM     45  N5  UNL     1       3.614  -2.245   5.320 +0.00 -0.00    -0.310 N  
DOCKED: ATOM     46  H43 UNL     1       4.365  -2.716   4.831 +0.00 +0.00    +0.149 HD 
DOCKED: BRANCH  45  47
DOCKED: ATOM     47  C29 UNL     1       2.386  -2.986   5.517 +0.00 +0.00    +0.139 C  
DOCKED: BRANCH  47  48
DOCKED: ATOM     48  C30 UNL     1       2.523  -3.990   6.633 +0.00 -0.00    -0.027 A  
DOCKED: ATOM     49  C31 UNL     1       2.929  -3.586   7.907 +0.00 +0.00    +0.025 A  
DOCKED: ATOM     50  C32 UNL     1       3.021  -4.539   8.912 +0.00 +0.00    +0.111 A  
DOCKED: ATOM     51  N6  UNL     1       2.739  -5.846   8.739 +0.00 -0.00    -0.263 NA 
DOCKED: ATOM     52  C33 UNL     1       2.336  -6.215   7.506 +0.00 +0.00    +0.111 A  
DOCKED: ATOM     53  C34 UNL     1       2.207  -5.339   6.439 +0.00 +0.00    +0.025 A  
DOCKED: ENDBRANCH  47  48
DOCKED: ENDBRANCH  45  47
DOCKED: ENDBRANCH  42  43
DOCKED: BRANCH  42  54
DOCKED: ATOM     54  C35 UNL     1       5.120   1.223   5.550 +0.00 +0.00    +0.012 C  
DOCKED: ATOM     55  C36 UNL     1       6.109   2.062   4.732 +0.00 +0.00    +0.009 C  
DOCKED: ATOM     56  C37 UNL     1       5.478   1.296   7.038 +0.00 +0.00    +0.009 C  
DOCKED: ENDBRANCH  42  54
DOCKED: ENDBRANCH  40  42
DOCKED: ENDBRANCH  36  38
DOCKED: ENDBRANCH  35  36
DOCKED: ENDBRANCH  32  35
DOCKED: ENDBRANCH   1  32
DOCKED: TORSDOF 21
DOCKED: TER
DOCKED: ENDMDL
________________________________________________________________________________


    FINAL DOCKED STATE:
    ________________________


Run:   14 / 20
Time taken for this run:   1.417s

DOCKED: MODEL        14
DOCKED: USER    Run = 14
DOCKED: USER
DOCKED: USER    Estimated Free Energy of Binding    =  +6.26 kcal/mol  [=(1)+(2)+(3)-(4)]
DOCKED: USER
DOCKED: USER    (1) Final Intermolecular Energy     =  +0.00 kcal/mol
DOCKED: USER        vdW + Hbond + desolv Energy     =  +0.00 kcal/mol
DOCKED: USER        Electrostatic Energy            =  +0.00 kcal/mol
DOCKED: USER        Moving Ligand-Fixed Receptor    =  +0.00 kcal/mol
DOCKED: USER        Moving Ligand-Moving Receptor   =  +0.00 kcal/mol
DOCKED: USER    (2) Final Total Internal Energy     = -14.79 kcal/mol
DOCKED: USER    (3) Torsional Free Energy           =  +6.26 kcal/mol
DOCKED: USER    (4) Unbound System's Energy         = -14.79 kcal/mol
DOCKED: USER
DOCKED: USER
DOCKED: REMARK  Name = ligands/ligand_11.pdb
DOCKED: REMARK  29 active torsions:
DOCKED: REMARK  status: ('A' for Active; 'I' for Inactive)
DOCKED: REMARK    1  A    between atoms: C1_1  and  C2_2
DOCKED: REMARK    2  A    between atoms: C2_2  and  C3_3
DOCKED: REMARK    3  A    between atoms: C3_3  and  C4_4
DOCKED: REMARK    4  A    between atoms: C4_4  and  N1_5
DOCKED: REMARK    5  A    between atoms: C4_4  and  C10_13
DOCKED: REMARK    6  A    between atoms: C5_6  and  O2_8
DOCKED: REMARK    7  A    between atoms: O2_8  and  C6_9
DOCKED: REMARK    8  A    between atoms: C6_9  and  C7_10
DOCKED: REMARK    9  A    between atoms: C6_9  and  C8_11
DOCKED: REMARK   10  A    between atoms: C6_9  and  C9_12
DOCKED: REMARK   11  A    between atoms: N2_15  and  C11_16
DOCKED: REMARK   12  A    between atoms: C11_16  and  C12_17
DOCKED: REMARK   13  A    between atoms: C11_16  and  C13_18
DOCKED: REMARK   14  A    between atoms: N3_20  and  C14_21
DOCKED: REMARK   15  A    between atoms: C14_21  and  C15_22
DOCKED: REMARK   16  A    between atoms: C14_21  and  C22_29
DOCKED: REMARK   17  A    between atoms: C15_22  and  C16_23
DOCKED: REMARK   18  A    between atoms: C22_29  and  O5_30
DOCKED: REMARK   19  A    between atoms: C22_29  and  C23_31
DOCKED: REMARK   20  A    between atoms: C23_31  and  C24_32
DOCKED: REMARK   21  A    between atoms: C24_32  and  C25_33
DOCKED: REMARK   22  A    between atoms: C24_32  and  C26_34
DOCKED: REMARK   23  A    between atoms: N4_36  and  C27_37
DOCKED: REMARK   24  A    between atoms: C27_37  and  C28_38
DOCKED: REMARK   25  A    between atoms: C27_37  and  C35_48
DOCKED: REMARK   26  A    between atoms: N5_40  and  C29_41
DOCKED: REMARK   27  A    between atoms: C29_41  and  C30_42
DOCKED: REMARK   28  A    between atoms: C35_48  and  C36_49
DOCKED: REMARK   29  A    between atoms: C35_48  and  C37_50
DOCKED: REMARK                            x       y       z     vdW  Elec       q    Type
DOCKED: REMARK                         _______ _______ _______ _____ _____    ______ ____
DOCKED: USER                              x       y       z     vdW  Elec       q    Type
DOCKED: USER                           _______ _______ _______ _____ _____    ______ ____
DOCKED: ROOT
DOCKED: ATOM      1  C14 UNL     1       6.056  -5.078  -2.830 +0.00 +0.00    +0.106 C  
DOCKED: ENDROOT
DOCKED: BRANCH   1   4
DOCKED: ATOM      2  C13 UNL     1       8.391  -5.159  -1.968 +0.00 +0.00    +0.233 C  
DOCKED: ATOM      3  O4  UNL     1       8.881  -4.842  -3.052 +0.00 -0.00    -0.274 OA 
DOCKED: ATOM      4  N3  UNL     1       7.034  -5.243  -1.756 +0.00 -0.00    -0.308 N  
DOCKED: ATOM      5  H24 UNL     1       6.697  -5.478  -0.830 +0.00 +0.00    +0.149 HD 
DOCKED: BRANCH   2   6
DOCKED: ATOM      6  C11 UNL     1       9.259  -5.448  -0.730 +0.00 +0.00    +0.156 C  
DOCKED: ATOM      7  C12 UNL     1      10.628  -5.960  -1.153 +0.00 +0.00    +0.038 C  
DOCKED: BRANCH   6  10
DOCKED: ATOM      8  C10 UNL     1       8.697  -6.492   1.428 +0.00 +0.00    +0.234 C  
DOCKED: ATOM      9  O3  UNL     1       9.529  -5.820   2.038 +0.00 -0.00    -0.274 OA 
DOCKED: ATOM     10  N2  UNL     1       8.557  -6.453   0.057 +0.00 -0.00    -0.303 N  
DOCKED: ATOM     11  H19 UNL     1       7.679  -6.777  -0.332 +0.00 +0.00    +0.149 HD 
DOCKED: BRANCH   8  12
DOCKED: ATOM     12  C4  UNL     1       7.693  -7.418   2.144 +0.00 +0.00    +0.162 C  
DOCKED: BRANCH  12  13
DOCKED: ATOM     13  N1  UNL     1       6.386  -6.786   2.084 +0.00 -0.00    -0.270 N  
DOCKED: ATOM     14  C5  UNL     1       5.624  -6.906   0.961 +0.00 +0.00    +0.401 C  
DOCKED: ATOM     15  O1  UNL     1       6.043  -7.244  -0.132 +0.00 -0.00    -0.226 OA 
DOCKED: ATOM     16  H9  UNL     1       5.829  -6.809   2.929 +0.00 +0.00    +0.153 HD 
DOCKED: BRANCH  14  17
DOCKED: ATOM     17  O2  UNL     1       4.341  -6.620   1.274 +0.00 -0.00    -0.445 OA 
DOCKED: BRANCH  17  18
DOCKED: ATOM     18  C6  UNL     1       3.323  -7.653   1.234 +0.00 +0.00    +0.107 C  
DOCKED: ATOM     19  C7  UNL     1       3.946  -9.048   1.380 +0.00 +0.00    +0.055 C  
DOCKED: ATOM     20  C8  UNL     1       2.463  -7.544  -0.031 +0.00 +0.00    +0.055 C  
DOCKED: ATOM     21  C9  UNL     1       2.435  -7.374   2.455 +0.00 +0.00    +0.055 C  
DOCKED: ENDBRANCH  17  18
DOCKED: ENDBRANCH  14  17
DOCKED: ENDBRANCH  12  13
DOCKED: BRANCH  12  22
DOCKED: ATOM     22  C3  UNL     1       7.687  -8.784   1.452 +0.00 +0.00    +0.031 C  
DOCKED: BRANCH  22  24
DOCKED: ATOM     23  C1  UNL     1       6.877  -9.394   3.763 +0.00 +0.00    +0.004 C  
DOCKED: ATOM     24  C2  UNL     1       7.097  -9.883   2.338 +0.00 -0.00    -0.001 C  
DOCKED: ENDBRANCH  22  24
DOCKED: ENDBRANCH  12  22
DOCKED: ENDBRANCH   8  12
DOCKED: ENDBRANCH   6  10
DOCKED: ENDBRANCH   2   6
DOCKED: ENDBRANCH   1   4
DOCKED: BRANCH   1  25
DOCKED: ATOM     25  C15 UNL     1       6.102  -6.276  -3.811 +0.00 +0.00    +0.060 C  
DOCKED: BRANCH  25  26
DOCKED: ATOM     26  C16 UNL     1       6.079  -7.604  -3.079 +0.00 -0.00    -0.046 A  
DOCKED: ATOM     27  C17 UNL     1       7.279  -8.237  -2.728 +0.00 +0.00    +0.004 A  
DOCKED: ATOM     28  C18 UNL     1       7.266  -9.439  -2.018 +0.00 +0.00    +0.000 A  
DOCKED: ATOM     29  C19 UNL     1       6.054 -10.018  -1.649 +0.00 +0.00    +0.000 A  
DOCKED: ATOM     30  C20 UNL     1       4.855  -9.399  -1.993 +0.00 +0.00    +0.000 A  
DOCKED: ATOM     31  C21 UNL     1       4.866  -8.199  -2.706 +0.00 +0.00    +0.004 A  
DOCKED: ENDBRANCH  25  26
DOCKED: ENDBRANCH   1  25
DOCKED: BRANCH   1  32
DOCKED: ATOM     32  C22 UNL     1       4.627  -4.776  -2.288 +0.00 +0.00    +0.136 C  
DOCKED: BRANCH  32  33
DOCKED: ATOM     33  O5  UNL     1       4.434  -5.464  -1.042 +0.00 -0.00    -0.390 OA 
DOCKED: ATOM     34  H34 UNL     1       5.228  -5.300  -0.496 +0.00 +0.00    +0.210 HD 
DOCKED: ENDBRANCH  32  33
DOCKED: BRANCH  32  35
DOCKED: ATOM     35  C23 UNL     1       4.324  -3.287  -2.040 +0.00 +0.00    +0.045 C  
DOCKED: BRANCH  35  36
DOCKED: ATOM     36  C24 UNL     1       4.543  -2.873  -0.575 +0.00 +0.00    +0.074 C  
DOCKED: ATOM     37  C25 UNL     1       3.511  -3.495   0.366 +0.00 +0.00    +0.017 C  
DOCKED: BRANCH  36  38
DOCKED: ATOM     38  C26 UNL     1       5.962  -3.196  -0.133 +0.00 +0.00    +0.217 C  
DOCKED: ATOM     39  O6  UNL     1       6.197  -4.153   0.604 +0.00 -0.00    -0.276 OA 
DOCKED: ATOM     40  N4  UNL     1       6.932  -2.332  -0.587 +0.00 -0.00    -0.304 N  
DOCKED: ATOM     41  H41 UNL     1       6.606  -1.394  -0.787 +0.00 +0.00    +0.149 HD 
DOCKED: BRANCH  40  42
DOCKED: ATOM     42  C27 UNL     1       8.287  -2.417  -0.047 +0.00 +0.00    +0.161 C  
DOCKED: BRANCH  42  43
DOCKED: ATOM     43  C28 UNL     1       8.214  -2.204   1.483 +0.00 +0.00    +0.234 C  
DOCKED: ATOM     44  O7  UNL     1       8.206  -1.085   1.995 +0.00 -0.00    -0.274 OA 
DOCKED: ATOM     45  N5  UNL     1       8.193  -3.368   2.218 +0.00 -0.00    -0.310 N  
DOCKED: ATOM     46  H43 UNL     1       8.053  -4.249   1.737 +0.00 +0.00    +0.149 HD 
DOCKED: BRANCH  45  47
DOCKED: ATOM     47  C29 UNL     1       8.004  -3.360   3.653 +0.00 +0.00    +0.139 C  
DOCKED: BRANCH  47  48
DOCKED: ATOM     48  C30 UNL     1       6.933  -4.334   4.071 +0.00 -0.00    -0.027 A  
DOCKED: ATOM     49  C31 UNL     1       5.613  -4.164   3.645 +0.00 +0.00    +0.025 A  
DOCKED: ATOM     50  C32 UNL     1       4.660  -5.096   4.036 +0.00 +0.00    +0.111 A  
DOCKED: ATOM     51  N6  UNL     1       4.927  -6.169   4.807 +0.00 -0.00    -0.263 NA 
DOCKED: ATOM     52  C33 UNL     1       6.209  -6.324   5.198 +0.00 +0.00    +0.111 A  
DOCKED: ATOM     53  C34 UNL     1       7.233  -5.452   4.857 +0.00 +0.00    +0.025 A  
DOCKED: ENDBRANCH  47  48
DOCKED: ENDBRANCH  45  47
DOCKED: ENDBRANCH  42  43
DOCKED: BRANCH  42  54
DOCKED: ATOM     54  C35 UNL     1       9.259  -1.414  -0.711 +0.00 +0.00    +0.012 C  
DOCKED: ATOM     55  C36 UNL     1       8.972  -1.185  -2.201 +0.00 +0.00    +0.009 C  
DOCKED: ATOM     56  C37 UNL     1      10.713  -1.855  -0.520 +0.00 +0.00    +0.009 C  
DOCKED: ENDBRANCH  42  54
DOCKED: ENDBRANCH  40  42
DOCKED: ENDBRANCH  36  38
DOCKED: ENDBRANCH  35  36
DOCKED: ENDBRANCH  32  35
DOCKED: ENDBRANCH   1  32
DOCKED: TORSDOF 21
DOCKED: TER
DOCKED: ENDMDL
________________________________________________________________________________


    FINAL DOCKED STATE:
    ________________________


Run:   15 / 20
Time taken for this run:   1.417s

DOCKED: MODEL        15
DOCKED: USER    Run = 15
DOCKED: USER
DOCKED: USER    Estimated Free Energy of Binding    =  +6.26 kcal/mol  [=(1)+(2)+(3)-(4)]
DOCKED: USER
DOCKED: USER    (1) Final Intermolecular Energy     =  +0.00 kcal/mol
DOCKED: USER        vdW + Hbond + desolv Energy     =  +0.00 kcal/mol
DOCKED: USER        Electrostatic Energy            =  +0.00 kcal/mol
DOCKED: USER        Moving Ligand-Fixed Receptor    =  +0.00 kcal/mol
DOCKED: USER        Moving Ligand-Moving Receptor   =  +0.00 kcal/mol
DOCKED: USER    (2) Final Total Internal Energy     = -14.74 kcal/mol
DOCKED: USER    (3) Torsional Free Energy           =  +6.26 kcal/mol
DOCKED: USER    (4) Unbound System's Energy         = -14.74 kcal/mol
DOCKED: USER
DOCKED: USER
DOCKED: REMARK  Name = ligands/ligand_11.pdb
DOCKED: REMARK  29 active torsions:
DOCKED: REMARK  status: ('A' for Active; 'I' for Inactive)
DOCKED: REMARK    1  A    between atoms: C1_1  and  C2_2
DOCKED: REMARK    2  A    between atoms: C2_2  and  C3_3
DOCKED: REMARK    3  A    between atoms: C3_3  and  C4_4
DOCKED: REMARK    4  A    between atoms: C4_4  and  N1_5
DOCKED: REMARK    5  A    between atoms: C4_4  and  C10_13
DOCKED: REMARK    6  A    between atoms: C5_6  and  O2_8
DOCKED: REMARK    7  A    between atoms: O2_8  and  C6_9
DOCKED: REMARK    8  A    between atoms: C6_9  and  C7_10
DOCKED: REMARK    9  A    between atoms: C6_9  and  C8_11
DOCKED: REMARK   10  A    between atoms: C6_9  and  C9_12
DOCKED: REMARK   11  A    between atoms: N2_15  and  C11_16
DOCKED: REMARK   12  A    between atoms: C11_16  and  C12_17
DOCKED: REMARK   13  A    between atoms: C11_16  and  C13_18
DOCKED: REMARK   14  A    between atoms: N3_20  and  C14_21
DOCKED: REMARK   15  A    between atoms: C14_21  and  C15_22
DOCKED: REMARK   16  A    between atoms: C14_21  and  C22_29
DOCKED: REMARK   17  A    between atoms: C15_22  and  C16_23
DOCKED: REMARK   18  A    between atoms: C22_29  and  O5_30
DOCKED: REMARK   19  A    between atoms: C22_29  and  C23_31
DOCKED: REMARK   20  A    between atoms: C23_31  and  C24_32
DOCKED: REMARK   21  A    between atoms: C24_32  and  C25_33
DOCKED: REMARK   22  A    between atoms: C24_32  and  C26_34
DOCKED: REMARK   23  A    between atoms: N4_36  and  C27_37
DOCKED: REMARK   24  A    between atoms: C27_37  and  C28_38
DOCKED: REMARK   25  A    between atoms: C27_37  and  C35_48
DOCKED: REMARK   26  A    between atoms: N5_40  and  C29_41
DOCKED: REMARK   27  A    between atoms: C29_41  and  C30_42
DOCKED: REMARK   28  A    between atoms: C35_48  and  C36_49
DOCKED: REMARK   29  A    between atoms: C35_48  and  C37_50
DOCKED: REMARK                            x       y       z     vdW  Elec       q    Type
DOCKED: REMARK                         _______ _______ _______ _____ _____    ______ ____
DOCKED: USER                              x       y       z     vdW  Elec       q    Type
DOCKED: USER                           _______ _______ _______ _____ _____    ______ ____
DOCKED: ROOT
DOCKED: ATOM      1  C14 UNL     1       7.165  -5.947  -2.296 +0.00 +0.00    +0.106 C  
DOCKED: ENDROOT
DOCKED: BRANCH   1   4
DOCKED: ATOM      2  C13 UNL     1       8.473  -7.371  -3.865 +0.00 +0.00    +0.233 C  
DOCKED: ATOM      3  O4  UNL     1       7.490  -8.031  -4.203 +0.00 -0.00    -0.274 OA 
DOCKED: ATOM      4  N3  UNL     1       8.398  -6.311  -2.991 +0.00 -0.00    -0.308 N  
DOCKED: ATOM      5  H24 UNL     1       9.241  -5.790  -2.781 +0.00 +0.00    +0.149 HD 
DOCKED: BRANCH   2   6
DOCKED: ATOM      6  C11 UNL     1       9.878  -7.648  -4.430 +0.00 +0.00    +0.156 C  
DOCKED: ATOM      7  C12 UNL     1      10.006  -9.107  -4.838 +0.00 +0.00    +0.038 C  
DOCKED: BRANCH   6  10
DOCKED: ATOM      8  C10 UNL     1      11.920  -6.521  -3.641 +0.00 +0.00    +0.234 C  
DOCKED: ATOM      9  O3  UNL     1      12.245  -6.181  -4.779 +0.00 -0.00    -0.274 OA 
DOCKED: ATOM     10  N2  UNL     1      10.831  -7.324  -3.377 +0.00 -0.00    -0.303 N  
DOCKED: ATOM     11  H19 UNL     1      10.453  -7.303  -2.437 +0.00 +0.00    +0.149 HD 
DOCKED: BRANCH   8  12
DOCKED: ATOM     12  C4  UNL     1      12.679  -6.045  -2.385 +0.00 +0.00    +0.162 C  
DOCKED: BRANCH  12  13
DOCKED: ATOM     13  N1  UNL     1      12.024  -4.842  -1.901 +0.00 -0.00    -0.270 N  
DOCKED: ATOM     14  C5  UNL     1      10.954  -4.941  -1.064 +0.00 +0.00    +0.401 C  
DOCKED: ATOM     15  O1  UNL     1      10.287  -5.947  -0.903 +0.00 -0.00    -0.226 OA 
DOCKED: ATOM     16  H9  UNL     1      12.622  -4.059  -1.667 +0.00 +0.00    +0.153 HD 
DOCKED: BRANCH  14  17
DOCKED: ATOM     17  O2  UNL     1      10.786  -3.758  -0.432 +0.00 -0.00    -0.445 OA 
DOCKED: BRANCH  17  18
DOCKED: ATOM     18  C6  UNL     1      11.140  -3.612   0.967 +0.00 +0.00    +0.107 C  
DOCKED: ATOM     19  C7  UNL     1      12.386  -2.732   1.133 +0.00 +0.00    +0.055 C  
DOCKED: ATOM     20  C8  UNL     1      11.312  -4.975   1.649 +0.00 +0.00    +0.055 C  
DOCKED: ATOM     21  C9  UNL     1       9.938  -2.897   1.601 +0.00 +0.00    +0.055 C  
DOCKED: ENDBRANCH  17  18
DOCKED: ENDBRANCH  14  17
DOCKED: ENDBRANCH  12  13
DOCKED: BRANCH  12  22
DOCKED: ATOM     22  C3  UNL     1      12.657  -7.158  -1.333 +0.00 +0.00    +0.031 C  
DOCKED: BRANCH  22  24
DOCKED: ATOM     23  C1  UNL     1      13.301  -7.720   1.041 +0.00 +0.00    +0.004 C  
DOCKED: ATOM     24  C2  UNL     1      13.646  -6.900  -0.194 +0.00 -0.00    -0.001 C  
DOCKED: ENDBRANCH  22  24
DOCKED: ENDBRANCH  12  22
DOCKED: ENDBRANCH   8  12
DOCKED: ENDBRANCH   6  10
DOCKED: ENDBRANCH   2   6
DOCKED: ENDBRANCH   1   4
DOCKED: BRANCH   1  25
DOCKED: ATOM     25  C15 UNL     1       6.667  -7.112  -1.405 +0.00 +0.00    +0.060 C  
DOCKED: BRANCH  25  26
DOCKED: ATOM     26  C16 UNL     1       7.727  -7.558  -0.416 +0.00 -0.00    -0.046 A  
DOCKED: ATOM     27  C17 UNL     1       8.610  -8.595  -0.749 +0.00 +0.00    +0.004 A  
DOCKED: ATOM     28  C18 UNL     1       9.616  -8.983   0.138 +0.00 +0.00    +0.000 A  
DOCKED: ATOM     29  C19 UNL     1       9.751  -8.337   1.365 +0.00 +0.00    +0.000 A  
DOCKED: ATOM     30  C20 UNL     1       8.879  -7.307   1.707 +0.00 +0.00    +0.000 A  
DOCKED: ATOM     31  C21 UNL     1       7.871  -6.919   0.823 +0.00 +0.00    +0.004 A  
DOCKED: ENDBRANCH  25  26
DOCKED: ENDBRANCH   1  25
DOCKED: BRANCH   1  32
DOCKED: ATOM     32  C22 UNL     1       7.292  -4.595  -1.534 +0.00 +0.00    +0.136 C  
DOCKED: BRANCH  32  33
DOCKED: ATOM     33  O5  UNL     1       8.605  -4.052  -1.741 +0.00 -0.00    -0.390 OA 
DOCKED: ATOM     34  H34 UNL     1       9.083  -4.120  -0.892 +0.00 +0.00    +0.210 HD 
DOCKED: ENDBRANCH  32  33
DOCKED: BRANCH  32  35
DOCKED: ATOM     35  C23 UNL     1       6.279  -3.513  -1.949 +0.00 +0.00    +0.045 C  
DOCKED: BRANCH  35  36
DOCKED: ATOM     36  C24 UNL     1       6.521  -2.170  -1.239 +0.00 +0.00    +0.074 C  
DOCKED: ATOM     37  C25 UNL     1       6.767  -2.340   0.260 +0.00 +0.00    +0.017 C  
DOCKED: BRANCH  36  38
DOCKED: ATOM     38  C26 UNL     1       7.656  -1.408  -1.904 +0.00 +0.00    +0.217 C  
DOCKED: ATOM     39  O6  UNL     1       7.482  -0.799  -2.959 +0.00 -0.00    -0.276 OA 
DOCKED: ATOM     40  N4  UNL     1       8.871  -1.480  -1.261 +0.00 -0.00    -0.304 N  
DOCKED: ATOM     41  H41 UNL     1       9.006  -2.313  -0.701 +0.00 +0.00    +0.149 HD 
DOCKED: BRANCH  40  42
DOCKED: ATOM     42  C27 UNL     1      10.071  -0.974  -1.923 +0.00 +0.00    +0.161 C  
DOCKED: BRANCH  42  43
DOCKED: ATOM     43  C28 UNL     1      10.646  -2.102  -2.812 +0.00 +0.00    +0.234 C  
DOCKED: ATOM     44  O7  UNL     1      11.843  -2.384  -2.831 +0.00 -0.00    -0.274 OA 
DOCKED: ATOM     45  N5  UNL     1       9.711  -2.735  -3.601 +0.00 -0.00    -0.310 N  
DOCKED: ATOM     46  H43 UNL     1       8.728  -2.559  -3.433 +0.00 +0.00    +0.149 HD 
DOCKED: BRANCH  45  47
DOCKED: ATOM     47  C29 UNL     1      10.049  -3.891  -4.404 +0.00 +0.00    +0.139 C  
DOCKED: BRANCH  47  48
DOCKED: ATOM     48  C30 UNL     1       8.906  -4.290  -5.302 +0.00 -0.00    -0.027 A  
DOCKED: ATOM     49  C31 UNL     1       9.129  -5.097  -6.420 +0.00 +0.00    +0.025 A  
DOCKED: ATOM     50  C32 UNL     1       8.046  -5.459  -7.209 +0.00 +0.00    +0.111 A  
DOCKED: ATOM     51  N6  UNL     1       6.775  -5.081  -6.964 +0.00 -0.00    -0.263 NA 
DOCKED: ATOM     52  C33 UNL     1       6.577  -4.313  -5.873 +0.00 +0.00    +0.111 A  
DOCKED: ATOM     53  C34 UNL     1       7.591  -3.903  -5.020 +0.00 +0.00    +0.025 A  
DOCKED: ENDBRANCH  47  48
DOCKED: ENDBRANCH  45  47
DOCKED: ENDBRANCH  42  43
DOCKED: BRANCH  42  54
DOCKED: ATOM     54  C35 UNL     1      11.129  -0.449  -0.924 +0.00 +0.00    +0.012 C  
DOCKED: ATOM     55  C36 UNL     1      10.517   0.264   0.289 +0.00 +0.00    +0.009 C  
DOCKED: ATOM     56  C37 UNL     1      12.129   0.476  -1.625 +0.00 +0.00    +0.009 C  
DOCKED: ENDBRANCH  42  54
DOCKED: ENDBRANCH  40  42
DOCKED: ENDBRANCH  36  38
DOCKED: ENDBRANCH  35  36
DOCKED: ENDBRANCH  32  35
DOCKED: ENDBRANCH   1  32
DOCKED: TORSDOF 21
DOCKED: TER
DOCKED: ENDMDL
________________________________________________________________________________


    FINAL DOCKED STATE:
    ________________________


Run:   16 / 20
Time taken for this run:   1.417s

DOCKED: MODEL        16
DOCKED: USER    Run = 16
DOCKED: USER
DOCKED: USER    Estimated Free Energy of Binding    =  +6.26 kcal/mol  [=(1)+(2)+(3)-(4)]
DOCKED: USER
DOCKED: USER    (1) Final Intermolecular Energy     =  +0.00 kcal/mol
DOCKED: USER        vdW + Hbond + desolv Energy     =  +0.00 kcal/mol
DOCKED: USER        Electrostatic Energy            =  +0.00 kcal/mol
DOCKED: USER        Moving Ligand-Fixed Receptor    =  +0.00 kcal/mol
DOCKED: USER        Moving Ligand-Moving Receptor   =  +0.00 kcal/mol
DOCKED: USER    (2) Final Total Internal Energy     = -14.78 kcal/mol
DOCKED: USER    (3) Torsional Free Energy           =  +6.26 kcal/mol
DOCKED: USER    (4) Unbound System's Energy         = -14.78 kcal/mol
DOCKED: USER
DOCKED: USER
DOCKED: REMARK  Name = ligands/ligand_11.pdb
DOCKED: REMARK  29 active torsions:
DOCKED: REMARK  status: ('A' for Active; 'I' for Inactive)
DOCKED: REMARK    1  A    between atoms: C1_1  and  C2_2
DOCKED: REMARK    2  A    between atoms: C2_2  and  C3_3
DOCKED: REMARK    3  A    between atoms: C3_3  and  C4_4
DOCKED: REMARK    4  A    between atoms: C4_4  and  N1_5
DOCKED: REMARK    5  A    between atoms: C4_4  and  C10_13
DOCKED: REMARK    6  A    between atoms: C5_6  and  O2_8
DOCKED: REMARK    7  A    between atoms: O2_8  and  C6_9
DOCKED: REMARK    8  A    between atoms: C6_9  and  C7_10
DOCKED: REMARK    9  A    between atoms: C6_9  and  C8_11
DOCKED: REMARK   10  A    between atoms: C6_9  and  C9_12
DOCKED: REMARK   11  A    between atoms: N2_15  and  C11_16
DOCKED: REMARK   12  A    between atoms: C11_16  and  C12_17
DOCKED: REMARK   13  A    between atoms: C11_16  and  C13_18
DOCKED: REMARK   14  A    between atoms: N3_20  and  C14_21
DOCKED: REMARK   15  A    between atoms: C14_21  and  C15_22
DOCKED: REMARK   16  A    between atoms: C14_21  and  C22_29
DOCKED: REMARK   17  A    between atoms: C15_22  and  C16_23
DOCKED: REMARK   18  A    between atoms: C22_29  and  O5_30
DOCKED: REMARK   19  A    between atoms: C22_29  and  C23_31
DOCKED: REMARK   20  A    between atoms: C23_31  and  C24_32
DOCKED: REMARK   21  A    between atoms: C24_32  and  C25_33
DOCKED: REMARK   22  A    between atoms: C24_32  and  C26_34
DOCKED: REMARK   23  A    between atoms: N4_36  and  C27_37
DOCKED: REMARK   24  A    between atoms: C27_37  and  C28_38
DOCKED: REMARK   25  A    between atoms: C27_37  and  C35_48
DOCKED: REMARK   26  A    between atoms: N5_40  and  C29_41
DOCKED: REMARK   27  A    between atoms: C29_41  and  C30_42
DOCKED: REMARK   28  A    between atoms: C35_48  and  C36_49
DOCKED: REMARK   29  A    between atoms: C35_48  and  C37_50
DOCKED: REMARK                            x       y       z     vdW  Elec       q    Type
DOCKED: REMARK                         _______ _______ _______ _____ _____    ______ ____
DOCKED: USER                              x       y       z     vdW  Elec       q    Type
DOCKED: USER                           _______ _______ _______ _____ _____    ______ ____
DOCKED: ROOT
DOCKED: ATOM      1  C14 UNL     1       8.983  -6.435  -0.413 +0.00 +0.00    +0.106 C  
DOCKED: ENDROOT
DOCKED: BRANCH   1   4
DOCKED: ATOM      2  C13 UNL     1       9.685  -4.293  -1.472 +0.00 +0.00    +0.233 C  
DOCKED: ATOM      3  O4  UNL     1      10.884  -4.521  -1.311 +0.00 -0.00    -0.274 OA 
DOCKED: ATOM      4  N3  UNL     1       8.700  -5.186  -1.118 +0.00 -0.00    -0.308 N  
DOCKED: ATOM      5  H24 UNL     1       7.733  -4.949  -1.310 +0.00 +0.00    +0.149 HD 
DOCKED: BRANCH   2   6
DOCKED: ATOM      6  C11 UNL     1       9.178  -2.997  -2.131 +0.00 +0.00    +0.156 C  
DOCKED: ATOM      7  C12 UNL     1      10.140  -1.852  -1.853 +0.00 +0.00    +0.038 C  
DOCKED: BRANCH   6  10
DOCKED: ATOM      8  C10 UNL     1       6.903  -2.071  -2.308 +0.00 +0.00    +0.234 C  
DOCKED: ATOM      9  O3  UNL     1       7.134  -1.554  -3.402 +0.00 -0.00    -0.274 OA 
DOCKED: ATOM     10  N2  UNL     1       7.867  -2.715  -1.562 +0.00 -0.00    -0.303 N  
DOCKED: ATOM     11  H19 UNL     1       7.551  -3.365  -0.851 +0.00 +0.00    +0.149 HD 
DOCKED: BRANCH   8  12
DOCKED: ATOM     12  C4  UNL     1       5.496  -2.087  -1.679 +0.00 +0.00    +0.162 C  
DOCKED: BRANCH  12  13
DOCKED: ATOM     13  N1  UNL     1       4.968  -3.435  -1.808 +0.00 -0.00    -0.270 N  
DOCKED: ATOM     14  C5  UNL     1       5.318  -4.390  -0.901 +0.00 +0.00    +0.401 C  
DOCKED: ATOM     15  O1  UNL     1       6.272  -4.319  -0.148 +0.00 -0.00    -0.226 OA 
DOCKED: ATOM     16  H9  UNL     1       4.004  -3.522  -2.102 +0.00 +0.00    +0.153 HD 
DOCKED: BRANCH  14  17
DOCKED: ATOM     17  O2  UNL     1       4.418  -5.397  -0.962 +0.00 -0.00    -0.445 OA 
DOCKED: BRANCH  17  18
DOCKED: ATOM     18  C6  UNL     1       3.534  -5.667   0.156 +0.00 +0.00    +0.107 C  
DOCKED: ATOM     19  C7  UNL     1       3.324  -4.409   1.009 +0.00 +0.00    +0.055 C  
DOCKED: ATOM     20  C8  UNL     1       4.036  -6.847   0.996 +0.00 +0.00    +0.055 C  
DOCKED: ATOM     21  C9  UNL     1       2.197  -6.059  -0.489 +0.00 +0.00    +0.055 C  
DOCKED: ENDBRANCH  17  18
DOCKED: ENDBRANCH  14  17
DOCKED: ENDBRANCH  12  13
DOCKED: BRANCH  12  22
DOCKED: ATOM     22  C3  UNL     1       5.595  -1.661  -0.212 +0.00 +0.00    +0.031 C  
DOCKED: BRANCH  22  24
DOCKED: ATOM     23  C1  UNL     1       3.176  -1.165  -0.729 +0.00 +0.00    +0.004 C  
DOCKED: ATOM     24  C2  UNL     1       4.267  -1.131   0.332 +0.00 -0.00    -0.001 C  
DOCKED: ENDBRANCH  22  24
DOCKED: ENDBRANCH  12  22
DOCKED: ENDBRANCH   8  12
DOCKED: ENDBRANCH   6  10
DOCKED: ENDBRANCH   2   6
DOCKED: ENDBRANCH   1   4
DOCKED: BRANCH   1  25
DOCKED: ATOM     25  C15 UNL     1       9.355  -6.164   1.066 +0.00 +0.00    +0.060 C  
DOCKED: BRANCH  25  26
DOCKED: ATOM     26  C16 UNL     1       8.377  -5.211   1.727 +0.00 -0.00    -0.046 A  
DOCKED: ATOM     27  C17 UNL     1       8.619  -3.830   1.715 +0.00 +0.00    +0.004 A  
DOCKED: ATOM     28  C18 UNL     1       7.703  -2.944   2.284 +0.00 +0.00    +0.000 A  
DOCKED: ATOM     29  C19 UNL     1       6.535  -3.428   2.869 +0.00 +0.00    +0.000 A  
DOCKED: ATOM     30  C20 UNL     1       6.284  -4.798   2.888 +0.00 +0.00    +0.000 A  
DOCKED: ATOM     31  C21 UNL     1       7.200  -5.686   2.322 +0.00 +0.00    +0.004 A  
DOCKED: ENDBRANCH  25  26
DOCKED: ENDBRANCH   1  25
DOCKED: BRANCH   1  32
DOCKED: ATOM     32  C22 UNL     1       7.842  -7.482  -0.583 +0.00 +0.00    +0.136 C  
DOCKED: BRANCH  32  33
DOCKED: ATOM     33  O5  UNL     1       6.581  -6.803  -0.684 +0.00 -0.00    -0.390 OA 
DOCKED: ATOM     34  H34 UNL     1       6.706  -6.055  -1.300 +0.00 +0.00    +0.210 HD 
DOCKED: ENDBRANCH  32  33
DOCKED: BRANCH  32  35
DOCKED: ATOM     35  C23 UNL     1       7.972  -8.394  -1.817 +0.00 +0.00    +0.045 C  
DOCKED: BRANCH  35  36
DOCKED: ATOM     36  C24 UNL     1       7.155  -7.886  -3.017 +0.00 +0.00    +0.074 C  
DOCKED: ATOM     37  C25 UNL     1       5.648  -8.008  -2.791 +0.00 +0.00    +0.017 C  
DOCKED: BRANCH  36  38
DOCKED: ATOM     38  C26 UNL     1       7.549  -6.460  -3.369 +0.00 +0.00    +0.217 C  
DOCKED: ATOM     39  O6  UNL     1       6.846  -5.505  -3.038 +0.00 -0.00    -0.276 OA 
DOCKED: ATOM     40  N4  UNL     1       8.711  -6.330  -4.095 +0.00 -0.00    -0.304 N  
DOCKED: ATOM     41  H41 UNL     1       8.947  -7.134  -4.664 +0.00 +0.00    +0.149 HD 
DOCKED: BRANCH  40  42
DOCKED: ATOM     42  C27 UNL     1       9.063  -5.035  -4.672 +0.00 +0.00    +0.161 C  
DOCKED: BRANCH  42  43
DOCKED: ATOM     43  C28 UNL     1       7.937  -4.616  -5.647 +0.00 +0.00    +0.234 C  
DOCKED: ATOM     44  O7  UNL     1       7.902  -4.993  -6.818 +0.00 -0.00    -0.274 OA 
DOCKED: ATOM     45  N5  UNL     1       7.003  -3.763  -5.103 +0.00 -0.00    -0.310 N  
DOCKED: ATOM     46  H43 UNL     1       7.005  -3.609  -4.102 +0.00 +0.00    +0.149 HD 
DOCKED: BRANCH  45  47
DOCKED: ATOM     47  C29 UNL     1       5.818  -3.366  -5.832 +0.00 +0.00    +0.139 C  
DOCKED: BRANCH  47  48
DOCKED: ATOM     48  C30 UNL     1       4.574  -3.552  -5.001 +0.00 -0.00    -0.027 A  
DOCKED: ATOM     49  C31 UNL     1       4.203  -4.821  -4.551 +0.00 +0.00    +0.025 A  
DOCKED: ATOM     50  C32 UNL     1       3.062  -4.946  -3.770 +0.00 +0.00    +0.111 A  
DOCKED: ATOM     51  N6  UNL     1       2.278  -3.909  -3.410 +0.00 -0.00    -0.263 NA 
DOCKED: ATOM     52  C33 UNL     1       2.660  -2.690  -3.842 +0.00 +0.00    +0.111 A  
DOCKED: ATOM     53  C34 UNL     1       3.784  -2.460  -4.621 +0.00 +0.00    +0.025 A  
DOCKED: ENDBRANCH  47  48
DOCKED: ENDBRANCH  45  47
DOCKED: ENDBRANCH  42  43
DOCKED: BRANCH  42  54
DOCKED: ATOM     54  C35 UNL     1      10.441  -5.048  -5.374 +0.00 +0.00    +0.012 C  
DOCKED: ATOM     55  C36 UNL     1      11.440  -6.020  -4.733 +0.00 +0.00    +0.009 C  
DOCKED: ATOM     56  C37 UNL     1      11.041  -3.640  -5.424 +0.00 +0.00    +0.009 C  
DOCKED: ENDBRANCH  42  54
DOCKED: ENDBRANCH  40  42
DOCKED: ENDBRANCH  36  38
DOCKED: ENDBRANCH  35  36
DOCKED: ENDBRANCH  32  35
DOCKED: ENDBRANCH   1  32
DOCKED: TORSDOF 21
DOCKED: TER
DOCKED: ENDMDL
________________________________________________________________________________


    FINAL DOCKED STATE:
    ________________________


Run:   17 / 20
Time taken for this run:   1.417s

DOCKED: MODEL        17
DOCKED: USER    Run = 17
DOCKED: USER
DOCKED: USER    Estimated Free Energy of Binding    =  +6.26 kcal/mol  [=(1)+(2)+(3)-(4)]
DOCKED: USER
DOCKED: USER    (1) Final Intermolecular Energy     =  +0.00 kcal/mol
DOCKED: USER        vdW + Hbond + desolv Energy     =  +0.00 kcal/mol
DOCKED: USER        Electrostatic Energy            =  +0.00 kcal/mol
DOCKED: USER        Moving Ligand-Fixed Receptor    =  +0.00 kcal/mol
DOCKED: USER        Moving Ligand-Moving Receptor   =  +0.00 kcal/mol
DOCKED: USER    (2) Final Total Internal Energy     = -14.78 kcal/mol
DOCKED: USER    (3) Torsional Free Energy           =  +6.26 kcal/mol
DOCKED: USER    (4) Unbound System's Energy         = -14.78 kcal/mol
DOCKED: USER
DOCKED: USER
DOCKED: REMARK  Name = ligands/ligand_11.pdb
DOCKED: REMARK  29 active torsions:
DOCKED: REMARK  status: ('A' for Active; 'I' for Inactive)
DOCKED: REMARK    1  A    between atoms: C1_1  and  C2_2
DOCKED: REMARK    2  A    between atoms: C2_2  and  C3_3
DOCKED: REMARK    3  A    between atoms: C3_3  and  C4_4
DOCKED: REMARK    4  A    between atoms: C4_4  and  N1_5
DOCKED: REMARK    5  A    between atoms: C4_4  and  C10_13
DOCKED: REMARK    6  A    between atoms: C5_6  and  O2_8
DOCKED: REMARK    7  A    between atoms: O2_8  and  C6_9
DOCKED: REMARK    8  A    between atoms: C6_9  and  C7_10
DOCKED: REMARK    9  A    between atoms: C6_9  and  C8_11
DOCKED: REMARK   10  A    between atoms: C6_9  and  C9_12
DOCKED: REMARK   11  A    between atoms: N2_15  and  C11_16
DOCKED: REMARK   12  A    between atoms: C11_16  and  C12_17
DOCKED: REMARK   13  A    between atoms: C11_16  and  C13_18
DOCKED: REMARK   14  A    between atoms: N3_20  and  C14_21
DOCKED: REMARK   15  A    between atoms: C14_21  and  C15_22
DOCKED: REMARK   16  A    between atoms: C14_21  and  C22_29
DOCKED: REMARK   17  A    between atoms: C15_22  and  C16_23
DOCKED: REMARK   18  A    between atoms: C22_29  and  O5_30
DOCKED: REMARK   19  A    between atoms: C22_29  and  C23_31
DOCKED: REMARK   20  A    between atoms: C23_31  and  C24_32
DOCKED: REMARK   21  A    between atoms: C24_32  and  C25_33
DOCKED: REMARK   22  A    between atoms: C24_32  and  C26_34
DOCKED: REMARK   23  A    between atoms: N4_36  and  C27_37
DOCKED: REMARK   24  A    between atoms: C27_37  and  C28_38
DOCKED: REMARK   25  A    between atoms: C27_37  and  C35_48
DOCKED: REMARK   26  A    between atoms: N5_40  and  C29_41
DOCKED: REMARK   27  A    between atoms: C29_41  and  C30_42
DOCKED: REMARK   28  A    between atoms: C35_48  and  C36_49
DOCKED: REMARK   29  A    between atoms: C35_48  and  C37_50
DOCKED: REMARK                            x       y       z     vdW  Elec       q    Type
DOCKED: REMARK                         _______ _______ _______ _____ _____    ______ ____
DOCKED: USER                              x       y       z     vdW  Elec       q    Type
DOCKED: USER                           _______ _______ _______ _____ _____    ______ ____
DOCKED: ROOT
DOCKED: ATOM      1  C14 UNL     1       9.507  -0.537  -5.097 +0.00 +0.00    +0.106 C  
DOCKED: ENDROOT
DOCKED: BRANCH   1   4
DOCKED: ATOM      2  C13 UNL     1       8.721   1.014  -3.314 +0.00 +0.00    +0.233 C  
DOCKED: ATOM      3  O4  UNL     1       9.832   1.523  -3.164 +0.00 -0.00    -0.274 OA 
DOCKED: ATOM      4  N3  UNL     1       8.461   0.051  -4.262 +0.00 -0.00    -0.308 N  
DOCKED: ATOM      5  H24 UNL     1       7.516  -0.302  -4.355 +0.00 +0.00    +0.149 HD 
DOCKED: BRANCH   2   6
DOCKED: ATOM      6  C11 UNL     1       7.502   1.445  -2.478 +0.00 +0.00    +0.156 C  
DOCKED: ATOM      7  C12 UNL     1       7.945   1.904  -1.097 +0.00 +0.00    +0.038 C  
DOCKED: BRANCH   6  10
DOCKED: ATOM      8  C10 UNL     1       5.265   0.449  -2.222 +0.00 +0.00    +0.234 C  
DOCKED: ATOM      9  O3  UNL     1       4.740   1.540  -1.993 +0.00 -0.00    -0.274 OA 
DOCKED: ATOM     10  N2  UNL     1       6.625   0.287  -2.376 +0.00 -0.00    -0.303 N  
DOCKED: ATOM     11  H19 UNL     1       6.944  -0.546  -2.858 +0.00 +0.00    +0.149 HD 
DOCKED: BRANCH   8  12
DOCKED: ATOM     12  C4  UNL     1       4.444  -0.843  -2.405 +0.00 +0.00    +0.162 C  
DOCKED: BRANCH  12  13
DOCKED: ATOM     13  N1  UNL     1       4.524  -1.225  -3.805 +0.00 -0.00    -0.270 N  
DOCKED: ATOM     14  C5  UNL     1       5.604  -1.921  -4.258 +0.00 +0.00    +0.401 C  
DOCKED: ATOM     15  O1  UNL     1       6.671  -2.009  -3.676 +0.00 -0.00    -0.226 OA 
DOCKED: ATOM     16  H9  UNL     1       3.664  -1.524  -4.247 +0.00 +0.00    +0.153 HD 
DOCKED: BRANCH  14  17
DOCKED: ATOM     17  O2  UNL     1       5.280  -2.512  -5.429 +0.00 -0.00    -0.445 OA 
DOCKED: BRANCH  17  18
DOCKED: ATOM     18  C6  UNL     1       5.201  -3.957  -5.531 +0.00 +0.00    +0.107 C  
DOCKED: ATOM     19  C7  UNL     1       4.976  -4.596  -4.154 +0.00 +0.00    +0.055 C  
DOCKED: ATOM     20  C8  UNL     1       6.434  -4.539  -6.233 +0.00 +0.00    +0.055 C  
DOCKED: ATOM     21  C9  UNL     1       3.969  -4.221  -6.409 +0.00 +0.00    +0.055 C  
DOCKED: ENDBRANCH  17  18
DOCKED: ENDBRANCH  14  17
DOCKED: ENDBRANCH  12  13
DOCKED: BRANCH  12  22
DOCKED: ATOM     22  C3  UNL     1       5.013  -1.934  -1.493 +0.00 +0.00    +0.031 C  
DOCKED: BRANCH  22  24
DOCKED: ATOM     23  C1  UNL     1       2.647  -2.744  -1.827 +0.00 +0.00    +0.004 C  
DOCKED: ATOM     24  C2  UNL     1       4.021  -3.075  -1.261 +0.00 -0.00    -0.001 C  
DOCKED: ENDBRANCH  22  24
DOCKED: ENDBRANCH  12  22
DOCKED: ENDBRANCH   8  12
DOCKED: ENDBRANCH   6  10
DOCKED: ENDBRANCH   2   6
DOCKED: ENDBRANCH   1   4
DOCKED: BRANCH   1  25
DOCKED: ATOM     25  C15 UNL     1      10.424  -1.467  -4.264 +0.00 +0.00    +0.060 C  
DOCKED: BRANCH  25  26
DOCKED: ATOM     26  C16 UNL     1       9.622  -2.424  -3.403 +0.00 -0.00    -0.046 A  
DOCKED: ATOM     27  C17 UNL     1       9.272  -2.071  -2.092 +0.00 +0.00    +0.004 A  
DOCKED: ATOM     28  C18 UNL     1       8.498  -2.929  -1.309 +0.00 +0.00    +0.000 A  
DOCKED: ATOM     29  C19 UNL     1       8.065  -4.146  -1.827 +0.00 +0.00    +0.000 A  
DOCKED: ATOM     30  C20 UNL     1       8.407  -4.509  -3.127 +0.00 +0.00    +0.000 A  
DOCKED: ATOM     31  C21 UNL     1       9.183  -3.654  -3.912 +0.00 +0.00    +0.004 A  
DOCKED: ENDBRANCH  25  26
DOCKED: ENDBRANCH   1  25
DOCKED: BRANCH   1  32
DOCKED: ATOM     32  C22 UNL     1       8.932  -1.217  -6.375 +0.00 +0.00    +0.136 C  
DOCKED: BRANCH  32  33
DOCKED: ATOM     33  O5  UNL     1       7.648  -1.786  -6.076 +0.00 -0.00    -0.390 OA 
DOCKED: ATOM     34  H34 UNL     1       7.146  -1.116  -5.573 +0.00 +0.00    +0.210 HD 
DOCKED: ENDBRANCH  32  33
DOCKED: BRANCH  32  35
DOCKED: ATOM     35  C23 UNL     1       8.749  -0.284  -7.586 +0.00 +0.00    +0.045 C  
DOCKED: BRANCH  35  36
DOCKED: ATOM     36  C24 UNL     1       7.325   0.289  -7.682 +0.00 +0.00    +0.074 C  
DOCKED: ATOM     37  C25 UNL     1       6.289  -0.783  -8.023 +0.00 +0.00    +0.017 C  
DOCKED: BRANCH  36  38
DOCKED: ATOM     38  C26 UNL     1       6.956   1.030  -6.407 +0.00 +0.00    +0.217 C  
DOCKED: ATOM     39  O6  UNL     1       6.179   0.540  -5.587 +0.00 -0.00    -0.276 OA 
DOCKED: ATOM     40  N4  UNL     1       7.525   2.275  -6.262 +0.00 -0.00    -0.304 N  
DOCKED: ATOM     41  H41 UNL     1       7.761   2.737  -7.132 +0.00 +0.00    +0.149 HD 
DOCKED: BRANCH  40  42
DOCKED: ATOM     42  C27 UNL     1       7.071   3.158  -5.191 +0.00 +0.00    +0.161 C  
DOCKED: BRANCH  42  43
DOCKED: ATOM     43  C28 UNL     1       5.551   3.389  -5.365 +0.00 +0.00    +0.234 C  
DOCKED: ATOM     44  O7  UNL     1       5.095   4.254  -6.111 +0.00 -0.00    -0.274 OA 
DOCKED: ATOM     45  N5  UNL     1       4.761   2.569  -4.590 +0.00 -0.00    -0.310 N  
DOCKED: ATOM     46  H43 UNL     1       5.188   1.785  -4.113 +0.00 +0.00    +0.149 HD 
DOCKED: BRANCH  45  47
DOCKED: ATOM     47  C29 UNL     1       3.319   2.563  -4.714 +0.00 +0.00    +0.139 C  
DOCKED: BRANCH  47  48
DOCKED: ATOM     48  C30 UNL     1       2.797   1.175  -4.987 +0.00 -0.00    -0.027 A  
DOCKED: ATOM     49  C31 UNL     1       3.233   0.459  -6.106 +0.00 +0.00    +0.025 A  
DOCKED: ATOM     50  C32 UNL     1       2.744  -0.824  -6.309 +0.00 +0.00    +0.111 A  
DOCKED: ATOM     51  N6  UNL     1       1.866  -1.435  -5.487 +0.00 -0.00    -0.263 NA 
DOCKED: ATOM     52  C33 UNL     1       1.467  -0.734  -4.406 +0.00 +0.00    +0.111 A  
DOCKED: ATOM     53  C34 UNL     1       1.901   0.551  -4.113 +0.00 +0.00    +0.025 A  
DOCKED: ENDBRANCH  47  48
DOCKED: ENDBRANCH  45  47
DOCKED: ENDBRANCH  42  43
DOCKED: BRANCH  42  54
DOCKED: ATOM     54  C35 UNL     1       7.844   4.497  -5.153 +0.00 +0.00    +0.012 C  
DOCKED: ATOM     55  C36 UNL     1       9.296   4.375  -5.633 +0.00 +0.00    +0.009 C  
DOCKED: ATOM     56  C37 UNL     1       7.808   5.108  -3.748 +0.00 +0.00    +0.009 C  
DOCKED: ENDBRANCH  42  54
DOCKED: ENDBRANCH  40  42
DOCKED: ENDBRANCH  36  38
DOCKED: ENDBRANCH  35  36
DOCKED: ENDBRANCH  32  35
DOCKED: ENDBRANCH   1  32
DOCKED: TORSDOF 21
DOCKED: TER
DOCKED: ENDMDL
________________________________________________________________________________


    FINAL DOCKED STATE:
    ________________________


Run:   18 / 20
Time taken for this run:   1.417s

DOCKED: MODEL        18
DOCKED: USER    Run = 18
DOCKED: USER
DOCKED: USER    Estimated Free Energy of Binding    =  +6.26 kcal/mol  [=(1)+(2)+(3)-(4)]
DOCKED: USER
DOCKED: USER    (1) Final Intermolecular Energy     =  +0.00 kcal/mol
DOCKED: USER        vdW + Hbond + desolv Energy     =  +0.00 kcal/mol
DOCKED: USER        Electrostatic Energy            =  +0.00 kcal/mol
DOCKED: USER        Moving Ligand-Fixed Receptor    =  +0.00 kcal/mol
DOCKED: USER        Moving Ligand-Moving Receptor   =  +0.00 kcal/mol
DOCKED: USER    (2) Final Total Internal Energy     = -14.69 kcal/mol
DOCKED: USER    (3) Torsional Free Energy           =  +6.26 kcal/mol
DOCKED: USER    (4) Unbound System's Energy         = -14.69 kcal/mol
DOCKED: USER
DOCKED: USER
DOCKED: REMARK  Name = ligands/ligand_11.pdb
DOCKED: REMARK  29 active torsions:
DOCKED: REMARK  status: ('A' for Active; 'I' for Inactive)
DOCKED: REMARK    1  A    between atoms: C1_1  and  C2_2
DOCKED: REMARK    2  A    between atoms: C2_2  and  C3_3
DOCKED: REMARK    3  A    between atoms: C3_3  and  C4_4
DOCKED: REMARK    4  A    between atoms: C4_4  and  N1_5
DOCKED: REMARK    5  A    between atoms: C4_4  and  C10_13
DOCKED: REMARK    6  A    between atoms: C5_6  and  O2_8
DOCKED: REMARK    7  A    between atoms: O2_8  and  C6_9
DOCKED: REMARK    8  A    between atoms: C6_9  and  C7_10
DOCKED: REMARK    9  A    between atoms: C6_9  and  C8_11
DOCKED: REMARK   10  A    between atoms: C6_9  and  C9_12
DOCKED: REMARK   11  A    between atoms: N2_15  and  C11_16
DOCKED: REMARK   12  A    between atoms: C11_16  and  C12_17
DOCKED: REMARK   13  A    between atoms: C11_16  and  C13_18
DOCKED: REMARK   14  A    between atoms: N3_20  and  C14_21
DOCKED: REMARK   15  A    between atoms: C14_21  and  C15_22
DOCKED: REMARK   16  A    between atoms: C14_21  and  C22_29
DOCKED: REMARK   17  A    between atoms: C15_22  and  C16_23
DOCKED: REMARK   18  A    between atoms: C22_29  and  O5_30
DOCKED: REMARK   19  A    between atoms: C22_29  and  C23_31
DOCKED: REMARK   20  A    between atoms: C23_31  and  C24_32
DOCKED: REMARK   21  A    between atoms: C24_32  and  C25_33
DOCKED: REMARK   22  A    between atoms: C24_32  and  C26_34
DOCKED: REMARK   23  A    between atoms: N4_36  and  C27_37
DOCKED: REMARK   24  A    between atoms: C27_37  and  C28_38
DOCKED: REMARK   25  A    between atoms: C27_37  and  C35_48
DOCKED: REMARK   26  A    between atoms: N5_40  and  C29_41
DOCKED: REMARK   27  A    between atoms: C29_41  and  C30_42
DOCKED: REMARK   28  A    between atoms: C35_48  and  C36_49
DOCKED: REMARK   29  A    between atoms: C35_48  and  C37_50
DOCKED: REMARK                            x       y       z     vdW  Elec       q    Type
DOCKED: REMARK                         _______ _______ _______ _____ _____    ______ ____
DOCKED: USER                              x       y       z     vdW  Elec       q    Type
DOCKED: USER                           _______ _______ _______ _____ _____    ______ ____
DOCKED: ROOT
DOCKED: ATOM      1  C14 UNL     1       9.798  -4.805  -0.309 +0.00 +0.00    +0.106 C  
DOCKED: ENDROOT
DOCKED: BRANCH   1   4
DOCKED: ATOM      2  C13 UNL     1      11.270  -2.915   0.369 +0.00 +0.00    +0.233 C  
DOCKED: ATOM      3  O4  UNL     1      12.241  -3.645   0.565 +0.00 -0.00    -0.274 OA 
DOCKED: ATOM      4  N3  UNL     1      10.067  -3.383  -0.106 +0.00 -0.00    -0.308 N  
DOCKED: ATOM      5  H24 UNL     1       9.317  -2.722  -0.278 +0.00 +0.00    +0.149 HD 
DOCKED: BRANCH   2   6
DOCKED: ATOM      6  C11 UNL     1      11.329  -1.393   0.596 +0.00 +0.00    +0.156 C  
DOCKED: ATOM      7  C12 UNL     1      11.284  -1.079   2.083 +0.00 +0.00    +0.038 C  
DOCKED: BRANCH   6  10
DOCKED: ATOM      8  C10 UNL     1      10.142   0.529  -0.383 +0.00 +0.00    +0.234 C  
DOCKED: ATOM      9  O3  UNL     1      10.969   1.335   0.047 +0.00 -0.00    -0.274 OA 
DOCKED: ATOM     10  N2  UNL     1      10.178  -0.816  -0.086 +0.00 -0.00    -0.303 N  
DOCKED: ATOM     11  H19 UNL     1       9.677  -1.444  -0.703 +0.00 +0.00    +0.149 HD 
DOCKED: BRANCH   8  12
DOCKED: ATOM     12  C4  UNL     1       9.002   0.940  -1.337 +0.00 +0.00    +0.162 C  
DOCKED: BRANCH  12  13
DOCKED: ATOM     13  N1  UNL     1       7.766   0.952  -0.573 +0.00 -0.00    -0.270 N  
DOCKED: ATOM     14  C5  UNL     1       7.301  -0.202  -0.017 +0.00 +0.00    +0.401 C  
DOCKED: ATOM     15  O1  UNL     1       7.655  -1.322  -0.338 +0.00 -0.00    -0.226 OA 
DOCKED: ATOM     16  H9  UNL     1       7.603   1.755   0.020 +0.00 +0.00    +0.153 HD 
DOCKED: BRANCH  14  17
DOCKED: ATOM     17  O2  UNL     1       6.418   0.111   0.956 +0.00 -0.00    -0.445 OA 
DOCKED: BRANCH  17  18
DOCKED: ATOM     18  C6  UNL     1       6.874   0.653   2.222 +0.00 +0.00    +0.107 C  
DOCKED: ATOM     19  C7  UNL     1       6.824   2.187   2.215 +0.00 +0.00    +0.055 C  
DOCKED: ATOM     20  C8  UNL     1       8.270   0.132   2.586 +0.00 +0.00    +0.055 C  
DOCKED: ATOM     21  C9  UNL     1       5.871   0.127   3.258 +0.00 +0.00    +0.055 C  
DOCKED: ENDBRANCH  17  18
DOCKED: ENDBRANCH  14  17
DOCKED: ENDBRANCH  12  13
DOCKED: BRANCH  12  22
DOCKED: ATOM     22  C3  UNL     1       9.311   2.319  -1.925 +0.00 +0.00    +0.031 C  
DOCKED: BRANCH  22  24
DOCKED: ATOM     23  C1  UNL     1      10.448   0.912  -3.684 +0.00 +0.00    +0.004 C  
DOCKED: ATOM     24  C2  UNL     1       9.770   2.241  -3.383 +0.00 -0.00    -0.001 C  
DOCKED: ENDBRANCH  22  24
DOCKED: ENDBRANCH  12  22
DOCKED: ENDBRANCH   8  12
DOCKED: ENDBRANCH   6  10
DOCKED: ENDBRANCH   2   6
DOCKED: ENDBRANCH   1   4
DOCKED: BRANCH   1  25
DOCKED: ATOM     25  C15 UNL     1       9.478  -5.506   1.035 +0.00 +0.00    +0.060 C  
DOCKED: BRANCH  25  26
DOCKED: ATOM     26  C16 UNL     1       8.656  -4.619   1.951 +0.00 -0.00    -0.046 A  
DOCKED: ATOM     27  C17 UNL     1       9.239  -4.051   3.092 +0.00 +0.00    +0.004 A  
DOCKED: ATOM     28  C18 UNL     1       8.500  -3.200   3.916 +0.00 +0.00    +0.000 A  
DOCKED: ATOM     29  C19 UNL     1       7.174  -2.907   3.608 +0.00 +0.00    +0.000 A  
DOCKED: ATOM     30  C20 UNL     1       6.584  -3.468   2.478 +0.00 +0.00    +0.000 A  
DOCKED: ATOM     31  C21 UNL     1       7.319  -4.321   1.653 +0.00 +0.00    +0.004 A  
DOCKED: ENDBRANCH  25  26
DOCKED: ENDBRANCH   1  25
DOCKED: BRANCH   1  32
DOCKED: ATOM     32  C22 UNL     1       8.722  -5.054  -1.408 +0.00 +0.00    +0.136 C  
DOCKED: BRANCH  32  33
DOCKED: ATOM     33  O5  UNL     1       7.752  -3.996  -1.374 +0.00 -0.00    -0.390 OA 
DOCKED: ATOM     34  H34 UNL     1       8.242  -3.159  -1.257 +0.00 +0.00    +0.210 HD 
DOCKED: ENDBRANCH  32  33
DOCKED: BRANCH  32  35
DOCKED: ATOM     35  C23 UNL     1       9.264  -5.132  -2.847 +0.00 +0.00    +0.045 C  
DOCKED: BRANCH  35  36
DOCKED: ATOM     36  C24 UNL     1      10.217  -3.973  -3.185 +0.00 +0.00    +0.074 C  
DOCKED: ATOM     37  C25 UNL     1      11.012  -4.228  -4.466 +0.00 +0.00    +0.017 C  
DOCKED: BRANCH  36  38
DOCKED: ATOM     38  C26 UNL     1       9.458  -2.657  -3.255 +0.00 +0.00    +0.217 C  
DOCKED: ATOM     39  O6  UNL     1       9.365  -1.922  -2.272 +0.00 -0.00    -0.276 OA 
DOCKED: ATOM     40  N4  UNL     1       8.873  -2.378  -4.469 +0.00 -0.00    -0.304 N  
DOCKED: ATOM     41  H41 UNL     1       8.638  -3.192  -5.025 +0.00 +0.00    +0.149 HD 
DOCKED: BRANCH  40  42
DOCKED: ATOM     42  C27 UNL     1       7.942  -1.258  -4.583 +0.00 +0.00    +0.161 C  
DOCKED: BRANCH  42  43
DOCKED: ATOM     43  C28 UNL     1       6.531  -1.758  -4.193 +0.00 +0.00    +0.234 C  
DOCKED: ATOM     44  O7  UNL     1       5.608  -1.834  -5.003 +0.00 -0.00    -0.274 OA 
DOCKED: ATOM     45  N5  UNL     1       6.391  -2.078  -2.860 +0.00 -0.00    -0.310 N  
DOCKED: ATOM     46  H43 UNL     1       7.219  -2.135  -2.280 +0.00 +0.00    +0.149 HD 
DOCKED: BRANCH  45  47
DOCKED: ATOM     47  C29 UNL     1       5.178  -2.676  -2.344 +0.00 +0.00    +0.139 C  
DOCKED: BRANCH  47  48
DOCKED: ATOM     48  C30 UNL     1       4.596  -1.856  -1.222 +0.00 -0.00    -0.027 A  
DOCKED: ATOM     49  C31 UNL     1       4.207  -0.531  -1.437 +0.00 +0.00    +0.025 A  
DOCKED: ATOM     50  C32 UNL     1       3.655   0.182  -0.382 +0.00 +0.00    +0.111 A  
DOCKED: ATOM     51  N6  UNL     1       3.463  -0.325   0.853 +0.00 -0.00    -0.263 NA 
DOCKED: ATOM     52  C33 UNL     1       3.832  -1.609   1.038 +0.00 +0.00    +0.111 A  
DOCKED: ATOM     53  C34 UNL     1       4.387  -2.406   0.048 +0.00 +0.00    +0.025 A  
DOCKED: ENDBRANCH  47  48
DOCKED: ENDBRANCH  45  47
DOCKED: ENDBRANCH  42  43
DOCKED: BRANCH  42  54
DOCKED: ATOM     54  C35 UNL     1       7.944  -0.620  -5.992 +0.00 +0.00    +0.012 C  
DOCKED: ATOM     55  C36 UNL     1       9.295  -0.735  -6.709 +0.00 +0.00    +0.009 C  
DOCKED: ATOM     56  C37 UNL     1       7.511   0.848  -5.926 +0.00 +0.00    +0.009 C  
DOCKED: ENDBRANCH  42  54
DOCKED: ENDBRANCH  40  42
DOCKED: ENDBRANCH  36  38
DOCKED: ENDBRANCH  35  36
DOCKED: ENDBRANCH  32  35
DOCKED: ENDBRANCH   1  32
DOCKED: TORSDOF 21
DOCKED: TER
DOCKED: ENDMDL
________________________________________________________________________________


    FINAL DOCKED STATE:
    ________________________


Run:   19 / 20
Time taken for this run:   1.417s

DOCKED: MODEL        19
DOCKED: USER    Run = 19
DOCKED: USER
DOCKED: USER    Estimated Free Energy of Binding    =  +6.26 kcal/mol  [=(1)+(2)+(3)-(4)]
DOCKED: USER
DOCKED: USER    (1) Final Intermolecular Energy     =  +0.00 kcal/mol
DOCKED: USER        vdW + Hbond + desolv Energy     =  +0.00 kcal/mol
DOCKED: USER        Electrostatic Energy            =  +0.00 kcal/mol
DOCKED: USER        Moving Ligand-Fixed Receptor    =  +0.00 kcal/mol
DOCKED: USER        Moving Ligand-Moving Receptor   =  +0.00 kcal/mol
DOCKED: USER    (2) Final Total Internal Energy     = -14.69 kcal/mol
DOCKED: USER    (3) Torsional Free Energy           =  +6.26 kcal/mol
DOCKED: USER    (4) Unbound System's Energy         = -14.69 kcal/mol
DOCKED: USER
DOCKED: USER
DOCKED: REMARK  Name = ligands/ligand_11.pdb
DOCKED: REMARK  29 active torsions:
DOCKED: REMARK  status: ('A' for Active; 'I' for Inactive)
DOCKED: REMARK    1  A    between atoms: C1_1  and  C2_2
DOCKED: REMARK    2  A    between atoms: C2_2  and  C3_3
DOCKED: REMARK    3  A    between atoms: C3_3  and  C4_4
DOCKED: REMARK    4  A    between atoms: C4_4  and  N1_5
DOCKED: REMARK    5  A    between atoms: C4_4  and  C10_13
DOCKED: REMARK    6  A    between atoms: C5_6  and  O2_8
DOCKED: REMARK    7  A    between atoms: O2_8  and  C6_9
DOCKED: REMARK    8  A    between atoms: C6_9  and  C7_10
DOCKED: REMARK    9  A    between atoms: C6_9  and  C8_11
DOCKED: REMARK   10  A    between atoms: C6_9  and  C9_12
DOCKED: REMARK   11  A    between atoms: N2_15  and  C11_16
DOCKED: REMARK   12  A    between atoms: C11_16  and  C12_17
DOCKED: REMARK   13  A    between atoms: C11_16  and  C13_18
DOCKED: REMARK   14  A    between atoms: N3_20  and  C14_21
DOCKED: REMARK   15  A    between atoms: C14_21  and  C15_22
DOCKED: REMARK   16  A    between atoms: C14_21  and  C22_29
DOCKED: REMARK   17  A    between atoms: C15_22  and  C16_23
DOCKED: REMARK   18  A    between atoms: C22_29  and  O5_30
DOCKED: REMARK   19  A    between atoms: C22_29  and  C23_31
DOCKED: REMARK   20  A    between atoms: C23_31  and  C24_32
DOCKED: REMARK   21  A    between atoms: C24_32  and  C25_33
DOCKED: REMARK   22  A    between atoms: C24_32  and  C26_34
DOCKED: REMARK   23  A    between atoms: N4_36  and  C27_37
DOCKED: REMARK   24  A    between atoms: C27_37  and  C28_38
DOCKED: REMARK   25  A    between atoms: C27_37  and  C35_48
DOCKED: REMARK   26  A    between atoms: N5_40  and  C29_41
DOCKED: REMARK   27  A    between atoms: C29_41  and  C30_42
DOCKED: REMARK   28  A    between atoms: C35_48  and  C36_49
DOCKED: REMARK   29  A    between atoms: C35_48  and  C37_50
DOCKED: REMARK                            x       y       z     vdW  Elec       q    Type
DOCKED: REMARK                         _______ _______ _______ _____ _____    ______ ____
DOCKED: USER                              x       y       z     vdW  Elec       q    Type
DOCKED: USER                           _______ _______ _______ _____ _____    ______ ____
DOCKED: ROOT
DOCKED: ATOM      1  C14 UNL     1      14.235  -2.174  -1.635 +0.00 +0.00    +0.106 C  
DOCKED: ENDROOT
DOCKED: BRANCH   1   4
DOCKED: ATOM      2  C13 UNL     1      13.683  -3.522  -3.655 +0.00 +0.00    +0.233 C  
DOCKED: ATOM      3  O4  UNL     1      14.695  -4.216  -3.560 +0.00 -0.00    -0.274 OA 
DOCKED: ATOM      4  N3  UNL     1      13.354  -2.549  -2.739 +0.00 -0.00    -0.308 N  
DOCKED: ATOM      5  H24 UNL     1      12.488  -2.037  -2.859 +0.00 +0.00    +0.149 HD 
DOCKED: BRANCH   2   6
DOCKED: ATOM      6  C11 UNL     1      12.663  -3.712  -4.792 +0.00 +0.00    +0.156 C  
DOCKED: ATOM      7  C12 UNL     1      13.203  -3.130  -6.090 +0.00 +0.00    +0.038 C  
DOCKED: BRANCH   6  10
DOCKED: ATOM      8  C10 UNL     1      10.235  -3.341  -4.974 +0.00 +0.00    +0.234 C  
DOCKED: ATOM      9  O3  UNL     1      10.137  -4.072  -5.961 +0.00 -0.00    -0.274 OA 
DOCKED: ATOM     10  N2  UNL     1      11.443  -3.025  -4.390 +0.00 -0.00    -0.303 N  
DOCKED: ATOM     11  H19 UNL     1      11.426  -2.691  -3.433 +0.00 +0.00    +0.149 HD 
DOCKED: BRANCH   8  12
DOCKED: ATOM     12  C4  UNL     1       9.007  -2.737  -4.263 +0.00 +0.00    +0.162 C  
DOCKED: BRANCH  12  13
DOCKED: ATOM     13  N1  UNL     1       8.963  -1.320  -4.579 +0.00 -0.00    -0.270 N  
DOCKED: ATOM     14  C5  UNL     1       9.971  -0.501  -4.167 +0.00 +0.00    +0.401 C  
DOCKED: ATOM     15  O1  UNL     1      10.777  -0.772  -3.295 +0.00 -0.00    -0.226 OA 
DOCKED: ATOM     16  H9  UNL     1       8.614  -1.067  -5.495 +0.00 +0.00    +0.153 HD 
DOCKED: BRANCH  14  17
DOCKED: ATOM     17  O2  UNL     1       9.939   0.631  -4.905 +0.00 -0.00    -0.445 OA 
DOCKED: BRANCH  17  18
DOCKED: ATOM     18  C6  UNL     1      10.389   0.627  -6.284 +0.00 +0.00    +0.107 C  
DOCKED: ATOM     19  C7  UNL     1       9.215   0.404  -7.247 +0.00 +0.00    +0.055 C  
DOCKED: ATOM     20  C8  UNL     1      11.509  -0.397  -6.507 +0.00 +0.00    +0.055 C  
DOCKED: ATOM     21  C9  UNL     1      10.960   2.034  -6.513 +0.00 +0.00    +0.055 C  
DOCKED: ENDBRANCH  17  18
DOCKED: ENDBRANCH  14  17
DOCKED: ENDBRANCH  12  13
DOCKED: BRANCH  12  22
DOCKED: ATOM     22  C3  UNL     1       7.744  -3.459  -4.742 +0.00 +0.00    +0.031 C  
DOCKED: BRANCH  22  24
DOCKED: ATOM     23  C1  UNL     1       8.306  -5.007  -2.830 +0.00 +0.00    +0.004 C  
DOCKED: ATOM     24  C2  UNL     1       7.194  -4.427  -3.692 +0.00 -0.00    -0.001 C  
DOCKED: ENDBRANCH  22  24
DOCKED: ENDBRANCH  12  22
DOCKED: ENDBRANCH   8  12
DOCKED: ENDBRANCH   6  10
DOCKED: ENDBRANCH   2   6
DOCKED: ENDBRANCH   1   4
DOCKED: BRANCH   1  25
DOCKED: ATOM     25  C15 UNL     1      15.386  -1.263  -2.131 +0.00 +0.00    +0.060 C  
DOCKED: BRANCH  25  26
DOCKED: ATOM     26  C16 UNL     1      14.913  -0.282  -3.187 +0.00 -0.00    -0.046 A  
DOCKED: ATOM     27  C17 UNL     1      15.320  -0.430  -4.520 +0.00 +0.00    +0.004 A  
DOCKED: ATOM     28  C18 UNL     1      14.855   0.443  -5.505 +0.00 +0.00    +0.000 A  
DOCKED: ATOM     29  C19 UNL     1      13.978   1.471  -5.168 +0.00 +0.00    +0.000 A  
DOCKED: ATOM     30  C20 UNL     1      13.568   1.629  -3.847 +0.00 +0.00    +0.000 A  
DOCKED: ATOM     31  C21 UNL     1      14.033   0.759  -2.859 +0.00 +0.00    +0.004 A  
DOCKED: ENDBRANCH  25  26
DOCKED: ENDBRANCH   1  25
DOCKED: BRANCH   1  32
DOCKED: ATOM     32  C22 UNL     1      13.452  -1.581  -0.427 +0.00 +0.00    +0.136 C  
DOCKED: BRANCH  32  33
DOCKED: ATOM     33  O5  UNL     1      12.311  -0.853  -0.909 +0.00 -0.00    -0.390 OA 
DOCKED: ATOM     34  H34 UNL     1      11.887  -1.404  -1.595 +0.00 +0.00    +0.210 HD 
DOCKED: ENDBRANCH  32  33
DOCKED: BRANCH  32  35
DOCKED: ATOM     35  C23 UNL     1      12.938  -2.615   0.590 +0.00 +0.00    +0.045 C  
DOCKED: BRANCH  35  36
DOCKED: ATOM     36  C24 UNL     1      12.223  -3.801  -0.080 +0.00 +0.00    +0.074 C  
DOCKED: ATOM     37  C25 UNL     1      12.023  -4.977   0.876 +0.00 +0.00    +0.017 C  
DOCKED: BRANCH  36  38
DOCKED: ATOM     38  C26 UNL     1      10.904  -3.354  -0.692 +0.00 +0.00    +0.217 C  
DOCKED: ATOM     39  O6  UNL     1      10.835  -3.004  -1.870 +0.00 -0.00    -0.276 OA 
DOCKED: ATOM     40  N4  UNL     1       9.828  -3.346   0.166 +0.00 -0.00    -0.304 N  
DOCKED: ATOM     41  H41 UNL     1      10.065  -3.219   1.143 +0.00 +0.00    +0.149 HD 
DOCKED: BRANCH  40  42
DOCKED: ATOM     42  C27 UNL     1       8.572  -2.729  -0.254 +0.00 +0.00    +0.161 C  
DOCKED: BRANCH  42  43
DOCKED: ATOM     43  C28 UNL     1       8.640  -1.219   0.073 +0.00 +0.00    +0.234 C  
DOCKED: ATOM     44  O7  UNL     1       7.907  -0.689   0.907 +0.00 -0.00    -0.274 OA 
DOCKED: ATOM     45  N5  UNL     1       9.564  -0.518  -0.669 +0.00 -0.00    -0.310 N  
DOCKED: ATOM     46  H43 UNL     1      10.235  -1.032  -1.228 +0.00 +0.00    +0.149 HD 
DOCKED: BRANCH  45  47
DOCKED: ATOM     47  C29 UNL     1       9.848   0.877  -0.412 +0.00 +0.00    +0.139 C  
DOCKED: BRANCH  47  48
DOCKED: ATOM     48  C30 UNL     1       9.620   1.720  -1.640 +0.00 -0.00    -0.027 A  
DOCKED: ATOM     49  C31 UNL     1       8.352   1.799  -2.222 +0.00 +0.00    +0.025 A  
DOCKED: ATOM     50  C32 UNL     1       8.179   2.604  -3.340 +0.00 +0.00    +0.111 A  
DOCKED: ATOM     51  N6  UNL     1       9.166   3.328  -3.907 +0.00 -0.00    -0.263 NA 
DOCKED: ATOM     52  C33 UNL     1      10.379   3.250  -3.324 +0.00 +0.00    +0.111 A  
DOCKED: ATOM     53  C34 UNL     1      10.652   2.479  -2.203 +0.00 +0.00    +0.025 A  
DOCKED: ENDBRANCH  47  48
DOCKED: ENDBRANCH  45  47
DOCKED: ENDBRANCH  42  43
DOCKED: BRANCH  42  54
DOCKED: ATOM     54  C35 UNL     1       7.334  -3.392   0.395 +0.00 +0.00    +0.012 C  
DOCKED: ATOM     55  C36 UNL     1       7.516  -4.892   0.658 +0.00 +0.00    +0.009 C  
DOCKED: ATOM     56  C37 UNL     1       6.082  -3.159  -0.456 +0.00 +0.00    +0.009 C  
DOCKED: ENDBRANCH  42  54
DOCKED: ENDBRANCH  40  42
DOCKED: ENDBRANCH  36  38
DOCKED: ENDBRANCH  35  36
DOCKED: ENDBRANCH  32  35
DOCKED: ENDBRANCH   1  32
DOCKED: TORSDOF 21
DOCKED: TER
DOCKED: ENDMDL
________________________________________________________________________________


    FINAL DOCKED STATE:
    ________________________


Run:   20 / 20
Time taken for this run:   1.417s

DOCKED: MODEL        20
DOCKED: USER    Run = 20
DOCKED: USER
DOCKED: USER    Estimated Free Energy of Binding    =  +6.26 kcal/mol  [=(1)+(2)+(3)-(4)]
DOCKED: USER
DOCKED: USER    (1) Final Intermolecular Energy     =  +0.00 kcal/mol
DOCKED: USER        vdW + Hbond + desolv Energy     =  +0.00 kcal/mol
DOCKED: USER        Electrostatic Energy            =  +0.00 kcal/mol
DOCKED: USER        Moving Ligand-Fixed Receptor    =  +0.00 kcal/mol
DOCKED: USER        Moving Ligand-Moving Receptor   =  +0.00 kcal/mol
DOCKED: USER    (2) Final Total Internal Energy     = -14.70 kcal/mol
DOCKED: USER    (3) Torsional Free Energy           =  +6.26 kcal/mol
DOCKED: USER    (4) Unbound System's Energy         = -14.70 kcal/mol
DOCKED: USER
DOCKED: USER
DOCKED: REMARK  Name = ligands/ligand_11.pdb
DOCKED: REMARK  29 active torsions:
DOCKED: REMARK  status: ('A' for Active; 'I' for Inactive)
DOCKED: REMARK    1  A    between atoms: C1_1  and  C2_2
DOCKED: REMARK    2  A    between atoms: C2_2  and  C3_3
DOCKED: REMARK    3  A    between atoms: C3_3  and  C4_4
DOCKED: REMARK    4  A    between atoms: C4_4  and  N1_5
DOCKED: REMARK    5  A    between atoms: C4_4  and  C10_13
DOCKED: REMARK    6  A    between atoms: C5_6  and  O2_8
DOCKED: REMARK    7  A    between atoms: O2_8  and  C6_9
DOCKED: REMARK    8  A    between atoms: C6_9  and  C7_10
DOCKED: REMARK    9  A    between atoms: C6_9  and  C8_11
DOCKED: REMARK   10  A    between atoms: C6_9  and  C9_12
DOCKED: REMARK   11  A    between atoms: N2_15  and  C11_16
DOCKED: REMARK   12  A    between atoms: C11_16  and  C12_17
DOCKED: REMARK   13  A    between atoms: C11_16  and  C13_18
DOCKED: REMARK   14  A    between atoms: N3_20  and  C14_21
DOCKED: REMARK   15  A    between atoms: C14_21  and  C15_22
DOCKED: REMARK   16  A    between atoms: C14_21  and  C22_29
DOCKED: REMARK   17  A    between atoms: C15_22  and  C16_23
DOCKED: REMARK   18  A    between atoms: C22_29  and  O5_30
DOCKED: REMARK   19  A    between atoms: C22_29  and  C23_31
DOCKED: REMARK   20  A    between atoms: C23_31  and  C24_32
DOCKED: REMARK   21  A    between atoms: C24_32  and  C25_33
DOCKED: REMARK   22  A    between atoms: C24_32  and  C26_34
DOCKED: REMARK   23  A    between atoms: N4_36  and  C27_37
DOCKED: REMARK   24  A    between atoms: C27_37  and  C28_38
DOCKED: REMARK   25  A    between atoms: C27_37  and  C35_48
DOCKED: REMARK   26  A    between atoms: N5_40  and  C29_41
DOCKED: REMARK   27  A    between atoms: C29_41  and  C30_42
DOCKED: REMARK   28  A    between atoms: C35_48  and  C36_49
DOCKED: REMARK   29  A    between atoms: C35_48  and  C37_50
DOCKED: REMARK                            x       y       z     vdW  Elec       q    Type
DOCKED: REMARK                         _______ _______ _______ _____ _____    ______ ____
DOCKED: USER                              x       y       z     vdW  Elec       q    Type
DOCKED: USER                           _______ _______ _______ _____ _____    ______ ____
DOCKED: ROOT
DOCKED: ATOM      1  C14 UNL     1       7.632   0.431  -2.962 +0.00 +0.00    +0.106 C  
DOCKED: ENDROOT
DOCKED: BRANCH   1   4
DOCKED: ATOM      2  C13 UNL     1       5.678  -0.875  -3.785 +0.00 +0.00    +0.233 C  
DOCKED: ATOM      3  O4  UNL     1       6.343  -1.895  -3.968 +0.00 -0.00    -0.274 OA 
DOCKED: ATOM      4  N3  UNL     1       6.207   0.277  -3.251 +0.00 -0.00    -0.308 N  
DOCKED: ATOM      5  H24 UNL     1       5.596   1.071  -3.096 +0.00 +0.00    +0.149 HD 
DOCKED: BRANCH   2   6
DOCKED: ATOM      6  C11 UNL     1       4.172  -0.812  -4.098 +0.00 +0.00    +0.156 C  
DOCKED: ATOM      7  C12 UNL     1       3.948  -0.696  -5.598 +0.00 +0.00    +0.038 C  
DOCKED: BRANCH   6  10
DOCKED: ATOM      8  C10 UNL     1       2.293   0.470  -3.152 +0.00 +0.00    +0.234 C  
DOCKED: ATOM      9  O3  UNL     1       1.453  -0.298  -3.625 +0.00 -0.00    -0.274 OA 
DOCKED: ATOM     10  N2  UNL     1       3.643   0.358  -3.409 +0.00 -0.00    -0.303 N  
DOCKED: ATOM     11  H19 UNL     1       4.280   0.808  -2.761 +0.00 +0.00    +0.149 HD 
DOCKED: BRANCH   8  12
DOCKED: ATOM     12  C4  UNL     1       1.921   1.612  -2.186 +0.00 +0.00    +0.162 C  
DOCKED: BRANCH  12  13
DOCKED: ATOM     13  N1  UNL     1       2.036   2.864  -2.914 +0.00 -0.00    -0.270 N  
DOCKED: ATOM     14  C5  UNL     1       3.250   3.264  -3.388 +0.00 +0.00    +0.401 C  
DOCKED: ATOM     15  O1  UNL     1       4.323   2.828  -3.011 +0.00 -0.00    -0.226 OA 
DOCKED: ATOM     16  H9  UNL     1       1.283   3.095  -3.548 +0.00 +0.00    +0.153 HD 
DOCKED: BRANCH  14  17
DOCKED: ATOM     17  O2  UNL     1       3.055   4.190  -4.353 +0.00 -0.00    -0.445 OA 
DOCKED: BRANCH  17  18
DOCKED: ATOM     18  C6  UNL     1       2.560   3.802  -5.660 +0.00 +0.00    +0.107 C  
DOCKED: ATOM     19  C7  UNL     1       1.033   3.944  -5.736 +0.00 +0.00    +0.055 C  
DOCKED: ATOM     20  C8  UNL     1       3.018   2.388  -6.037 +0.00 +0.00    +0.055 C  
DOCKED: ATOM     21  C9  UNL     1       3.202   4.801  -6.633 +0.00 +0.00    +0.055 C  
DOCKED: ENDBRANCH  17  18
DOCKED: ENDBRANCH  14  17
DOCKED: ENDBRANCH  12  13
DOCKED: BRANCH  12  22
DOCKED: ATOM     22  C3  UNL     1       0.496   1.391  -1.671 +0.00 +0.00    +0.031 C  
DOCKED: BRANCH  22  24
DOCKED: ATOM     23  C1  UNL     1       1.655   0.020   0.101 +0.00 +0.00    +0.004 C  
DOCKED: ATOM     24  C2  UNL     1       0.469   0.920  -0.216 +0.00 -0.00    -0.001 C  
DOCKED: ENDBRANCH  22  24
DOCKED: ENDBRANCH  12  22
DOCKED: ENDBRANCH   8  12
DOCKED: ENDBRANCH   6  10
DOCKED: ENDBRANCH   2   6
DOCKED: ENDBRANCH   1   4
DOCKED: BRANCH   1  25
DOCKED: ATOM     25  C15 UNL     1       8.430   0.728  -4.256 +0.00 +0.00    +0.060 C  
DOCKED: BRANCH  25  26
DOCKED: ATOM     26  C16 UNL     1       7.661   1.636  -5.197 +0.00 -0.00    -0.046 A  
DOCKED: ATOM     27  C17 UNL     1       7.131   1.127  -6.391 +0.00 +0.00    +0.004 A  
DOCKED: ATOM     28  C18 UNL     1       6.385   1.946  -7.241 +0.00 +0.00    +0.000 A  
DOCKED: ATOM     29  C19 UNL     1       6.161   3.279  -6.906 +0.00 +0.00    +0.000 A  
DOCKED: ATOM     30  C20 UNL     1       6.684   3.796  -5.724 +0.00 +0.00    +0.000 A  
DOCKED: ATOM     31  C21 UNL     1       7.432   2.980  -4.873 +0.00 +0.00    +0.004 A  
DOCKED: ENDBRANCH  25  26
DOCKED: ENDBRANCH   1  25
DOCKED: BRANCH   1  32
DOCKED: ATOM     32  C22 UNL     1       7.897   1.458  -1.821 +0.00 +0.00    +0.136 C  
DOCKED: BRANCH  32  33
DOCKED: ATOM     33  O5  UNL     1       6.911   2.500  -1.878 +0.00 -0.00    -0.390 OA 
DOCKED: ATOM     34  H34 UNL     1       6.046   2.071  -2.024 +0.00 +0.00    +0.210 HD 
DOCKED: ENDBRANCH  32  33
DOCKED: BRANCH  32  35
DOCKED: ATOM     35  C23 UNL     1       7.864   0.874  -0.397 +0.00 +0.00    +0.045 C  
DOCKED: BRANCH  35  36
DOCKED: ATOM     36  C24 UNL     1       6.636  -0.019  -0.150 +0.00 +0.00    +0.074 C  
DOCKED: ATOM     37  C25 UNL     1       6.775  -0.865   1.115 +0.00 +0.00    +0.017 C  
DOCKED: BRANCH  36  38
DOCKED: ATOM     38  C26 UNL     1       5.364   0.815  -0.122 +0.00 +0.00    +0.217 C  
DOCKED: ATOM     39  O6  UNL     1       4.696   0.994  -1.140 +0.00 -0.00    -0.276 OA 
DOCKED: ATOM     40  N4  UNL     1       5.046   1.366   1.099 +0.00 -0.00    -0.304 N  
DOCKED: ATOM     41  H41 UNL     1       5.838   1.528   1.710 +0.00 +0.00    +0.149 HD 
DOCKED: BRANCH  40  42
DOCKED: ATOM     42  C27 UNL     1       3.978   2.358   1.189 +0.00 +0.00    +0.161 C  
DOCKED: BRANCH  42  43
DOCKED: ATOM     43  C28 UNL     1       4.582   3.750   0.894 +0.00 +0.00    +0.234 C  
DOCKED: ATOM     44  O7  UNL     1       4.648   4.637   1.745 +0.00 -0.00    -0.274 OA 
DOCKED: ATOM     45  N5  UNL     1       5.007   3.922  -0.405 +0.00 -0.00    -0.310 N  
DOCKED: ATOM     46  H43 UNL     1       5.061   3.113  -1.012 +0.00 +0.00    +0.149 HD 
DOCKED: BRANCH  45  47
DOCKED: ATOM     47  C29 UNL     1       5.707   5.116  -0.826 +0.00 +0.00    +0.139 C  
DOCKED: BRANCH  47  48
DOCKED: ATOM     48  C30 UNL     1       5.010   5.782  -1.985 +0.00 -0.00    -0.027 A  
DOCKED: ATOM     49  C31 UNL     1       3.712   6.281  -1.842 +0.00 +0.00    +0.025 A  
DOCKED: ATOM     50  C32 UNL     1       3.114   6.907  -2.927 +0.00 +0.00    +0.111 A  
DOCKED: ATOM     51  N6  UNL     1       3.711   7.070  -4.126 +0.00 -0.00    -0.263 NA 
DOCKED: ATOM     52  C33 UNL     1       4.967   6.594  -4.241 +0.00 +0.00    +0.111 A  
DOCKED: ATOM     53  C34 UNL     1       5.652   5.958  -3.215 +0.00 +0.00    +0.025 A  
DOCKED: ENDBRANCH  47  48
DOCKED: ENDBRANCH  45  47
DOCKED: ENDBRANCH  42  43
DOCKED: BRANCH  42  54
DOCKED: ATOM     54  C35 UNL     1       3.255   2.334   2.556 +0.00 +0.00    +0.012 C  
DOCKED: ATOM     55  C36 UNL     1       3.207   0.940   3.194 +0.00 +0.00    +0.009 C  
DOCKED: ATOM     56  C37 UNL     1       1.838   2.903   2.434 +0.00 +0.00    +0.009 C  
DOCKED: ENDBRANCH  42  54
DOCKED: ENDBRANCH  40  42
DOCKED: ENDBRANCH  36  38
DOCKED: ENDBRANCH  35  36
DOCKED: ENDBRANCH  32  35
DOCKED: ENDBRANCH   1  32
DOCKED: TORSDOF 21
DOCKED: TER
DOCKED: ENDMDL
________________________________________________________________________________


    CLUSTERING HISTOGRAM
    ____________________


________________________________________________________________________________
     |           |     |           |     |
Clus | Lowest    | Run | Mean      | Num | Histogram
-ter | Binding   |     | Binding   | in  |
Rank | Energy    |     | Energy    | Clus|    5    10   15   20   25   30   35
_____|___________|_____|___________|_____|____:____|____:____|____:____|____:___
   1 |     +6.26 |   1 |     +6.26 |   1 |#
   2 |     +6.26 |   2 |     +6.26 |   1 |#
   3 |     +6.26 |   3 |     +6.26 |   1 |#
   4 |     +6.26 |   4 |     +6.26 |   1 |#
   5 |     +6.26 |   5 |     +6.26 |   1 |#
   6 |     +6.26 |   6 |     +6.26 |   1 |#
   7 |     +6.26 |   7 |     +6.26 |   1 |#
   8 |     +6.26 |   8 |     +6.26 |   1 |#
   9 |     +6.26 |   9 |     +6.26 |   1 |#
  10 |     +6.26 |  10 |     +6.26 |   1 |#
  11 |     +6.26 |  11 |     +6.26 |   1 |#
  12 |     +6.26 |  12 |     +6.26 |   1 |#
  13 |     +6.26 |  13 |     +6.26 |   1 |#
  14 |     +6.26 |  14 |     +6.26 |   1 |#
  15 |     +6.26 |  15 |     +6.26 |   1 |#
  16 |     +6.26 |  16 |     +6.26 |   1 |#
  17 |     +6.26 |  17 |     +6.26 |   1 |#
  18 |     +6.26 |  18 |     +6.26 |   1 |#
  19 |     +6.26 |  19 |     +6.26 |   1 |#
  20 |     +6.26 |  20 |     +6.26 |   1 |#
_____|___________|_____|___________|_____|______________________________________


    RMSD TABLE
    __________


_______________________________________________________________________
     |      |      |           |         |                 |
Rank | Sub- | Run  | Binding   | Cluster | Reference       | Grep
     | Rank |      | Energy    | RMSD    | RMSD            | Pattern
_____|______|______|___________|_________|_________________|___________
   1      1      1       +6.26      0.00      9.01           RANKING
   2      1      2       +6.26      0.00      7.26           RANKING
   3      1      3       +6.26      0.00      7.66           RANKING
   4      1      4       +6.26      0.00     12.97           RANKING
   5      1      5       +6.26      0.00      6.82           RANKING
   6      1      6       +6.26      0.00      5.28           RANKING
   7      1      7       +6.26      0.00     10.47           RANKING
   8      1      8       +6.26      0.00     11.36           RANKING
   9      1      9       +6.26      0.00     11.71           RANKING
  10      1     10       +6.26      0.00      6.35           RANKING
  11      1     11       +6.26      0.00     11.95           RANKING
  12      1     12       +6.26      0.00      8.24           RANKING
  13      1     13       +6.26      0.00      4.84           RANKING
  14      1     14       +6.26      0.00      5.78           RANKING
  15      1     15       +6.26      0.00      8.19           RANKING
  16      1     16       +6.26      0.00      6.16           RANKING
  17      1     17       +6.26      0.00      7.44           RANKING
  18      1     18       +6.26      0.00      6.58           RANKING
  19      1     19       +6.26      0.00      9.95           RANKING
  20      1     20       +6.26      0.00      6.85           RANKING

Run time 28.612 sec
Idle time 0.279 sec
