REMARK  Name = ligands/ligand_21.pdb
REMARK  29 active torsions:
REMARK  status: ('A' for Active; 'I' for Inactive)
REMARK    1  A    between atoms: C1_1  and  C2_2
REMARK    2  A    between atoms: C2_2  and  C3_3
REMARK    3  A    between atoms: C3_3  and  C4_4
REMARK    4  A    between atoms: C3_3  and  C5_5
REMARK    5  A    between atoms: C5_5  and  O1_6
REMARK    6  A    between atoms: C5_5  and  C6_7
REMARK    7  A    between atoms: N1_9  and  C7_10
REMARK    8  A    between atoms: C7_10  and  C8_11
REMARK    9  A    between atoms: C7_10  and  C11_15
REMARK   10  A    between atoms: C8_11  and  C9_12
REMARK   11  A    between atoms: C9_12  and  C10_13
REMARK   12  A    between atoms: N2_17  and  C12_18
REMARK   13  A    between atoms: C12_18  and  C13_19
REMARK   14  A    between atoms: C12_18  and  C20_26
REMARK   15  A    between atoms: C13_19  and  C14_20
REMARK   16  A    between atoms: C20_26  and  O4_27
REMARK   17  A    between atoms: C20_26  and  C21_28
REMARK   18  A    between atoms: C21_28  and  C22_29
REMARK   19  A    between atoms: C22_29  and  C23_30
REMARK   20  A    between atoms: C22_29  and  C26_34
REMARK   21  A    between atoms: C23_30  and  C24_31
REMARK   22  A    between atoms: C24_31  and  C25_32
REMARK   23  A    between atoms: N3_36  and  C27_37
REMARK   24  A    between atoms: C27_37  and  C28_38
REMARK   25  A    between atoms: C27_37  and  C35_48
REMARK   26  A    between atoms: N4_40  and  C29_41
REMARK   27  A    between atoms: C29_41  and  C30_42
REMARK   28  A    between atoms: C35_48  and  C36_49
REMARK   29  A    between atoms: C35_48  and  C37_50
REMARK                            x       y       z     vdW  Elec       q    Type
REMARK                         _______ _______ _______ _____ _____    ______ ____
ROOT
ATOM      1  C12 UNL     1       1.715  -1.282  -2.970  0.00  0.00    +0.106 C 
ENDROOT
BRANCH   1   4
ATOM      2  C11 UNL     1      -0.770  -1.262  -2.992  0.00  0.00    +0.234 C 
ATOM      3  O3  UNL     1      -0.814  -2.332  -3.599  0.00  0.00    -0.274 OA
ATOM      4  N2  UNL     1       0.424  -0.651  -2.678  0.00  0.00    -0.308 N 
ATOM      5  H20 UNL     1       0.403   0.172  -2.089  0.00  0.00    +0.149 HD
BRANCH   2   6
ATOM      6  C7  UNL     1      -2.013  -0.505  -2.483  0.00  0.00    +0.159 C 
BRANCH   6   9
ATOM      7  C6  UNL     1      -2.276   1.961  -2.254  0.00  0.00    +0.243 C 
ATOM      8  O2  UNL     1      -2.675   1.880  -1.094  0.00  0.00    -0.273 OA
ATOM      9  N1  UNL     1      -1.903   0.867  -2.990  0.00  0.00    -0.302 N 
ATOM     10  H12 UNL     1      -1.650   0.988  -3.965  0.00  0.00    +0.150 HD
BRANCH   7  11
ATOM     11  C5  UNL     1      -2.170   3.320  -2.970  0.00  0.00    +0.203 C 
BRANCH  11  12
ATOM     12  C3  UNL     1      -0.700   3.770  -3.115  0.00  0.00    +0.023 C 
ATOM     13  C4  UNL     1      -0.602   5.061  -3.939  0.00  0.00    +0.010 C 
BRANCH  12  15
ATOM     14  C1  UNL     1      -0.463   4.874  -0.755  0.00  0.00    +0.004 C 
ATOM     15  C2  UNL     1       0.088   3.905  -1.792  0.00  0.00    +0.003 C 
ENDBRANCH  12  15
ENDBRANCH  11  12
BRANCH  11  16
ATOM     16  O1  UNL     1      -2.956   4.306  -2.321  0.00  0.00    -0.382 OA
ATOM     17  H11 UNL     1      -3.230   3.914  -1.462  0.00  0.00    +0.210 HD
ENDBRANCH  11  16
ENDBRANCH   7  11
ENDBRANCH   6   9
BRANCH   6  18
ATOM     18  C8  UNL     1      -3.305  -1.190  -2.942  0.00  0.00    +0.034 C 
BRANCH  18  19
ATOM     19  C9  UNL     1      -4.597  -0.612  -2.362  0.00  0.00    +0.036 C 
BRANCH  19  20
ATOM     20  C10 UNL     1      -4.743  -0.800  -0.859  0.00  0.00    +0.213 C 
ATOM     21  F1  UNL     1      -5.976  -0.345  -0.497  0.00  0.00    -0.249 F 
ENDBRANCH  19  20
ENDBRANCH  18  19
ENDBRANCH   6  18
ENDBRANCH   2   6
ENDBRANCH   1   4
BRANCH   1  22
ATOM     22  C13 UNL     1       2.863  -0.246  -2.969  0.00  0.00    +0.060 C 
BRANCH  22  23
ATOM     23  C14 UNL     1       2.716   0.892  -3.965  0.00  0.00    -0.046 A 
ATOM     24  C15 UNL     1       2.332   0.682  -5.296  0.00  0.00    +0.004 A 
ATOM     25  C16 UNL     1       2.244   1.751  -6.194  0.00  0.00    +0.000 A 
ATOM     26  C17 UNL     1       2.566   3.040  -5.780  0.00  0.00    +0.000 A 
ATOM     27  C18 UNL     1       2.972   3.260  -4.463  0.00  0.00    +0.000 A 
ATOM     28  C19 UNL     1       3.048   2.194  -3.564  0.00  0.00    +0.004 A 
ENDBRANCH  22  23
ENDBRANCH   1  22
BRANCH   1  29
ATOM     29  C20 UNL     1       1.987  -2.469  -1.997  0.00  0.00    +0.136 C 
BRANCH  29  30
ATOM     30  O4  UNL     1       3.158  -3.172  -2.410  0.00  0.00    -0.390 OA
ATOM     31  H30 UNL     1       2.925  -3.664  -3.221  0.00  0.00    +0.210 HD
ENDBRANCH  29  30
BRANCH  29  32
ATOM     32  C21 UNL     1       2.146  -2.031  -0.530  0.00  0.00    +0.046 C 
BRANCH  32  33
ATOM     33  C22 UNL     1       1.989  -3.209   0.464  0.00  0.00    +0.078 C 
BRANCH  33  34
ATOM     34  C26 UNL     1       1.576  -2.770   1.878  0.00  0.00    +0.217 C 
ATOM     35  O5  UNL     1       2.025  -3.275   2.902  0.00  0.00    -0.275 OA
ATOM     36  N3  UNL     1       0.567  -1.828   1.915  0.00  0.00    -0.304 N 
ATOM     37  H40 UNL     1      -0.063  -1.816   1.120  0.00  0.00    +0.149 HD
BRANCH  36  38
ATOM     38  C27 UNL     1      -0.060  -1.476   3.188  0.00  0.00    +0.161 C 
BRANCH  38  39
ATOM     39  C28 UNL     1      -1.333  -2.350   3.247  0.00  0.00    +0.234 C 
ATOM     40  O6  UNL     1      -2.007  -2.588   2.243  0.00  0.00    -0.274 OA
ATOM     41  N4  UNL     1      -1.661  -2.802   4.506  0.00  0.00    -0.310 N 
ATOM     42  H42 UNL     1      -0.903  -2.888   5.167  0.00  0.00    +0.149 HD
BRANCH  41  43
ATOM     43  C29 UNL     1      -2.784  -3.692   4.707  0.00  0.00    +0.139 C 
BRANCH  43  44
ATOM     44  C30 UNL     1      -3.351  -3.529   6.091  0.00  0.00    -0.027 A 
ATOM     45  C31 UNL     1      -2.651  -3.961   7.221  0.00  0.00    +0.025 A 
ATOM     46  C32 UNL     1      -3.212  -3.747   8.471  0.00  0.00    +0.111 A 
ATOM     47  N5  UNL     1      -4.403  -3.146   8.669  0.00  0.00    -0.263 NA
ATOM     48  C33 UNL     1      -5.074  -2.752   7.564  0.00  0.00    +0.111 A 
ATOM     49  C34 UNL     1      -4.595  -2.916   6.274  0.00  0.00    +0.025 A 
ENDBRANCH  43  44
ENDBRANCH  41  43
ENDBRANCH  38  39
BRANCH  38  50
ATOM     50  C35 UNL     1      -0.419   0.027   3.243  0.00  0.00    +0.012 C 
ATOM     51  C36 UNL     1      -0.953   0.426   4.620  0.00  0.00    +0.009 C 
ATOM     52  C37 UNL     1       0.794   0.907   2.903  0.00  0.00    +0.009 C 
ENDBRANCH  38  50
ENDBRANCH  36  38
ENDBRANCH  33  34
BRANCH  33  53
ATOM     53  C23 UNL     1       3.182  -4.193   0.496  0.00  0.00    +0.015 C 
BRANCH  53  54
ATOM     54  C24 UNL     1       4.600  -3.609   0.564  0.00  0.00    +0.034 C 
BRANCH  54  55
ATOM     55  C25 UNL     1       4.883  -2.768   1.797  0.00  0.00    +0.213 C 
ATOM     56  F2  UNL     1       4.216  -1.585   1.714  0.00  0.00    -0.249 F 
ENDBRANCH  54  55
ENDBRANCH  53  54
ENDBRANCH  33  53
ENDBRANCH  32  33
ENDBRANCH  29  32
ENDBRANCH   1  29
TORSDOF 25
