REMARK  Name = ligands/ligand_5.pdb
REMARK  32 active torsions:
REMARK  status: ('A' for Active; 'I' for Inactive)
REMARK    1  A    between atoms: C1_1  and  S1_2
REMARK    2  A    between atoms: S1_2  and  C2_3
REMARK    3  A    between atoms: C2_3  and  C3_4
REMARK    4  A    between atoms: C3_4  and  C4_5
REMARK    5  A    between atoms: C4_5  and  N1_6
REMARK    6  A    between atoms: C4_5  and  C15_21
REMARK    7  A    between atoms: C5_7  and  C6_9
REMARK    8  A    between atoms: C6_9  and  N2_10
REMARK    9  A    between atoms: C6_9  and  C12_18
REMARK   10  A    between atoms: C7_11  and  O3_13
REMARK   11  A    between atoms: O3_13  and  C8_14
REMARK   12  A    between atoms: C8_14  and  C9_15
REMARK   13  A    between atoms: C8_14  and  C10_16
REMARK   14  A    between atoms: C8_14  and  C11_17
REMARK   15  A    between atoms: C12_18  and  C13_19
REMARK   16  A    between atoms: C12_18  and  C14_20
REMARK   17  A    between atoms: N3_23  and  C16_24
REMARK   18  A    between atoms: C16_24  and  C17_25
REMARK   19  A    between atoms: C16_24  and  C24_32
REMARK   20  A    between atoms: C17_25  and  C18_26
REMARK   21  A    between atoms: C24_32  and  O5_33
REMARK   22  A    between atoms: C24_32  and  C25_34
REMARK   23  A    between atoms: C25_34  and  C26_35
REMARK   24  A    between atoms: C26_35  and  C27_36
REMARK   25  A    between atoms: C26_35  and  C28_37
REMARK   26  A    between atoms: N4_39  and  C29_40
REMARK   27  A    between atoms: C29_40  and  C30_41
REMARK   28  A    between atoms: C29_40  and  C38_51
REMARK   29  A    between atoms: N5_43  and  C31_44
REMARK   30  A    between atoms: C31_44  and  C32_45
REMARK   31  A    between atoms: C38_51  and  C39_52
REMARK   32  A    between atoms: C38_51  and  C40_53
REMARK                            x       y       z     vdW  Elec       q    Type
REMARK                         _______ _______ _______ _____ _____    ______ ____
ROOT
ATOM      1  C16 UNL     1       0.974  -2.410  -1.232  0.00  0.00    +0.106 C 
ENDROOT
BRANCH   1   4
ATOM      2  C15 UNL     1       0.589  -0.401   0.197  0.00  0.00    +0.234 C 
ATOM      3  O4  UNL     1      -0.616  -0.342  -0.052  0.00  0.00    -0.274 OA
ATOM      4  N3  UNL     1       1.397  -1.440  -0.210  0.00  0.00    -0.308 N 
ATOM      5  H28 UNL     1       2.404  -1.297  -0.191  0.00  0.00    +0.149 HD
BRANCH   2   6
ATOM      6  C4  UNL     1       1.329   0.685   1.010  0.00  0.00    +0.160 C 
BRANCH   6   7
ATOM      7  N1  UNL     1       0.774   1.973   0.593  0.00  0.00    -0.302 N 
ATOM      8  C5  UNL     1       1.149   2.506  -0.628  0.00  0.00    +0.234 C 
ATOM      9  O1  UNL     1       2.061   2.024  -1.300  0.00  0.00    -0.274 OA
ATOM     10  H9  UNL     1      -0.162   2.176   0.922  0.00  0.00    +0.150 HD
BRANCH   8  11
ATOM     11  C6  UNL     1       0.311   3.726  -1.093  0.00  0.00    +0.165 C 
BRANCH  11  12
ATOM     12  N2  UNL     1       0.983   4.327  -2.237  0.00  0.00    -0.270 N 
ATOM     13  C7  UNL     1       1.970   5.248  -2.050  0.00  0.00    +0.401 C 
ATOM     14  O2  UNL     1       2.167   5.865  -1.016  0.00  0.00    -0.226 OA
ATOM     15  H11 UNL     1       1.175   3.728  -3.031  0.00  0.00    +0.153 HD
BRANCH  13  16
ATOM     16  O3  UNL     1       2.693   5.336  -3.188  0.00  0.00    -0.445 OA
BRANCH  16  17
ATOM     17  C8  UNL     1       3.870   6.183  -3.253  0.00  0.00    +0.107 C 
ATOM     18  C9  UNL     1       4.396   6.004  -4.686  0.00  0.00    +0.055 C 
ATOM     19  C10 UNL     1       3.517   7.657  -3.034  0.00  0.00    +0.055 C 
ATOM     20  C11 UNL     1       4.949   5.706  -2.275  0.00  0.00    +0.055 C 
ENDBRANCH  16  17
ENDBRANCH  13  16
ENDBRANCH  11  12
BRANCH  11  21
ATOM     21  C12 UNL     1      -1.148   3.329  -1.414  0.00  0.00    +0.012 C 
ATOM     22  C13 UNL     1      -1.263   2.339  -2.578  0.00  0.00    +0.009 C 
ATOM     23  C14 UNL     1      -2.005   4.568  -1.695  0.00  0.00    +0.009 C 
ENDBRANCH  11  21
ENDBRANCH   8  11
ENDBRANCH   6   7
BRANCH   6  24
ATOM     24  C3  UNL     1       1.143   0.483   2.515  0.00  0.00    +0.042 C 
BRANCH  24  25
ATOM     25  C2  UNL     1       1.757  -0.822   3.014  0.00  0.00    +0.071 C 
BRANCH  25  27
ATOM     26  C1  UNL     1       1.955  -2.662   5.053  0.00  0.00    +0.084 C 
ATOM     27  S1  UNL     1       1.663  -0.893   4.832  0.00  0.00    -0.164 S 
ENDBRANCH  25  27
ENDBRANCH  24  25
ENDBRANCH   6  24
ENDBRANCH   2   6
ENDBRANCH   1   4
BRANCH   1  28
ATOM     28  C17 UNL     1       1.092  -1.749  -2.630  0.00  0.00    +0.060 C 
BRANCH  28  29
ATOM     29  C18 UNL     1       0.727  -2.640  -3.797  0.00  0.00    -0.046 A 
ATOM     30  C19 UNL     1      -0.507  -3.304  -3.848  0.00  0.00    +0.004 A 
ATOM     31  C20 UNL     1      -0.821  -4.127  -4.932  0.00  0.00    +0.000 A 
ATOM     32  C21 UNL     1       0.084  -4.280  -5.980  0.00  0.00    +0.000 A 
ATOM     33  C22 UNL     1       1.303  -3.610  -5.948  0.00  0.00    +0.000 A 
ATOM     34  C23 UNL     1       1.624  -2.793  -4.863  0.00  0.00    +0.004 A 
ENDBRANCH  28  29
ENDBRANCH   1  28
BRANCH   1  35
ATOM     35  C24 UNL     1       1.856  -3.684  -1.107  0.00  0.00    +0.136 C 
BRANCH  35  36
ATOM     36  O5  UNL     1       3.234  -3.259  -1.144  0.00  0.00    -0.390 OA
ATOM     37  H38 UNL     1       3.765  -4.045  -1.364  0.00  0.00    +0.210 HD
ENDBRANCH  35  36
BRANCH  35  38
ATOM     38  C25 UNL     1       1.660  -4.474   0.205  0.00  0.00    +0.045 C 
BRANCH  38  39
ATOM     39  C26 UNL     1       0.514  -5.500   0.166  0.00  0.00    +0.074 C 
ATOM     40  C27 UNL     1       0.535  -6.388   1.412  0.00  0.00    +0.017 C 
BRANCH  39  41
ATOM     41  C28 UNL     1      -0.853  -4.855   0.000  0.00  0.00    +0.217 C 
ATOM     42  O6  UNL     1      -1.511  -5.004  -1.027  0.00  0.00    -0.276 OA
ATOM     43  N4  UNL     1      -1.270  -4.070   1.039  0.00  0.00    -0.304 N 
ATOM     44  H45 UNL     1      -0.673  -3.897   1.842  0.00  0.00    +0.149 HD
BRANCH  43  45
ATOM     45  C29 UNL     1      -2.503  -3.280   0.989  0.00  0.00    +0.161 C 
BRANCH  45  46
ATOM     46  C30 UNL     1      -2.325  -2.121   1.995  0.00  0.00    +0.234 C 
ATOM     47  O7  UNL     1      -1.484  -2.173   2.896  0.00  0.00    -0.274 OA
ATOM     48  N5  UNL     1      -3.178  -1.060   1.818  0.00  0.00    -0.310 N 
ATOM     49  H47 UNL     1      -3.785  -1.043   1.008  0.00  0.00    +0.149 HD
BRANCH  48  50
ATOM     50  C31 UNL     1      -3.201   0.076   2.706  0.00  0.00    +0.139 C 
BRANCH  50  51
ATOM     51  C32 UNL     1      -4.274  -0.080   3.749  0.00  0.00    -0.030 A 
ATOM     52  C33 UNL     1      -5.582   0.358   3.505  0.00  0.00    +0.005 A 
ATOM     53  C34 UNL     1      -6.573   0.201   4.476  0.00  0.00    +0.000 A 
ATOM     54  C35 UNL     1      -6.268  -0.404   5.694  0.00  0.00    +0.000 A 
ATOM     55  C36 UNL     1      -4.974  -0.862   5.938  0.00  0.00    +0.000 A 
ATOM     56  C37 UNL     1      -3.981  -0.702   4.971  0.00  0.00    +0.005 A 
ENDBRANCH  50  51
ENDBRANCH  48  50
ENDBRANCH  45  46
BRANCH  45  57
ATOM     57  C38 UNL     1      -3.745  -4.164   1.256  0.00  0.00    +0.012 C 
ATOM     58  C39 UNL     1      -3.816  -4.677   2.697  0.00  0.00    +0.009 C 
ATOM     59  C40 UNL     1      -5.056  -3.472   0.879  0.00  0.00    +0.009 C 
ENDBRANCH  45  57
ENDBRANCH  43  45
ENDBRANCH  39  41
ENDBRANCH  38  39
ENDBRANCH  35  38
ENDBRANCH   1  35
TORSDOF 23
