REMARK  Name = ligands/ligand_1.pdb
REMARK  34 active torsions:
REMARK  status: ('A' for Active; 'I' for Inactive)
REMARK    1  A    between atoms: C1_1  and  S1_2
REMARK    2  A    between atoms: S1_2  and  C2_3
REMARK    3  A    between atoms: C2_3  and  C3_4
REMARK    4  A    between atoms: C3_4  and  C4_5
REMARK    5  A    between atoms: C4_5  and  N1_6
REMARK    6  A    between atoms: C4_5  and  C15_21
REMARK    7  A    between atoms: C5_7  and  C6_9
REMARK    8  A    between atoms: C6_9  and  N2_10
REMARK    9  A    between atoms: C6_9  and  C12_18
REMARK   10  A    between atoms: C7_11  and  O3_13
REMARK   11  A    between atoms: O3_13  and  C8_14
REMARK   12  A    between atoms: C8_14  and  C9_15
REMARK   13  A    between atoms: C8_14  and  C10_16
REMARK   14  A    between atoms: C8_14  and  C11_17
REMARK   15  A    between atoms: C12_18  and  C13_19
REMARK   16  A    between atoms: C12_18  and  C14_20
REMARK   17  A    between atoms: N3_23  and  C16_24
REMARK   18  A    between atoms: C16_24  and  C17_25
REMARK   19  A    between atoms: C16_24  and  C21_29
REMARK   20  A    between atoms: C17_25  and  C18_26
REMARK   21  A    between atoms: C18_26  and  C19_27
REMARK   22  A    between atoms: C18_26  and  C20_28
REMARK   23  A    between atoms: C21_29  and  O5_30
REMARK   24  A    between atoms: C21_29  and  C22_31
REMARK   25  A    between atoms: C22_31  and  C23_32
REMARK   26  A    between atoms: C23_32  and  C24_33
REMARK   27  A    between atoms: C23_32  and  C25_34
REMARK   28  A    between atoms: N4_36  and  C26_37
REMARK   29  A    between atoms: C26_37  and  C27_38
REMARK   30  A    between atoms: C26_37  and  C35_48
REMARK   31  A    between atoms: N5_40  and  C28_41
REMARK   32  A    between atoms: C28_41  and  C29_42
REMARK   33  A    between atoms: C35_48  and  C36_49
REMARK   34  A    between atoms: C35_48  and  C37_50
REMARK                            x       y       z     vdW  Elec       q    Type
REMARK                         _______ _______ _______ _____ _____    ______ ____
ROOT
ATOM      1  C16 UNL     1      -2.616  -3.682  -1.818  0.00  0.00    +0.102 C 
ENDROOT
BRANCH   1   4
ATOM      2  C15 UNL     1      -0.301  -2.869  -1.608  0.00  0.00    +0.234 C 
ATOM      3  O4  UNL     1      -0.156  -2.934  -2.831  0.00  0.00    -0.274 OA
ATOM      4  N3  UNL     1      -1.473  -3.275  -0.993  0.00  0.00    -0.308 N 
ATOM      5  H28 UNL     1      -1.709  -2.771  -0.153  0.00  0.00    +0.149 HD
BRANCH   2   6
ATOM      6  C4  UNL     1       0.801  -2.254  -0.708  0.00  0.00    +0.160 C 
BRANCH   6   7
ATOM      7  N1  UNL     1       1.018  -0.887  -1.187  0.00  0.00    -0.302 N 
ATOM      8  C5  UNL     1       2.248  -0.496  -1.667  0.00  0.00    +0.234 C 
ATOM      9  O1  UNL     1       3.245  -1.226  -1.620  0.00  0.00    -0.274 OA
ATOM     10  H9  UNL     1       0.189  -0.332  -1.381  0.00  0.00    +0.150 HD
BRANCH   8  11
ATOM     11  C6  UNL     1       2.318   0.924  -2.262  0.00  0.00    +0.165 C 
BRANCH  11  12
ATOM     12  N2  UNL     1       3.690   1.370  -2.060  0.00  0.00    -0.270 N 
ATOM     13  C7  UNL     1       4.063   2.663  -1.912  0.00  0.00    +0.401 C 
ATOM     14  O2  UNL     1       3.294   3.610  -1.865  0.00  0.00    -0.226 OA
ATOM     15  H11 UNL     1       4.428   0.668  -2.085  0.00  0.00    +0.153 HD
BRANCH  13  16
ATOM     16  O3  UNL     1       5.410   2.718  -1.833  0.00  0.00    -0.445 OA
BRANCH  16  17
ATOM     17  C8  UNL     1       6.103   3.984  -1.703  0.00  0.00    +0.107 C 
ATOM     18  C9  UNL     1       7.597   3.616  -1.681  0.00  0.00    +0.055 C 
ATOM     19  C10 UNL     1       5.749   4.680  -0.385  0.00  0.00    +0.055 C 
ATOM     20  C11 UNL     1       5.843   4.891  -2.909  0.00  0.00    +0.055 C 
ENDBRANCH  16  17
ENDBRANCH  13  16
ENDBRANCH  11  12
BRANCH  11  21
ATOM     21  C12 UNL     1       1.926   1.004  -3.755  0.00  0.00    +0.012 C 
ATOM     22  C13 UNL     1       2.713   0.033  -4.646  0.00  0.00    +0.009 C 
ATOM     23  C14 UNL     1       0.424   0.818  -3.979  0.00  0.00    +0.009 C 
ENDBRANCH  11  21
ENDBRANCH   8  11
ENDBRANCH   6   7
BRANCH   6  24
ATOM     24  C3  UNL     1       0.594  -2.241   0.811  0.00  0.00    +0.042 C 
BRANCH  24  25
ATOM     25  C2  UNL     1       0.835  -3.625   1.414  0.00  0.00    +0.071 C 
BRANCH  25  27
ATOM     26  C1  UNL     1      -1.211  -3.619   3.287  0.00  0.00    +0.084 C 
ATOM     27  S1  UNL     1       0.594  -3.621   3.220  0.00  0.00    -0.164 S 
ENDBRANCH  25  27
ENDBRANCH  24  25
ENDBRANCH   6  24
ENDBRANCH   2   6
ENDBRANCH   1   4
BRANCH   1  28
ATOM     28  C17 UNL     1      -3.525  -4.697  -1.094  0.00  0.00    +0.028 C 
BRANCH  28  29
ATOM     29  C18 UNL     1      -3.068  -6.175  -1.125  0.00  0.00    -0.015 C 
ATOM     30  C19 UNL     1      -3.118  -6.776  -2.530  0.00  0.00    +0.007 C 
ATOM     31  C20 UNL     1      -1.694  -6.400  -0.504  0.00  0.00    +0.007 C 
ENDBRANCH  28  29
ENDBRANCH   1  28
BRANCH   1  32
ATOM     32  C21 UNL     1      -3.377  -2.451  -2.398  0.00  0.00    +0.135 C 
BRANCH  32  33
ATOM     33  O5  UNL     1      -4.004  -2.894  -3.621  0.00  0.00    -0.390 OA
ATOM     34  H40 UNL     1      -3.778  -2.237  -4.305  0.00  0.00    +0.210 HD
ENDBRANCH  32  33
BRANCH  32  35
ATOM     35  C22 UNL     1      -4.510  -1.789  -1.593  0.00  0.00    +0.045 C 
BRANCH  35  36
ATOM     36  C23 UNL     1      -4.292  -1.075  -0.250  0.00  0.00    +0.074 C 
ATOM     37  C24 UNL     1      -4.329  -1.995   0.966  0.00  0.00    +0.017 C 
BRANCH  36  38
ATOM     38  C25 UNL     1      -3.064  -0.178  -0.159  0.00  0.00    +0.217 C 
ATOM     39  O6  UNL     1      -1.995  -0.416  -0.712  0.00  0.00    -0.276 OA
ATOM     40  N4  UNL     1      -3.234   0.887   0.689  0.00  0.00    -0.304 N 
ATOM     41  H47 UNL     1      -4.108   1.007   1.197  0.00  0.00    +0.149 HD
BRANCH  40  42
ATOM     42  C26 UNL     1      -2.141   1.768   1.100  0.00  0.00    +0.161 C 
BRANCH  42  43
ATOM     43  C27 UNL     1      -2.343   1.943   2.618  0.00  0.00    +0.234 C 
ATOM     44  O7  UNL     1      -3.467   2.022   3.117  0.00  0.00    -0.274 OA
ATOM     45  N5  UNL     1      -1.180   2.023   3.348  0.00  0.00    -0.310 N 
ATOM     46  H49 UNL     1      -0.302   1.771   2.917  0.00  0.00    +0.149 HD
BRANCH  45  47
ATOM     47  C28 UNL     1      -1.202   2.108   4.791  0.00  0.00    +0.139 C 
BRANCH  47  48
ATOM     48  C29 UNL     1      -1.166   0.743   5.431  0.00  0.00    -0.030 A 
ATOM     49  C30 UNL     1      -2.351   0.122   5.848  0.00  0.00    +0.005 A 
ATOM     50  C31 UNL     1      -2.322  -1.133   6.462  0.00  0.00    +0.000 A 
ATOM     51  C32 UNL     1      -1.106  -1.780   6.653  0.00  0.00    +0.000 A 
ATOM     52  C33 UNL     1       0.079  -1.186   6.219  0.00  0.00    +0.000 A 
ATOM     53  C34 UNL     1       0.050   0.069   5.608  0.00  0.00    +0.005 A 
ENDBRANCH  47  48
ENDBRANCH  45  47
ENDBRANCH  42  43
BRANCH  42  54
ATOM     54  C35 UNL     1      -2.189   3.127   0.366  0.00  0.00    +0.012 C 
ATOM     55  C36 UNL     1      -1.044   4.056   0.791  0.00  0.00    +0.009 C 
ATOM     56  C37 UNL     1      -2.126   2.941  -1.154  0.00  0.00    +0.009 C 
ENDBRANCH  42  54
ENDBRANCH  40  42
ENDBRANCH  36  38
ENDBRANCH  35  36
ENDBRANCH  32  35
ENDBRANCH   1  32
TORSDOF 23
