AutoDock-GPU version: v1.6

**********************************************************
**    AutoDock-GPU AUTODOCKTOOLS-COMPATIBLE DLG FILE    **
**********************************************************


    DOCKING PARAMETERS
    ________________________


Ligand file:                               ligands/ligand_47.pdbqt
Grid fld file:                             protein.maps.fld

Random seed:                               1770973621, 32382
Number of runs:                            20
Number of energy evaluations:              10161399
Number of generations:                     42000
Size of population:                        150
Rate of crossover:                         80.000000%
Tournament selection probability limit:    60.000000%
Rate of mutation:                          2.000000%
Maximal allowed delta movement:            +/- 6.000000A
Maximal allowed delta angle:               +/- 90.000000

Rate of local search:                      100.000000%
Maximal number of local search iterations: 300
Rho lower bound:                           0.010000
Spread of local search delta movement:     2.000000A
Spread of local search delta angle:        74.999999
Limit of consecutive successes/failures:   4

Handle symmetry during clustering:         YES
RMSD tolerance:                            2.000000A

Program call in command line was:          ./autodock-gpu --ffile protein.maps.fld --lfile ligands/ligand_47.pdbqt --nrun 20 


    GRID PARAMETERS
    ________________________


Receptor name:                             #MACROMOLECULE
Number of grid points (x, y, z):           61, 61, 61
Grid center (x, y, z):                     10.261000, -3.492000, -0.127000A
Grid size (x, y, z):                       22.500000, 22.500000, 22.500000A
Grid spacing:                              0.375000A


    LIGAND PARAMETERS
    ________________________


Ligand name:                               ligands/ligand_47
Number of atoms:                           54
Number of rotatable bonds:                 22
Number of atom types:                      6


    DUMMY DATA (only for ADT-compatibility)
    ________________________


DPF> outlev 1
DPF> ga_run 20
DPF> fld protein.maps.fld
DPF> move ligands/ligand_47.pdbqt


    COUNTER STATES
    ________________________


Number of energy evaluations performed:    6267321
Number of generations used:                240


    INPUT LIGAND PDBQT FILE:
    ________________________


INPUT-LIGAND-PDBQT: REMARK  Name = ligands/ligand_47.pdb
INPUT-LIGAND-PDBQT: REMARK  32 active torsions:
INPUT-LIGAND-PDBQT: REMARK  status: ('A' for Active; 'I' for Inactive)
INPUT-LIGAND-PDBQT: REMARK    1  A    between atoms: C1_1  and  S1_2
INPUT-LIGAND-PDBQT: REMARK    2  A    between atoms: S1_2  and  C2_3
INPUT-LIGAND-PDBQT: REMARK    3  A    between atoms: C2_3  and  C3_4
INPUT-LIGAND-PDBQT: REMARK    4  A    between atoms: C3_4  and  C4_5
INPUT-LIGAND-PDBQT: REMARK    5  A    between atoms: C4_5  and  N1_6
INPUT-LIGAND-PDBQT: REMARK    6  A    between atoms: C4_5  and  C15_21
INPUT-LIGAND-PDBQT: REMARK    7  A    between atoms: C5_7  and  C6_9
INPUT-LIGAND-PDBQT: REMARK    8  A    between atoms: C6_9  and  N2_10
INPUT-LIGAND-PDBQT: REMARK    9  A    between atoms: C6_9  and  C12_18
INPUT-LIGAND-PDBQT: REMARK   10  A    between atoms: C7_11  and  O3_13
INPUT-LIGAND-PDBQT: REMARK   11  A    between atoms: O3_13  and  C8_14
INPUT-LIGAND-PDBQT: REMARK   12  A    between atoms: C8_14  and  C9_15
INPUT-LIGAND-PDBQT: REMARK   13  A    between atoms: C8_14  and  C10_16
INPUT-LIGAND-PDBQT: REMARK   14  A    between atoms: C8_14  and  C11_17
INPUT-LIGAND-PDBQT: REMARK   15  A    between atoms: C12_18  and  C13_19
INPUT-LIGAND-PDBQT: REMARK   16  A    between atoms: C12_18  and  C14_20
INPUT-LIGAND-PDBQT: REMARK   17  A    between atoms: N3_23  and  C16_24
INPUT-LIGAND-PDBQT: REMARK   18  A    between atoms: C16_24  and  C17_25
INPUT-LIGAND-PDBQT: REMARK   19  A    between atoms: C16_24  and  C21_29
INPUT-LIGAND-PDBQT: REMARK   20  A    between atoms: C17_25  and  C18_26
INPUT-LIGAND-PDBQT: REMARK   21  A    between atoms: C18_26  and  C19_27
INPUT-LIGAND-PDBQT: REMARK   22  A    between atoms: C18_26  and  C20_28
INPUT-LIGAND-PDBQT: REMARK   23  A    between atoms: C21_29  and  O5_30
INPUT-LIGAND-PDBQT: REMARK   24  A    between atoms: C21_29  and  C22_31
INPUT-LIGAND-PDBQT: REMARK   25  A    between atoms: C22_31  and  C23_32
INPUT-LIGAND-PDBQT: REMARK   26  A    between atoms: N4_34  and  C24_35
INPUT-LIGAND-PDBQT: REMARK   27  A    between atoms: C24_35  and  C25_36
INPUT-LIGAND-PDBQT: REMARK   28  A    between atoms: C24_35  and  C33_46
INPUT-LIGAND-PDBQT: REMARK   29  A    between atoms: N5_38  and  C26_39
INPUT-LIGAND-PDBQT: REMARK   30  A    between atoms: C26_39  and  C27_40
INPUT-LIGAND-PDBQT: REMARK   31  A    between atoms: C33_46  and  C34_47
INPUT-LIGAND-PDBQT: REMARK   32  A    between atoms: C33_46  and  C35_48
INPUT-LIGAND-PDBQT: REMARK                            x       y       z     vdW  Elec       q    Type
INPUT-LIGAND-PDBQT: REMARK                         _______ _______ _______ _____ _____    ______ ____
INPUT-LIGAND-PDBQT: ROOT
INPUT-LIGAND-PDBQT: ATOM      1  C16 UNL     1      -1.641  -1.765  -1.462  0.00  0.00    +0.102 C 
INPUT-LIGAND-PDBQT: ENDROOT
INPUT-LIGAND-PDBQT: BRANCH   1   4
INPUT-LIGAND-PDBQT: ATOM      2  C15 UNL     1       0.550  -2.033  -2.605  0.00  0.00    +0.234 C 
INPUT-LIGAND-PDBQT: ATOM      3  O4  UNL     1       0.576  -0.834  -2.907  0.00  0.00    -0.274 OA
INPUT-LIGAND-PDBQT: ATOM      4  N3  UNL     1      -0.490  -2.575  -1.890  0.00  0.00    -0.308 N 
INPUT-LIGAND-PDBQT: ATOM      5  H28 UNL     1      -0.650  -3.574  -1.908  0.00  0.00    +0.149 HD
INPUT-LIGAND-PDBQT: BRANCH   2   6
INPUT-LIGAND-PDBQT: ATOM      6  C4  UNL     1       1.651  -3.005  -3.109  0.00  0.00    +0.160 C 
INPUT-LIGAND-PDBQT: BRANCH   6   7
INPUT-LIGAND-PDBQT: ATOM      7  N1  UNL     1       2.873  -2.213  -3.309  0.00  0.00    -0.302 N 
INPUT-LIGAND-PDBQT: ATOM      8  C5  UNL     1       3.641  -1.791  -2.237  0.00  0.00    +0.234 C 
INPUT-LIGAND-PDBQT: ATOM      9  O1  UNL     1       3.466  -2.179  -1.082  0.00  0.00    -0.274 OA
INPUT-LIGAND-PDBQT: ATOM     10  H9  UNL     1       2.808  -1.543  -4.068  0.00  0.00    +0.150 HD
INPUT-LIGAND-PDBQT: BRANCH   8  11
INPUT-LIGAND-PDBQT: ATOM     11  C6  UNL     1       4.798  -0.841  -2.620  0.00  0.00    +0.165 C 
INPUT-LIGAND-PDBQT: BRANCH  11  12
INPUT-LIGAND-PDBQT: ATOM     12  N2  UNL     1       5.132  -0.075  -1.426  0.00  0.00    -0.270 N 
INPUT-LIGAND-PDBQT: ATOM     13  C7  UNL     1       5.044   1.280  -1.381  0.00  0.00    +0.401 C 
INPUT-LIGAND-PDBQT: ATOM     14  O2  UNL     1       4.897   2.002  -2.354  0.00  0.00    -0.226 OA
INPUT-LIGAND-PDBQT: ATOM     15  H11 UNL     1       5.039  -0.542  -0.531  0.00  0.00    +0.153 HD
INPUT-LIGAND-PDBQT: BRANCH  13  16
INPUT-LIGAND-PDBQT: ATOM     16  O3  UNL     1       5.133   1.679  -0.093  0.00  0.00    -0.445 OA
INPUT-LIGAND-PDBQT: BRANCH  16  17
INPUT-LIGAND-PDBQT: ATOM     17  C8  UNL     1       5.021   3.084   0.253  0.00  0.00    +0.107 C 
INPUT-LIGAND-PDBQT: ATOM     18  C9  UNL     1       5.181   3.119   1.781  0.00  0.00    +0.055 C 
INPUT-LIGAND-PDBQT: ATOM     19  C10 UNL     1       6.143   3.914  -0.384  0.00  0.00    +0.055 C 
INPUT-LIGAND-PDBQT: ATOM     20  C11 UNL     1       3.633   3.637  -0.099  0.00  0.00    +0.055 C 
INPUT-LIGAND-PDBQT: ENDBRANCH  16  17
INPUT-LIGAND-PDBQT: ENDBRANCH  13  16
INPUT-LIGAND-PDBQT: ENDBRANCH  11  12
INPUT-LIGAND-PDBQT: BRANCH  11  21
INPUT-LIGAND-PDBQT: ATOM     21  C12 UNL     1       6.047  -1.570  -3.166  0.00  0.00    +0.012 C 
INPUT-LIGAND-PDBQT: ATOM     22  C13 UNL     1       5.839  -2.108  -4.584  0.00  0.00    +0.009 C 
INPUT-LIGAND-PDBQT: ATOM     23  C14 UNL     1       6.530  -2.698  -2.247  0.00  0.00    +0.009 C 
INPUT-LIGAND-PDBQT: ENDBRANCH  11  21
INPUT-LIGAND-PDBQT: ENDBRANCH   8  11
INPUT-LIGAND-PDBQT: ENDBRANCH   6   7
INPUT-LIGAND-PDBQT: BRANCH   6  24
INPUT-LIGAND-PDBQT: ATOM     24  C3  UNL     1       1.898  -4.268  -2.272  0.00  0.00    +0.042 C 
INPUT-LIGAND-PDBQT: BRANCH  24  25
INPUT-LIGAND-PDBQT: ATOM     25  C2  UNL     1       1.134  -5.464  -2.836  0.00  0.00    +0.071 C 
INPUT-LIGAND-PDBQT: BRANCH  25  27
INPUT-LIGAND-PDBQT: ATOM     26  C1  UNL     1       2.965  -7.230  -1.695  0.00  0.00    +0.084 C 
INPUT-LIGAND-PDBQT: ATOM     27  S1  UNL     1       1.180  -6.910  -1.725  0.00  0.00    -0.164 S 
INPUT-LIGAND-PDBQT: ENDBRANCH  25  27
INPUT-LIGAND-PDBQT: ENDBRANCH  24  25
INPUT-LIGAND-PDBQT: ENDBRANCH   6  24
INPUT-LIGAND-PDBQT: ENDBRANCH   2   6
INPUT-LIGAND-PDBQT: ENDBRANCH   1   4
INPUT-LIGAND-PDBQT: BRANCH   1  28
INPUT-LIGAND-PDBQT: ATOM     28  C21 UNL     1      -2.667  -1.692  -2.638  0.00  0.00    +0.143 C 
INPUT-LIGAND-PDBQT: BRANCH  28  29
INPUT-LIGAND-PDBQT: ATOM     29  O5  UNL     1      -3.334  -2.944  -2.827  0.00  0.00    -0.389 OA
INPUT-LIGAND-PDBQT: ATOM     30  H40 UNL     1      -4.105  -2.967  -2.217  0.00  0.00    +0.210 HD
INPUT-LIGAND-PDBQT: ENDBRANCH  28  29
INPUT-LIGAND-PDBQT: BRANCH  28  31
INPUT-LIGAND-PDBQT: ATOM     31  C22 UNL     1      -3.642  -0.516  -2.572  0.00  0.00    +0.129 C 
INPUT-LIGAND-PDBQT: BRANCH  31  32
INPUT-LIGAND-PDBQT: ATOM     32  C23 UNL     1      -4.652  -0.619  -1.454  0.00  0.00    +0.216 C 
INPUT-LIGAND-PDBQT: ATOM     33  O6  UNL     1      -5.144  -1.701  -1.121  0.00  0.00    -0.276 OA
INPUT-LIGAND-PDBQT: ATOM     34  N4  UNL     1      -4.990   0.591  -0.889  0.00  0.00    -0.304 N 
INPUT-LIGAND-PDBQT: ATOM     35  H43 UNL     1      -4.323   1.348  -1.022  0.00  0.00    +0.149 HD
INPUT-LIGAND-PDBQT: BRANCH  34  36
INPUT-LIGAND-PDBQT: ATOM     36  C24 UNL     1      -5.690   0.644   0.404  0.00  0.00    +0.161 C 
INPUT-LIGAND-PDBQT: BRANCH  36  37
INPUT-LIGAND-PDBQT: ATOM     37  C25 UNL     1      -4.583   0.784   1.475  0.00  0.00    +0.234 C 
INPUT-LIGAND-PDBQT: ATOM     38  O7  UNL     1      -3.481   1.260   1.201  0.00  0.00    -0.274 OA
INPUT-LIGAND-PDBQT: ATOM     39  N5  UNL     1      -4.930   0.378   2.744  0.00  0.00    -0.310 N 
INPUT-LIGAND-PDBQT: ATOM     40  H45 UNL     1      -5.847   0.002   2.924  0.00  0.00    +0.149 HD
INPUT-LIGAND-PDBQT: BRANCH  39  41
INPUT-LIGAND-PDBQT: ATOM     41  C26 UNL     1      -4.011   0.461   3.857  0.00  0.00    +0.139 C 
INPUT-LIGAND-PDBQT: BRANCH  41  42
INPUT-LIGAND-PDBQT: ATOM     42  C27 UNL     1      -4.277   1.679   4.705  0.00  0.00    -0.030 A 
INPUT-LIGAND-PDBQT: ATOM     43  C28 UNL     1      -4.833   1.560   5.988  0.00  0.00    +0.005 A 
INPUT-LIGAND-PDBQT: ATOM     44  C29 UNL     1      -5.028   2.696   6.783  0.00  0.00    +0.000 A 
INPUT-LIGAND-PDBQT: ATOM     45  C30 UNL     1      -4.684   3.955   6.300  0.00  0.00    +0.000 A 
INPUT-LIGAND-PDBQT: ATOM     46  C31 UNL     1      -4.145   4.082   5.021  0.00  0.00    +0.000 A 
INPUT-LIGAND-PDBQT: ATOM     47  C32 UNL     1      -3.947   2.952   4.227  0.00  0.00    +0.005 A 
INPUT-LIGAND-PDBQT: ENDBRANCH  41  42
INPUT-LIGAND-PDBQT: ENDBRANCH  39  41
INPUT-LIGAND-PDBQT: ENDBRANCH  36  37
INPUT-LIGAND-PDBQT: BRANCH  36  48
INPUT-LIGAND-PDBQT: ATOM     48  C33 UNL     1      -6.724   1.793   0.416  0.00  0.00    +0.012 C 
INPUT-LIGAND-PDBQT: ATOM     49  C34 UNL     1      -6.088   3.188   0.427  0.00  0.00    +0.009 C 
INPUT-LIGAND-PDBQT: ATOM     50  C35 UNL     1      -7.726   1.669   1.564  0.00  0.00    +0.009 C 
INPUT-LIGAND-PDBQT: ENDBRANCH  36  48
INPUT-LIGAND-PDBQT: ENDBRANCH  34  36
INPUT-LIGAND-PDBQT: ENDBRANCH  31  32
INPUT-LIGAND-PDBQT: ENDBRANCH  28  31
INPUT-LIGAND-PDBQT: ENDBRANCH   1  28
INPUT-LIGAND-PDBQT: BRANCH   1  51
INPUT-LIGAND-PDBQT: ATOM     51  C17 UNL     1      -2.200  -2.354  -0.150  0.00  0.00    +0.028 C 
INPUT-LIGAND-PDBQT: BRANCH  51  52
INPUT-LIGAND-PDBQT: ATOM     52  C18 UNL     1      -1.170  -2.506   0.990  0.00  0.00    -0.015 C 
INPUT-LIGAND-PDBQT: ATOM     53  C19 UNL     1      -0.546  -1.171   1.401  0.00  0.00    +0.007 C 
INPUT-LIGAND-PDBQT: ATOM     54  C20 UNL     1      -1.834  -3.157   2.207  0.00  0.00    +0.007 C 
INPUT-LIGAND-PDBQT: ENDBRANCH  51  52
INPUT-LIGAND-PDBQT: ENDBRANCH   1  51
INPUT-LIGAND-PDBQT: TORSDOF 22


    FINAL DOCKED STATE:
    ________________________


Run:   1 / 20
Time taken for this run:   1.691s

DOCKED: MODEL        1
DOCKED: USER    Run = 1
DOCKED: USER
DOCKED: USER    Estimated Free Energy of Binding    =  +6.56 kcal/mol  [=(1)+(2)+(3)-(4)]
DOCKED: USER
DOCKED: USER    (1) Final Intermolecular Energy     =  +0.00 kcal/mol
DOCKED: USER        vdW + Hbond + desolv Energy     =  +0.00 kcal/mol
DOCKED: USER        Electrostatic Energy            =  +0.00 kcal/mol
DOCKED: USER        Moving Ligand-Fixed Receptor    =  +0.00 kcal/mol
DOCKED: USER        Moving Ligand-Moving Receptor   =  +0.00 kcal/mol
DOCKED: USER    (2) Final Total Internal Energy     = -14.34 kcal/mol
DOCKED: USER    (3) Torsional Free Energy           =  +6.56 kcal/mol
DOCKED: USER    (4) Unbound System's Energy         = -14.34 kcal/mol
DOCKED: USER
DOCKED: USER
DOCKED: REMARK  Name = ligands/ligand_47.pdb
DOCKED: REMARK  32 active torsions:
DOCKED: REMARK  status: ('A' for Active; 'I' for Inactive)
DOCKED: REMARK    1  A    between atoms: C1_1  and  S1_2
DOCKED: REMARK    2  A    between atoms: S1_2  and  C2_3
DOCKED: REMARK    3  A    between atoms: C2_3  and  C3_4
DOCKED: REMARK    4  A    between atoms: C3_4  and  C4_5
DOCKED: REMARK    5  A    between atoms: C4_5  and  N1_6
DOCKED: REMARK    6  A    between atoms: C4_5  and  C15_21
DOCKED: REMARK    7  A    between atoms: C5_7  and  C6_9
DOCKED: REMARK    8  A    between atoms: C6_9  and  N2_10
DOCKED: REMARK    9  A    between atoms: C6_9  and  C12_18
DOCKED: REMARK   10  A    between atoms: C7_11  and  O3_13
DOCKED: REMARK   11  A    between atoms: O3_13  and  C8_14
DOCKED: REMARK   12  A    between atoms: C8_14  and  C9_15
DOCKED: REMARK   13  A    between atoms: C8_14  and  C10_16
DOCKED: REMARK   14  A    between atoms: C8_14  and  C11_17
DOCKED: REMARK   15  A    between atoms: C12_18  and  C13_19
DOCKED: REMARK   16  A    between atoms: C12_18  and  C14_20
DOCKED: REMARK   17  A    between atoms: N3_23  and  C16_24
DOCKED: REMARK   18  A    between atoms: C16_24  and  C17_25
DOCKED: REMARK   19  A    between atoms: C16_24  and  C21_29
DOCKED: REMARK   20  A    between atoms: C17_25  and  C18_26
DOCKED: REMARK   21  A    between atoms: C18_26  and  C19_27
DOCKED: REMARK   22  A    between atoms: C18_26  and  C20_28
DOCKED: REMARK   23  A    between atoms: C21_29  and  O5_30
DOCKED: REMARK   24  A    between atoms: C21_29  and  C22_31
DOCKED: REMARK   25  A    between atoms: C22_31  and  C23_32
DOCKED: REMARK   26  A    between atoms: N4_34  and  C24_35
DOCKED: REMARK   27  A    between atoms: C24_35  and  C25_36
DOCKED: REMARK   28  A    between atoms: C24_35  and  C33_46
DOCKED: REMARK   29  A    between atoms: N5_38  and  C26_39
DOCKED: REMARK   30  A    between atoms: C26_39  and  C27_40
DOCKED: REMARK   31  A    between atoms: C33_46  and  C34_47
DOCKED: REMARK   32  A    between atoms: C33_46  and  C35_48
DOCKED: REMARK                            x       y       z     vdW  Elec       q    Type
DOCKED: REMARK                         _______ _______ _______ _____ _____    ______ ____
DOCKED: USER                              x       y       z     vdW  Elec       q    Type
DOCKED: USER                           _______ _______ _______ _____ _____    ______ ____
DOCKED: ROOT
DOCKED: ATOM      1  C16 UNL     1       7.685  -3.681   3.504 +0.00 +0.00    +0.102 C  
DOCKED: ENDROOT
DOCKED: BRANCH   1   4
DOCKED: ATOM      2  C15 UNL     1       5.735  -2.284   2.853 +0.00 +0.00    +0.234 C  
DOCKED: ATOM      3  O4  UNL     1       5.540  -2.969   1.843 +0.00 -0.00    -0.274 OA 
DOCKED: ATOM      4  N3  UNL     1       6.755  -2.563   3.729 +0.00 -0.00    -0.308 N  
DOCKED: ATOM      5  H28 UNL     1       7.087  -1.849   4.364 +0.00 +0.00    +0.149 HD 
DOCKED: BRANCH   2   6
DOCKED: ATOM      6  C4  UNL     1       4.892  -1.009   3.125 +0.00 +0.00    +0.160 C  
DOCKED: BRANCH   6   7
DOCKED: ATOM      7  N1  UNL     1       5.775  -0.033   3.779 +0.00 -0.00    -0.302 N  
DOCKED: ATOM      8  C5  UNL     1       7.025   0.265   3.264 +0.00 +0.00    +0.234 C  
DOCKED: ATOM      9  O1  UNL     1       7.413  -0.117   2.160 +0.00 -0.00    -0.274 OA 
DOCKED: ATOM     10  H9  UNL     1       5.735  -0.057   4.793 +0.00 +0.00    +0.150 HD 
DOCKED: BRANCH   8  11
DOCKED: ATOM     11  C6  UNL     1       7.878   1.190   4.161 +0.00 +0.00    +0.165 C  
DOCKED: BRANCH  11  12
DOCKED: ATOM     12  N2  UNL     1       8.620   0.331   5.075 +0.00 -0.00    -0.270 N  
DOCKED: ATOM     13  C7  UNL     1       8.006  -0.554   5.904 +0.00 +0.00    +0.401 C  
DOCKED: ATOM     14  O2  UNL     1       6.807  -0.577   6.134 +0.00 -0.00    -0.226 OA 
DOCKED: ATOM     15  H11 UNL     1       9.572   0.093   4.822 +0.00 +0.00    +0.153 HD 
DOCKED: BRANCH  13  16
DOCKED: ATOM     16  O3  UNL     1       8.936  -1.395   6.408 +0.00 -0.00    -0.445 OA 
DOCKED: BRANCH  16  17
DOCKED: ATOM     17  C8  UNL     1       9.097  -1.541   7.843 +0.00 +0.00    +0.107 C  
DOCKED: ATOM     18  C9  UNL     1       9.699  -0.203   8.301 +0.00 +0.00    +0.055 C  
DOCKED: ATOM     19  C10 UNL     1       7.749  -1.747   8.545 +0.00 +0.00    +0.055 C  
DOCKED: ATOM     20  C11 UNL     1      10.092  -2.659   8.182 +0.00 +0.00    +0.055 C  
DOCKED: ENDBRANCH  16  17
DOCKED: ENDBRANCH  13  16
DOCKED: ENDBRANCH  11  12
DOCKED: BRANCH  11  21
DOCKED: ATOM     21  C12 UNL     1       8.842   2.106   3.373 +0.00 +0.00    +0.012 C  
DOCKED: ATOM     22  C13 UNL     1       9.571   3.105   4.275 +0.00 +0.00    +0.009 C  
DOCKED: ATOM     23  C14 UNL     1       8.153   2.850   2.223 +0.00 +0.00    +0.009 C  
DOCKED: ENDBRANCH  11  21
DOCKED: ENDBRANCH   8  11
DOCKED: ENDBRANCH   6   7
DOCKED: BRANCH   6  24
DOCKED: ATOM     24  C3  UNL     1       4.134  -0.410   1.932 +0.00 +0.00    +0.042 C  
DOCKED: BRANCH  24  25
DOCKED: ATOM     25  C2  UNL     1       4.177   1.116   1.959 +0.00 +0.00    +0.071 C  
DOCKED: BRANCH  25  27
DOCKED: ATOM     26  C1  UNL     1       5.497   0.311  -0.361 +0.00 +0.00    +0.084 C  
DOCKED: ATOM     27  S1  UNL     1       5.192   1.811   0.612 +0.00 -0.00    -0.164 S  
DOCKED: ENDBRANCH  25  27
DOCKED: ENDBRANCH  24  25
DOCKED: ENDBRANCH   6  24
DOCKED: ENDBRANCH   2   6
DOCKED: ENDBRANCH   1   4
DOCKED: BRANCH   1  28
DOCKED: ATOM     28  C21 UNL     1       9.115  -3.101   3.257 +0.00 +0.00    +0.143 C  
DOCKED: BRANCH  28  29
DOCKED: ATOM     29  O5  UNL     1       9.191  -1.722   3.635 +0.00 -0.00    -0.389 OA 
DOCKED: ATOM     30  H40 UNL     1       8.880  -1.186   2.872 +0.00 +0.00    +0.210 HD 
DOCKED: ENDBRANCH  28  29
DOCKED: BRANCH  28  31
DOCKED: ATOM     31  C22 UNL     1      10.258  -3.930   3.842 +0.00 +0.00    +0.129 C  
DOCKED: BRANCH  31  32
DOCKED: ATOM     32  C23 UNL     1      11.525  -3.143   4.084 +0.00 +0.00    +0.216 C  
DOCKED: ATOM     33  O6  UNL     1      12.546  -3.335   3.418 +0.00 -0.00    -0.276 OA 
DOCKED: ATOM     34  N4  UNL     1      11.438  -2.245   5.125 +0.00 -0.00    -0.304 N  
DOCKED: ATOM     35  H43 UNL     1      10.498  -1.958   5.391 +0.00 +0.00    +0.149 HD 
DOCKED: BRANCH  34  36
DOCKED: ATOM     36  C24 UNL     1      12.443  -1.182   5.283 +0.00 +0.00    +0.161 C  
DOCKED: BRANCH  36  37
DOCKED: ATOM     37  C25 UNL     1      12.081  -0.103   4.236 +0.00 +0.00    +0.234 C  
DOCKED: ATOM     38  O7  UNL     1      11.549   0.957   4.565 +0.00 -0.00    -0.274 OA 
DOCKED: ATOM     39  N5  UNL     1      12.428  -0.397   2.936 +0.00 -0.00    -0.310 N  
DOCKED: ATOM     40  H45 UNL     1      12.870  -1.274   2.714 +0.00 +0.00    +0.149 HD 
DOCKED: BRANCH  39  41
DOCKED: ATOM     41  C26 UNL     1      12.171   0.517   1.846 +0.00 +0.00    +0.139 C  
DOCKED: BRANCH  41  42
DOCKED: ATOM     42  C27 UNL     1      10.987   0.078   1.022 +0.00 -0.00    -0.030 A  
DOCKED: ATOM     43  C28 UNL     1      10.611  -1.273   0.958 +0.00 +0.00    +0.005 A  
DOCKED: ATOM     44  C29 UNL     1       9.480  -1.659   0.229 +0.00 +0.00    +0.000 A  
DOCKED: ATOM     45  C30 UNL     1       8.726  -0.706  -0.449 +0.00 +0.00    +0.000 A  
DOCKED: ATOM     46  C31 UNL     1       9.102   0.635  -0.402 +0.00 +0.00    +0.000 A  
DOCKED: ATOM     47  C32 UNL     1      10.227   1.024   0.325 +0.00 +0.00    +0.005 A  
DOCKED: ENDBRANCH  41  42
DOCKED: ENDBRANCH  39  41
DOCKED: ENDBRANCH  36  37
DOCKED: BRANCH  36  48
DOCKED: ATOM     48  C33 UNL     1      12.462  -0.663   6.739 +0.00 +0.00    +0.012 C  
DOCKED: ATOM     49  C34 UNL     1      13.115   0.716   6.888 +0.00 +0.00    +0.009 C  
DOCKED: ATOM     50  C35 UNL     1      13.111  -1.653   7.706 +0.00 +0.00    +0.009 C  
DOCKED: ENDBRANCH  36  48
DOCKED: ENDBRANCH  34  36
DOCKED: ENDBRANCH  31  32
DOCKED: ENDBRANCH  28  31
DOCKED: ENDBRANCH   1  28
DOCKED: BRANCH   1  51
DOCKED: ATOM     51  C17 UNL     1       7.580  -4.659   4.693 +0.00 +0.00    +0.028 C  
DOCKED: BRANCH  51  52
DOCKED: ATOM     52  C18 UNL     1       7.225  -4.008   6.047 +0.00 -0.00    -0.015 C  
DOCKED: ATOM     53  C19 UNL     1       5.719  -3.819   6.232 +0.00 +0.00    +0.007 C  
DOCKED: ATOM     54  C20 UNL     1       7.779  -4.859   7.193 +0.00 +0.00    +0.007 C  
DOCKED: ENDBRANCH  51  52
DOCKED: ENDBRANCH   1  51
DOCKED: TORSDOF 22
DOCKED: TER
DOCKED: ENDMDL
________________________________________________________________________________


    FINAL DOCKED STATE:
    ________________________


Run:   2 / 20
Time taken for this run:   1.691s

DOCKED: MODEL        2
DOCKED: USER    Run = 2
DOCKED: USER
DOCKED: USER    Estimated Free Energy of Binding    =  +6.56 kcal/mol  [=(1)+(2)+(3)-(4)]
DOCKED: USER
DOCKED: USER    (1) Final Intermolecular Energy     =  +0.00 kcal/mol
DOCKED: USER        vdW + Hbond + desolv Energy     =  +0.00 kcal/mol
DOCKED: USER        Electrostatic Energy            =  +0.00 kcal/mol
DOCKED: USER        Moving Ligand-Fixed Receptor    =  +0.00 kcal/mol
DOCKED: USER        Moving Ligand-Moving Receptor   =  +0.00 kcal/mol
DOCKED: USER    (2) Final Total Internal Energy     = -14.48 kcal/mol
DOCKED: USER    (3) Torsional Free Energy           =  +6.56 kcal/mol
DOCKED: USER    (4) Unbound System's Energy         = -14.48 kcal/mol
DOCKED: USER
DOCKED: USER
DOCKED: REMARK  Name = ligands/ligand_47.pdb
DOCKED: REMARK  32 active torsions:
DOCKED: REMARK  status: ('A' for Active; 'I' for Inactive)
DOCKED: REMARK    1  A    between atoms: C1_1  and  S1_2
DOCKED: REMARK    2  A    between atoms: S1_2  and  C2_3
DOCKED: REMARK    3  A    between atoms: C2_3  and  C3_4
DOCKED: REMARK    4  A    between atoms: C3_4  and  C4_5
DOCKED: REMARK    5  A    between atoms: C4_5  and  N1_6
DOCKED: REMARK    6  A    between atoms: C4_5  and  C15_21
DOCKED: REMARK    7  A    between atoms: C5_7  and  C6_9
DOCKED: REMARK    8  A    between atoms: C6_9  and  N2_10
DOCKED: REMARK    9  A    between atoms: C6_9  and  C12_18
DOCKED: REMARK   10  A    between atoms: C7_11  and  O3_13
DOCKED: REMARK   11  A    between atoms: O3_13  and  C8_14
DOCKED: REMARK   12  A    between atoms: C8_14  and  C9_15
DOCKED: REMARK   13  A    between atoms: C8_14  and  C10_16
DOCKED: REMARK   14  A    between atoms: C8_14  and  C11_17
DOCKED: REMARK   15  A    between atoms: C12_18  and  C13_19
DOCKED: REMARK   16  A    between atoms: C12_18  and  C14_20
DOCKED: REMARK   17  A    between atoms: N3_23  and  C16_24
DOCKED: REMARK   18  A    between atoms: C16_24  and  C17_25
DOCKED: REMARK   19  A    between atoms: C16_24  and  C21_29
DOCKED: REMARK   20  A    between atoms: C17_25  and  C18_26
DOCKED: REMARK   21  A    between atoms: C18_26  and  C19_27
DOCKED: REMARK   22  A    between atoms: C18_26  and  C20_28
DOCKED: REMARK   23  A    between atoms: C21_29  and  O5_30
DOCKED: REMARK   24  A    between atoms: C21_29  and  C22_31
DOCKED: REMARK   25  A    between atoms: C22_31  and  C23_32
DOCKED: REMARK   26  A    between atoms: N4_34  and  C24_35
DOCKED: REMARK   27  A    between atoms: C24_35  and  C25_36
DOCKED: REMARK   28  A    between atoms: C24_35  and  C33_46
DOCKED: REMARK   29  A    between atoms: N5_38  and  C26_39
DOCKED: REMARK   30  A    between atoms: C26_39  and  C27_40
DOCKED: REMARK   31  A    between atoms: C33_46  and  C34_47
DOCKED: REMARK   32  A    between atoms: C33_46  and  C35_48
DOCKED: REMARK                            x       y       z     vdW  Elec       q    Type
DOCKED: REMARK                         _______ _______ _______ _____ _____    ______ ____
DOCKED: USER                              x       y       z     vdW  Elec       q    Type
DOCKED: USER                           _______ _______ _______ _____ _____    ______ ____
DOCKED: ROOT
DOCKED: ATOM      1  C16 UNL     1      12.005  -6.509   1.003 +0.00 +0.00    +0.102 C  
DOCKED: ENDROOT
DOCKED: BRANCH   1   4
DOCKED: ATOM      2  C15 UNL     1      11.200  -4.439  -0.115 +0.00 +0.00    +0.234 C  
DOCKED: ATOM      3  O4  UNL     1      10.597  -5.097  -0.971 +0.00 -0.00    -0.274 OA 
DOCKED: ATOM      4  N3  UNL     1      11.907  -5.045   0.895 +0.00 -0.00    -0.308 N  
DOCKED: ATOM      5  H28 UNL     1      12.621  -4.528   1.393 +0.00 +0.00    +0.149 HD 
DOCKED: BRANCH   2   6
DOCKED: ATOM      6  C4  UNL     1      11.267  -2.890  -0.202 +0.00 +0.00    +0.160 C  
DOCKED: BRANCH   6   7
DOCKED: ATOM      7  N1  UNL     1      11.259  -2.376   1.175 +0.00 -0.00    -0.302 N  
DOCKED: ATOM      8  C5  UNL     1      12.366  -2.503   1.997 +0.00 +0.00    +0.234 C  
DOCKED: ATOM      9  O1  UNL     1      13.467  -2.886   1.600 +0.00 -0.00    -0.274 OA 
DOCKED: ATOM     10  H9  UNL     1      10.370  -2.487   1.650 +0.00 +0.00    +0.150 HD 
DOCKED: BRANCH   8  11
DOCKED: ATOM     11  C6  UNL     1      12.130  -2.049   3.455 +0.00 +0.00    +0.165 C  
DOCKED: BRANCH  11  12
DOCKED: ATOM     12  N2  UNL     1      11.651  -3.213   4.190 +0.00 -0.00    -0.270 N  
DOCKED: ATOM     13  C7  UNL     1      12.322  -4.394   4.203 +0.00 +0.00    +0.401 C  
DOCKED: ATOM     14  O2  UNL     1      13.244  -4.680   3.457 +0.00 -0.00    -0.226 OA 
DOCKED: ATOM     15  H11 UNL     1      11.061  -3.044   4.998 +0.00 +0.00    +0.153 HD 
DOCKED: BRANCH  13  16
DOCKED: ATOM     16  O3  UNL     1      11.806  -5.177   5.177 +0.00 -0.00    -0.445 OA 
DOCKED: BRANCH  16  17
DOCKED: ATOM     17  C8  UNL     1      12.655  -5.689   6.237 +0.00 +0.00    +0.107 C  
DOCKED: ATOM     18  C9  UNL     1      11.682  -6.042   7.373 +0.00 +0.00    +0.055 C  
DOCKED: ATOM     19  C10 UNL     1      13.395  -6.961   5.803 +0.00 +0.00    +0.055 C  
DOCKED: ATOM     20  C11 UNL     1      13.623  -4.613   6.747 +0.00 +0.00    +0.055 C  
DOCKED: ENDBRANCH  16  17
DOCKED: ENDBRANCH  13  16
DOCKED: ENDBRANCH  11  12
DOCKED: BRANCH  11  21
DOCKED: ATOM     21  C12 UNL     1      13.386  -1.456   4.134 +0.00 +0.00    +0.012 C  
DOCKED: ATOM     22  C13 UNL     1      13.292  -1.478   5.662 +0.00 +0.00    +0.009 C  
DOCKED: ATOM     23  C14 UNL     1      13.711  -0.037   3.652 +0.00 +0.00    +0.009 C  
DOCKED: ENDBRANCH  11  21
DOCKED: ENDBRANCH   8  11
DOCKED: ENDBRANCH   6   7
DOCKED: BRANCH   6  24
DOCKED: ATOM     24  C3  UNL     1      12.398  -2.291  -1.049 +0.00 +0.00    +0.042 C  
DOCKED: BRANCH  24  25
DOCKED: ATOM     25  C2  UNL     1      12.806  -3.235  -2.177 +0.00 +0.00    +0.071 C  
DOCKED: BRANCH  25  27
DOCKED: ATOM     26  C1  UNL     1      13.853  -5.818  -2.116 +0.00 +0.00    +0.084 C  
DOCKED: ATOM     27  S1  UNL     1      14.372  -4.104  -1.831 +0.00 -0.00    -0.164 S  
DOCKED: ENDBRANCH  25  27
DOCKED: ENDBRANCH  24  25
DOCKED: ENDBRANCH   6  24
DOCKED: ENDBRANCH   2   6
DOCKED: ENDBRANCH   1   4
DOCKED: BRANCH   1  28
DOCKED: ATOM     28  C21 UNL     1      13.511  -6.902   1.135 +0.00 +0.00    +0.143 C  
DOCKED: BRANCH  28  29
DOCKED: ATOM     29  O5  UNL     1      14.362  -5.757   1.018 +0.00 -0.00    -0.389 OA 
DOCKED: ATOM     30  H40 UNL     1      13.935  -5.017   1.505 +0.00 +0.00    +0.210 HD 
DOCKED: ENDBRANCH  28  29
DOCKED: BRANCH  28  31
DOCKED: ATOM     31  C22 UNL     1      13.850  -7.758   2.356 +0.00 +0.00    +0.129 C  
DOCKED: BRANCH  31  32
DOCKED: ATOM     32  C23 UNL     1      15.198  -7.452   2.964 +0.00 +0.00    +0.216 C  
DOCKED: ATOM     33  O6  UNL     1      16.099  -8.295   3.003 +0.00 -0.00    -0.276 OA 
DOCKED: ATOM     34  N4  UNL     1      15.301  -6.185   3.494 +0.00 -0.00    -0.304 N  
DOCKED: ATOM     35  H43 UNL     1      14.635  -5.499   3.145 +0.00 +0.00    +0.149 HD 
DOCKED: BRANCH  34  36
DOCKED: ATOM     36  C24 UNL     1      16.617  -5.614   3.820 +0.00 +0.00    +0.161 C  
DOCKED: BRANCH  36  37
DOCKED: ATOM     37  C25 UNL     1      17.023  -4.767   2.591 +0.00 +0.00    +0.234 C  
DOCKED: ATOM     38  O7  UNL     1      18.188  -4.729   2.193 +0.00 -0.00    -0.274 OA 
DOCKED: ATOM     39  N5  UNL     1      15.995  -4.101   1.963 +0.00 -0.00    -0.310 N  
DOCKED: ATOM     40  H45 UNL     1      15.054  -4.168   2.319 +0.00 +0.00    +0.149 HD 
DOCKED: BRANCH  39  41
DOCKED: ATOM     41  C26 UNL     1      16.210  -3.282   0.791 +0.00 +0.00    +0.139 C  
DOCKED: BRANCH  41  42
DOCKED: ATOM     42  C27 UNL     1      16.210  -1.813   1.135 +0.00 -0.00    -0.030 A  
DOCKED: ATOM     43  C28 UNL     1      16.969  -1.321   2.207 +0.00 +0.00    +0.005 A  
DOCKED: ATOM     44  C29 UNL     1      16.998   0.051   2.483 +0.00 +0.00    +0.000 A  
DOCKED: ATOM     45  C30 UNL     1      16.261   0.937   1.702 +0.00 +0.00    +0.000 A  
DOCKED: ATOM     46  C31 UNL     1      15.493   0.453   0.645 +0.00 +0.00    +0.000 A  
DOCKED: ATOM     47  C32 UNL     1      15.464  -0.913   0.366 +0.00 +0.00    +0.005 A  
DOCKED: ENDBRANCH  41  42
DOCKED: ENDBRANCH  39  41
DOCKED: ENDBRANCH  36  37
DOCKED: BRANCH  36  48
DOCKED: ATOM     48  C33 UNL     1      16.551  -4.812   5.140 +0.00 +0.00    +0.012 C  
DOCKED: ATOM     49  C34 UNL     1      16.188  -3.336   4.942 +0.00 +0.00    +0.009 C  
DOCKED: ATOM     50  C35 UNL     1      17.836  -4.926   5.960 +0.00 +0.00    +0.009 C  
DOCKED: ENDBRANCH  36  48
DOCKED: ENDBRANCH  34  36
DOCKED: ENDBRANCH  31  32
DOCKED: ENDBRANCH  28  31
DOCKED: ENDBRANCH   1  28
DOCKED: BRANCH   1  51
DOCKED: ATOM     51  C17 UNL     1      11.107  -6.980   2.166 +0.00 +0.00    +0.028 C  
DOCKED: BRANCH  51  52
DOCKED: ATOM     52  C18 UNL     1       9.922  -6.048   2.496 +0.00 -0.00    -0.015 C  
DOCKED: ATOM     53  C19 UNL     1       8.791  -6.149   1.471 +0.00 +0.00    +0.007 C  
DOCKED: ATOM     54  C20 UNL     1       9.378  -6.373   3.891 +0.00 +0.00    +0.007 C  
DOCKED: ENDBRANCH  51  52
DOCKED: ENDBRANCH   1  51
DOCKED: TORSDOF 22
DOCKED: TER
DOCKED: ENDMDL
________________________________________________________________________________


    FINAL DOCKED STATE:
    ________________________


Run:   3 / 20
Time taken for this run:   1.691s

DOCKED: MODEL        3
DOCKED: USER    Run = 3
DOCKED: USER
DOCKED: USER    Estimated Free Energy of Binding    =  +6.56 kcal/mol  [=(1)+(2)+(3)-(4)]
DOCKED: USER
DOCKED: USER    (1) Final Intermolecular Energy     =  +0.00 kcal/mol
DOCKED: USER        vdW + Hbond + desolv Energy     =  +0.00 kcal/mol
DOCKED: USER        Electrostatic Energy            =  +0.00 kcal/mol
DOCKED: USER        Moving Ligand-Fixed Receptor    =  +0.00 kcal/mol
DOCKED: USER        Moving Ligand-Moving Receptor   =  +0.00 kcal/mol
DOCKED: USER    (2) Final Total Internal Energy     = -14.20 kcal/mol
DOCKED: USER    (3) Torsional Free Energy           =  +6.56 kcal/mol
DOCKED: USER    (4) Unbound System's Energy         = -14.20 kcal/mol
DOCKED: USER
DOCKED: USER
DOCKED: REMARK  Name = ligands/ligand_47.pdb
DOCKED: REMARK  32 active torsions:
DOCKED: REMARK  status: ('A' for Active; 'I' for Inactive)
DOCKED: REMARK    1  A    between atoms: C1_1  and  S1_2
DOCKED: REMARK    2  A    between atoms: S1_2  and  C2_3
DOCKED: REMARK    3  A    between atoms: C2_3  and  C3_4
DOCKED: REMARK    4  A    between atoms: C3_4  and  C4_5
DOCKED: REMARK    5  A    between atoms: C4_5  and  N1_6
DOCKED: REMARK    6  A    between atoms: C4_5  and  C15_21
DOCKED: REMARK    7  A    between atoms: C5_7  and  C6_9
DOCKED: REMARK    8  A    between atoms: C6_9  and  N2_10
DOCKED: REMARK    9  A    between atoms: C6_9  and  C12_18
DOCKED: REMARK   10  A    between atoms: C7_11  and  O3_13
DOCKED: REMARK   11  A    between atoms: O3_13  and  C8_14
DOCKED: REMARK   12  A    between atoms: C8_14  and  C9_15
DOCKED: REMARK   13  A    between atoms: C8_14  and  C10_16
DOCKED: REMARK   14  A    between atoms: C8_14  and  C11_17
DOCKED: REMARK   15  A    between atoms: C12_18  and  C13_19
DOCKED: REMARK   16  A    between atoms: C12_18  and  C14_20
DOCKED: REMARK   17  A    between atoms: N3_23  and  C16_24
DOCKED: REMARK   18  A    between atoms: C16_24  and  C17_25
DOCKED: REMARK   19  A    between atoms: C16_24  and  C21_29
DOCKED: REMARK   20  A    between atoms: C17_25  and  C18_26
DOCKED: REMARK   21  A    between atoms: C18_26  and  C19_27
DOCKED: REMARK   22  A    between atoms: C18_26  and  C20_28
DOCKED: REMARK   23  A    between atoms: C21_29  and  O5_30
DOCKED: REMARK   24  A    between atoms: C21_29  and  C22_31
DOCKED: REMARK   25  A    between atoms: C22_31  and  C23_32
DOCKED: REMARK   26  A    between atoms: N4_34  and  C24_35
DOCKED: REMARK   27  A    between atoms: C24_35  and  C25_36
DOCKED: REMARK   28  A    between atoms: C24_35  and  C33_46
DOCKED: REMARK   29  A    between atoms: N5_38  and  C26_39
DOCKED: REMARK   30  A    between atoms: C26_39  and  C27_40
DOCKED: REMARK   31  A    between atoms: C33_46  and  C34_47
DOCKED: REMARK   32  A    between atoms: C33_46  and  C35_48
DOCKED: REMARK                            x       y       z     vdW  Elec       q    Type
DOCKED: REMARK                         _______ _______ _______ _____ _____    ______ ____
DOCKED: USER                              x       y       z     vdW  Elec       q    Type
DOCKED: USER                           _______ _______ _______ _____ _____    ______ ____
DOCKED: ROOT
DOCKED: ATOM      1  C16 UNL     1      12.096  -7.956  -0.452 +0.00 +0.00    +0.102 C  
DOCKED: ENDROOT
DOCKED: BRANCH   1   4
DOCKED: ATOM      2  C15 UNL     1      13.571  -8.488   1.476 +0.00 +0.00    +0.234 C  
DOCKED: ATOM      3  O4  UNL     1      12.677  -8.202   2.281 +0.00 -0.00    -0.274 OA 
DOCKED: ATOM      4  N3  UNL     1      13.374  -8.407   0.119 +0.00 -0.00    -0.308 N  
DOCKED: ATOM      5  H28 UNL     1      14.168  -8.350  -0.505 +0.00 +0.00    +0.149 HD 
DOCKED: BRANCH   2   6
DOCKED: ATOM      6  C4  UNL     1      14.997  -8.858   1.968 +0.00 +0.00    +0.160 C  
DOCKED: BRANCH   6   7
DOCKED: ATOM      7  N1  UNL     1      15.953  -8.176   1.084 +0.00 -0.00    -0.302 N  
DOCKED: ATOM      8  C5  UNL     1      16.075  -6.797   1.082 +0.00 +0.00    +0.234 C  
DOCKED: ATOM      9  O1  UNL     1      15.537  -6.067   1.915 +0.00 -0.00    -0.274 OA 
DOCKED: ATOM     10  H9  UNL     1      16.046  -8.607   0.170 +0.00 +0.00    +0.150 HD 
DOCKED: BRANCH   8  11
DOCKED: ATOM     11  C6  UNL     1      17.011  -6.244  -0.015 +0.00 +0.00    +0.165 C  
DOCKED: BRANCH  11  12
DOCKED: ATOM     12  N2  UNL     1      16.279  -6.313  -1.273 +0.00 -0.00    -0.270 N  
DOCKED: ATOM     13  C7  UNL     1      16.903  -6.435  -2.474 +0.00 +0.00    +0.401 C  
DOCKED: ATOM     14  O2  UNL     1      18.101  -6.284  -2.656 +0.00 -0.00    -0.226 OA 
DOCKED: ATOM     15  H11 UNL     1      15.332  -6.672  -1.243 +0.00 +0.00    +0.153 HD 
DOCKED: BRANCH  13  16
DOCKED: ATOM     16  O3  UNL     1      15.985  -6.760  -3.411 +0.00 -0.00    -0.445 OA 
DOCKED: BRANCH  16  17
DOCKED: ATOM     17  C8  UNL     1      16.357  -6.843  -4.811 +0.00 +0.00    +0.107 C  
DOCKED: ATOM     18  C9  UNL     1      15.047  -7.181  -5.539 +0.00 +0.00    +0.055 C  
DOCKED: ATOM     19  C10 UNL     1      16.887  -5.503  -5.336 +0.00 +0.00    +0.055 C  
DOCKED: ATOM     20  C11 UNL     1      17.353  -7.985  -5.057 +0.00 +0.00    +0.055 C  
DOCKED: ENDBRANCH  16  17
DOCKED: ENDBRANCH  13  16
DOCKED: ENDBRANCH  11  12
DOCKED: BRANCH  11  21
DOCKED: ATOM     21  C12 UNL     1      17.499  -4.802   0.252 +0.00 +0.00    +0.012 C  
DOCKED: ATOM     22  C13 UNL     1      16.631  -3.750  -0.444 +0.00 +0.00    +0.009 C  
DOCKED: ATOM     23  C14 UNL     1      18.971  -4.590  -0.120 +0.00 +0.00    +0.009 C  
DOCKED: ENDBRANCH  11  21
DOCKED: ENDBRANCH   8  11
DOCKED: ENDBRANCH   6   7
DOCKED: BRANCH   6  24
DOCKED: ATOM     24  C3  UNL     1      15.300  -8.626   3.455 +0.00 +0.00    +0.042 C  
DOCKED: BRANCH  24  25
DOCKED: ATOM     25  C2  UNL     1      15.367  -9.947   4.218 +0.00 +0.00    +0.071 C  
DOCKED: BRANCH  25  27
DOCKED: ATOM     26  C1  UNL     1      14.792 -12.131   2.583 +0.00 +0.00    +0.084 C  
DOCKED: ATOM     27  S1  UNL     1      13.984 -11.064   3.807 +0.00 -0.00    -0.164 S  
DOCKED: ENDBRANCH  25  27
DOCKED: ENDBRANCH  24  25
DOCKED: ENDBRANCH   6  24
DOCKED: ENDBRANCH   2   6
DOCKED: ENDBRANCH   1   4
DOCKED: BRANCH   1  28
DOCKED: ATOM     28  C21 UNL     1      12.378  -7.249  -1.816 +0.00 +0.00    +0.143 C  
DOCKED: BRANCH  28  29
DOCKED: ATOM     29  O5  UNL     1      13.757  -6.885  -1.939 +0.00 -0.00    -0.389 OA 
DOCKED: ATOM     30  H40 UNL     1      14.218  -7.615  -2.410 +0.00 +0.00    +0.210 HD 
DOCKED: ENDBRANCH  28  29
DOCKED: BRANCH  28  31
DOCKED: ATOM     31  C22 UNL     1      11.859  -7.991  -3.048 +0.00 +0.00    +0.129 C  
DOCKED: BRANCH  31  32
DOCKED: ATOM     32  C23 UNL     1      12.800  -9.052  -3.567 +0.00 +0.00    +0.216 C  
DOCKED: ATOM     33  O6  UNL     1      12.815  -9.381  -4.757 +0.00 -0.00    -0.276 OA 
DOCKED: ATOM     34  N4  UNL     1      13.588  -9.628  -2.595 +0.00 -0.00    -0.304 N  
DOCKED: ATOM     35  H43 UNL     1      13.711  -9.088  -1.741 +0.00 +0.00    +0.149 HD 
DOCKED: BRANCH  34  36
DOCKED: ATOM     36  C24 UNL     1      14.770 -10.423  -2.963 +0.00 +0.00    +0.161 C  
DOCKED: BRANCH  36  37
DOCKED: ATOM     37  C25 UNL     1      15.975  -9.714  -2.304 +0.00 +0.00    +0.234 C  
DOCKED: ATOM     38  O7  UNL     1      15.818  -8.798  -1.495 +0.00 -0.00    -0.274 OA 
DOCKED: ATOM     39  N5  UNL     1      17.215 -10.200  -2.654 +0.00 -0.00    -0.310 N  
DOCKED: ATOM     40  H45 UNL     1      17.295 -10.957  -3.314 +0.00 +0.00    +0.149 HD 
DOCKED: BRANCH  39  41
DOCKED: ATOM     41  C26 UNL     1      18.438  -9.653  -2.111 +0.00 +0.00    +0.139 C  
DOCKED: BRANCH  41  42
DOCKED: ATOM     42  C27 UNL     1      18.473  -9.763  -0.608 +0.00 -0.00    -0.030 A  
DOCKED: ATOM     43  C28 UNL     1      19.106  -8.784   0.175 +0.00 +0.00    +0.005 A  
DOCKED: ATOM     44  C29 UNL     1      19.087  -8.874   1.572 +0.00 +0.00    +0.000 A  
DOCKED: ATOM     45  C30 UNL     1      18.452  -9.944   2.195 +0.00 +0.00    +0.000 A  
DOCKED: ATOM     46  C31 UNL     1      17.835 -10.928   1.424 +0.00 +0.00    +0.000 A  
DOCKED: ATOM     47  C32 UNL     1      17.849 -10.840   0.032 +0.00 +0.00    +0.005 A  
DOCKED: ENDBRANCH  41  42
DOCKED: ENDBRANCH  39  41
DOCKED: ENDBRANCH  36  37
DOCKED: BRANCH  36  48
DOCKED: ATOM     48  C33 UNL     1      14.592 -11.896  -2.527 +0.00 +0.00    +0.012 C  
DOCKED: ATOM     49  C34 UNL     1      14.825 -12.122  -1.029 +0.00 +0.00    +0.009 C  
DOCKED: ATOM     50  C35 UNL     1      15.459 -12.857  -3.339 +0.00 +0.00    +0.009 C  
DOCKED: ENDBRANCH  36  48
DOCKED: ENDBRANCH  34  36
DOCKED: ENDBRANCH  31  32
DOCKED: ENDBRANCH  28  31
DOCKED: ENDBRANCH   1  28
DOCKED: BRANCH   1  51
DOCKED: ATOM     51  C17 UNL     1      11.137  -9.163  -0.534 +0.00 +0.00    +0.028 C  
DOCKED: BRANCH  51  52
DOCKED: ATOM     52  C18 UNL     1      11.800 -10.540  -0.320 +0.00 -0.00    -0.015 C  
DOCKED: ATOM     53  C19 UNL     1      11.536 -11.110   1.075 +0.00 +0.00    +0.007 C  
DOCKED: ATOM     54  C20 UNL     1      11.300 -11.528  -1.379 +0.00 +0.00    +0.007 C  
DOCKED: ENDBRANCH  51  52
DOCKED: ENDBRANCH   1  51
DOCKED: TORSDOF 22
DOCKED: TER
DOCKED: ENDMDL
________________________________________________________________________________


    FINAL DOCKED STATE:
    ________________________


Run:   4 / 20
Time taken for this run:   1.691s

DOCKED: MODEL        4
DOCKED: USER    Run = 4
DOCKED: USER
DOCKED: USER    Estimated Free Energy of Binding    =  +6.56 kcal/mol  [=(1)+(2)+(3)-(4)]
DOCKED: USER
DOCKED: USER    (1) Final Intermolecular Energy     =  +0.00 kcal/mol
DOCKED: USER        vdW + Hbond + desolv Energy     =  +0.00 kcal/mol
DOCKED: USER        Electrostatic Energy            =  +0.00 kcal/mol
DOCKED: USER        Moving Ligand-Fixed Receptor    =  +0.00 kcal/mol
DOCKED: USER        Moving Ligand-Moving Receptor   =  +0.00 kcal/mol
DOCKED: USER    (2) Final Total Internal Energy     = -14.51 kcal/mol
DOCKED: USER    (3) Torsional Free Energy           =  +6.56 kcal/mol
DOCKED: USER    (4) Unbound System's Energy         = -14.51 kcal/mol
DOCKED: USER
DOCKED: USER
DOCKED: REMARK  Name = ligands/ligand_47.pdb
DOCKED: REMARK  32 active torsions:
DOCKED: REMARK  status: ('A' for Active; 'I' for Inactive)
DOCKED: REMARK    1  A    between atoms: C1_1  and  S1_2
DOCKED: REMARK    2  A    between atoms: S1_2  and  C2_3
DOCKED: REMARK    3  A    between atoms: C2_3  and  C3_4
DOCKED: REMARK    4  A    between atoms: C3_4  and  C4_5
DOCKED: REMARK    5  A    between atoms: C4_5  and  N1_6
DOCKED: REMARK    6  A    between atoms: C4_5  and  C15_21
DOCKED: REMARK    7  A    between atoms: C5_7  and  C6_9
DOCKED: REMARK    8  A    between atoms: C6_9  and  N2_10
DOCKED: REMARK    9  A    between atoms: C6_9  and  C12_18
DOCKED: REMARK   10  A    between atoms: C7_11  and  O3_13
DOCKED: REMARK   11  A    between atoms: O3_13  and  C8_14
DOCKED: REMARK   12  A    between atoms: C8_14  and  C9_15
DOCKED: REMARK   13  A    between atoms: C8_14  and  C10_16
DOCKED: REMARK   14  A    between atoms: C8_14  and  C11_17
DOCKED: REMARK   15  A    between atoms: C12_18  and  C13_19
DOCKED: REMARK   16  A    between atoms: C12_18  and  C14_20
DOCKED: REMARK   17  A    between atoms: N3_23  and  C16_24
DOCKED: REMARK   18  A    between atoms: C16_24  and  C17_25
DOCKED: REMARK   19  A    between atoms: C16_24  and  C21_29
DOCKED: REMARK   20  A    between atoms: C17_25  and  C18_26
DOCKED: REMARK   21  A    between atoms: C18_26  and  C19_27
DOCKED: REMARK   22  A    between atoms: C18_26  and  C20_28
DOCKED: REMARK   23  A    between atoms: C21_29  and  O5_30
DOCKED: REMARK   24  A    between atoms: C21_29  and  C22_31
DOCKED: REMARK   25  A    between atoms: C22_31  and  C23_32
DOCKED: REMARK   26  A    between atoms: N4_34  and  C24_35
DOCKED: REMARK   27  A    between atoms: C24_35  and  C25_36
DOCKED: REMARK   28  A    between atoms: C24_35  and  C33_46
DOCKED: REMARK   29  A    between atoms: N5_38  and  C26_39
DOCKED: REMARK   30  A    between atoms: C26_39  and  C27_40
DOCKED: REMARK   31  A    between atoms: C33_46  and  C34_47
DOCKED: REMARK   32  A    between atoms: C33_46  and  C35_48
DOCKED: REMARK                            x       y       z     vdW  Elec       q    Type
DOCKED: REMARK                         _______ _______ _______ _____ _____    ______ ____
DOCKED: USER                              x       y       z     vdW  Elec       q    Type
DOCKED: USER                           _______ _______ _______ _____ _____    ______ ____
DOCKED: ROOT
DOCKED: ATOM      1  C16 UNL     1       6.447  -5.587   0.022 +0.00 +0.00    +0.102 C  
DOCKED: ENDROOT
DOCKED: BRANCH   1   4
DOCKED: ATOM      2  C15 UNL     1       5.697  -5.323  -2.333 +0.00 +0.00    +0.234 C  
DOCKED: ATOM      3  O4  UNL     1       4.560  -5.000  -1.969 +0.00 -0.00    -0.274 OA 
DOCKED: ATOM      4  N3  UNL     1       6.688  -5.617  -1.429 +0.00 -0.00    -0.308 N  
DOCKED: ATOM      5  H28 UNL     1       7.495  -6.154  -1.720 +0.00 +0.00    +0.149 HD 
DOCKED: BRANCH   2   6
DOCKED: ATOM      6  C4  UNL     1       6.028  -5.505  -3.839 +0.00 +0.00    +0.160 C  
DOCKED: BRANCH   6   7
DOCKED: ATOM      7  N1  UNL     1       7.430  -5.106  -4.028 +0.00 -0.00    -0.302 N  
DOCKED: ATOM      8  C5  UNL     1       8.472  -5.901  -3.580 +0.00 +0.00    +0.234 C  
DOCKED: ATOM      9  O1  UNL     1       8.319  -7.048  -3.160 +0.00 -0.00    -0.274 OA 
DOCKED: ATOM     10  H9  UNL     1       7.590  -4.109  -3.927 +0.00 +0.00    +0.150 HD 
DOCKED: BRANCH   8  11
DOCKED: ATOM     11  C6  UNL     1       9.869  -5.256  -3.722 +0.00 +0.00    +0.165 C  
DOCKED: BRANCH  11  12
DOCKED: ATOM     12  N2  UNL     1      10.120  -4.512  -2.494 +0.00 -0.00    -0.270 N  
DOCKED: ATOM     13  C7  UNL     1      10.039  -5.086  -1.265 +0.00 +0.00    +0.401 C  
DOCKED: ATOM     14  O2  UNL     1       9.551  -6.181  -1.038 +0.00 -0.00    -0.226 OA 
DOCKED: ATOM     15  H11 UNL     1      10.734  -3.708  -2.553 +0.00 +0.00    +0.153 HD 
DOCKED: BRANCH  13  16
DOCKED: ATOM     16  O3  UNL     1      10.594  -4.252  -0.358 +0.00 -0.00    -0.445 OA 
DOCKED: BRANCH  16  17
DOCKED: ATOM     17  C8  UNL     1      11.671  -4.708   0.500 +0.00 +0.00    +0.107 C  
DOCKED: ATOM     18  C9  UNL     1      12.360  -3.418   0.973 +0.00 +0.00    +0.055 C  
DOCKED: ATOM     19  C10 UNL     1      11.138  -5.464   1.724 +0.00 +0.00    +0.055 C  
DOCKED: ATOM     20  C11 UNL     1      12.695  -5.542  -0.283 +0.00 +0.00    +0.055 C  
DOCKED: ENDBRANCH  16  17
DOCKED: ENDBRANCH  13  16
DOCKED: ENDBRANCH  11  12
DOCKED: BRANCH  11  21
DOCKED: ATOM     21  C12 UNL     1      11.002  -6.275  -3.983 +0.00 +0.00    +0.012 C  
DOCKED: ATOM     22  C13 UNL     1      12.382  -5.725  -3.612 +0.00 +0.00    +0.009 C  
DOCKED: ATOM     23  C14 UNL     1      11.018  -6.794  -5.425 +0.00 +0.00    +0.009 C  
DOCKED: ENDBRANCH  11  21
DOCKED: ENDBRANCH   8  11
DOCKED: ENDBRANCH   6   7
DOCKED: BRANCH   6  24
DOCKED: ATOM     24  C3  UNL     1       5.718  -6.876  -4.457 +0.00 +0.00    +0.042 C  
DOCKED: BRANCH  24  25
DOCKED: ATOM     25  C2  UNL     1       4.541  -7.547  -3.752 +0.00 +0.00    +0.071 C  
DOCKED: BRANCH  25  27
DOCKED: ATOM     26  C1  UNL     1       4.194  -8.362  -1.108 +0.00 +0.00    +0.084 C  
DOCKED: ATOM     27  S1  UNL     1       5.071  -8.869  -2.612 +0.00 -0.00    -0.164 S  
DOCKED: ENDBRANCH  25  27
DOCKED: ENDBRANCH  24  25
DOCKED: ENDBRANCH   6  24
DOCKED: ENDBRANCH   2   6
DOCKED: ENDBRANCH   1   4
DOCKED: BRANCH   1  28
DOCKED: ATOM     28  C21 UNL     1       6.852  -6.970   0.626 +0.00 +0.00    +0.143 C  
DOCKED: BRANCH  28  29
DOCKED: ATOM     29  O5  UNL     1       7.279  -7.880  -0.394 +0.00 -0.00    -0.389 OA 
DOCKED: ATOM     30  H40 UNL     1       7.768  -7.361  -1.071 +0.00 +0.00    +0.210 HD 
DOCKED: ENDBRANCH  28  29
DOCKED: BRANCH  28  31
DOCKED: ATOM     31  C22 UNL     1       7.835  -6.901   1.795 +0.00 +0.00    +0.129 C  
DOCKED: BRANCH  31  32
DOCKED: ATOM     32  C23 UNL     1       8.848  -8.021   1.810 +0.00 +0.00    +0.216 C  
DOCKED: ATOM     33  O6  UNL     1       8.903  -8.834   2.738 +0.00 -0.00    -0.276 OA 
DOCKED: ATOM     34  N4  UNL     1       9.708  -8.016   0.734 +0.00 -0.00    -0.304 N  
DOCKED: ATOM     35  H43 UNL     1       9.388  -7.513  -0.091 +0.00 +0.00    +0.149 HD 
DOCKED: BRANCH  34  36
DOCKED: ATOM     36  C24 UNL     1      10.523  -9.200   0.422 +0.00 +0.00    +0.161 C  
DOCKED: BRANCH  36  37
DOCKED: ATOM     37  C25 UNL     1       9.710 -10.007  -0.618 +0.00 +0.00    +0.234 C  
DOCKED: ATOM     38  O7  UNL     1       9.662 -11.237  -0.580 +0.00 -0.00    -0.274 OA 
DOCKED: ATOM     39  N5  UNL     1       9.026  -9.257  -1.548 +0.00 -0.00    -0.310 N  
DOCKED: ATOM     40  H45 UNL     1       9.088  -8.252  -1.535 +0.00 +0.00    +0.149 HD 
DOCKED: BRANCH  39  41
DOCKED: ATOM     41  C26 UNL     1       8.209  -9.864  -2.575 +0.00 +0.00    +0.139 C  
DOCKED: BRANCH  41  42
DOCKED: ATOM     42  C27 UNL     1       8.898  -9.843  -3.915 +0.00 -0.00    -0.030 A  
DOCKED: ATOM     43  C28 UNL     1      10.234 -10.250  -4.049 +0.00 +0.00    +0.005 A  
DOCKED: ATOM     44  C29 UNL     1      10.845 -10.273  -5.308 +0.00 +0.00    +0.000 A  
DOCKED: ATOM     45  C30 UNL     1      10.134  -9.877  -6.437 +0.00 +0.00    +0.000 A  
DOCKED: ATOM     46  C31 UNL     1       8.812  -9.457  -6.310 +0.00 +0.00    +0.000 A  
DOCKED: ATOM     47  C32 UNL     1       8.199  -9.436  -5.057 +0.00 +0.00    +0.005 A  
DOCKED: ENDBRANCH  41  42
DOCKED: ENDBRANCH  39  41
DOCKED: ENDBRANCH  36  37
DOCKED: BRANCH  36  48
DOCKED: ATOM     48  C33 UNL     1      11.927  -8.779  -0.069 +0.00 +0.00    +0.012 C  
DOCKED: ATOM     49  C34 UNL     1      12.011  -8.581  -1.587 +0.00 +0.00    +0.009 C  
DOCKED: ATOM     50  C35 UNL     1      13.023  -9.742   0.391 +0.00 +0.00    +0.009 C  
DOCKED: ENDBRANCH  36  48
DOCKED: ENDBRANCH  34  36
DOCKED: ENDBRANCH  31  32
DOCKED: ENDBRANCH  28  31
DOCKED: ENDBRANCH   1  28
DOCKED: BRANCH   1  51
DOCKED: ATOM     51  C17 UNL     1       7.191  -4.376   0.622 +0.00 +0.00    +0.028 C  
DOCKED: BRANCH  51  52
DOCKED: ATOM     52  C18 UNL     1       7.421  -3.201  -0.354 +0.00 -0.00    -0.015 C  
DOCKED: ATOM     53  C19 UNL     1       6.129  -2.453  -0.689 +0.00 +0.00    +0.007 C  
DOCKED: ATOM     54  C20 UNL     1       8.439  -2.223   0.241 +0.00 +0.00    +0.007 C  
DOCKED: ENDBRANCH  51  52
DOCKED: ENDBRANCH   1  51
DOCKED: TORSDOF 22
DOCKED: TER
DOCKED: ENDMDL
________________________________________________________________________________


    FINAL DOCKED STATE:
    ________________________


Run:   5 / 20
Time taken for this run:   1.691s

DOCKED: MODEL        5
DOCKED: USER    Run = 5
DOCKED: USER
DOCKED: USER    Estimated Free Energy of Binding    =  +6.56 kcal/mol  [=(1)+(2)+(3)-(4)]
DOCKED: USER
DOCKED: USER    (1) Final Intermolecular Energy     =  +0.00 kcal/mol
DOCKED: USER        vdW + Hbond + desolv Energy     =  +0.00 kcal/mol
DOCKED: USER        Electrostatic Energy            =  +0.00 kcal/mol
DOCKED: USER        Moving Ligand-Fixed Receptor    =  +0.00 kcal/mol
DOCKED: USER        Moving Ligand-Moving Receptor   =  +0.00 kcal/mol
DOCKED: USER    (2) Final Total Internal Energy     = -14.44 kcal/mol
DOCKED: USER    (3) Torsional Free Energy           =  +6.56 kcal/mol
DOCKED: USER    (4) Unbound System's Energy         = -14.44 kcal/mol
DOCKED: USER
DOCKED: USER
DOCKED: REMARK  Name = ligands/ligand_47.pdb
DOCKED: REMARK  32 active torsions:
DOCKED: REMARK  status: ('A' for Active; 'I' for Inactive)
DOCKED: REMARK    1  A    between atoms: C1_1  and  S1_2
DOCKED: REMARK    2  A    between atoms: S1_2  and  C2_3
DOCKED: REMARK    3  A    between atoms: C2_3  and  C3_4
DOCKED: REMARK    4  A    between atoms: C3_4  and  C4_5
DOCKED: REMARK    5  A    between atoms: C4_5  and  N1_6
DOCKED: REMARK    6  A    between atoms: C4_5  and  C15_21
DOCKED: REMARK    7  A    between atoms: C5_7  and  C6_9
DOCKED: REMARK    8  A    between atoms: C6_9  and  N2_10
DOCKED: REMARK    9  A    between atoms: C6_9  and  C12_18
DOCKED: REMARK   10  A    between atoms: C7_11  and  O3_13
DOCKED: REMARK   11  A    between atoms: O3_13  and  C8_14
DOCKED: REMARK   12  A    between atoms: C8_14  and  C9_15
DOCKED: REMARK   13  A    between atoms: C8_14  and  C10_16
DOCKED: REMARK   14  A    between atoms: C8_14  and  C11_17
DOCKED: REMARK   15  A    between atoms: C12_18  and  C13_19
DOCKED: REMARK   16  A    between atoms: C12_18  and  C14_20
DOCKED: REMARK   17  A    between atoms: N3_23  and  C16_24
DOCKED: REMARK   18  A    between atoms: C16_24  and  C17_25
DOCKED: REMARK   19  A    between atoms: C16_24  and  C21_29
DOCKED: REMARK   20  A    between atoms: C17_25  and  C18_26
DOCKED: REMARK   21  A    between atoms: C18_26  and  C19_27
DOCKED: REMARK   22  A    between atoms: C18_26  and  C20_28
DOCKED: REMARK   23  A    between atoms: C21_29  and  O5_30
DOCKED: REMARK   24  A    between atoms: C21_29  and  C22_31
DOCKED: REMARK   25  A    between atoms: C22_31  and  C23_32
DOCKED: REMARK   26  A    between atoms: N4_34  and  C24_35
DOCKED: REMARK   27  A    between atoms: C24_35  and  C25_36
DOCKED: REMARK   28  A    between atoms: C24_35  and  C33_46
DOCKED: REMARK   29  A    between atoms: N5_38  and  C26_39
DOCKED: REMARK   30  A    between atoms: C26_39  and  C27_40
DOCKED: REMARK   31  A    between atoms: C33_46  and  C34_47
DOCKED: REMARK   32  A    between atoms: C33_46  and  C35_48
DOCKED: REMARK                            x       y       z     vdW  Elec       q    Type
DOCKED: REMARK                         _______ _______ _______ _____ _____    ______ ____
DOCKED: USER                              x       y       z     vdW  Elec       q    Type
DOCKED: USER                           _______ _______ _______ _____ _____    ______ ____
DOCKED: ROOT
DOCKED: ATOM      1  C16 UNL     1      10.203  -4.053  -2.870 +0.00 +0.00    +0.102 C  
DOCKED: ENDROOT
DOCKED: BRANCH   1   4
DOCKED: ATOM      2  C15 UNL     1       9.233  -1.941  -1.990 +0.00 +0.00    +0.234 C  
DOCKED: ATOM      3  O4  UNL     1       8.729  -2.534  -1.029 +0.00 -0.00    -0.274 OA 
DOCKED: ATOM      4  N3  UNL     1       9.979  -2.601  -2.936 +0.00 -0.00    -0.308 N  
DOCKED: ATOM      5  H28 UNL     1      10.126  -2.184  -3.846 +0.00 +0.00    +0.149 HD 
DOCKED: BRANCH   2   6
DOCKED: ATOM      6  C4  UNL     1       8.959  -0.431  -2.225 +0.00 +0.00    +0.160 C  
DOCKED: BRANCH   6   7
DOCKED: ATOM      7  N1  UNL     1      10.191   0.155  -2.774 +0.00 -0.00    -0.302 N  
DOCKED: ATOM      8  C5  UNL     1      10.594  -0.103  -4.073 +0.00 +0.00    +0.234 C  
DOCKED: ATOM      9  O1  UNL     1       9.890  -0.681  -4.901 +0.00 -0.00    -0.274 OA 
DOCKED: ATOM     10  H9  UNL     1      10.949   0.217  -2.103 +0.00 +0.00    +0.150 HD 
DOCKED: BRANCH   8  11
DOCKED: ATOM     11  C6  UNL     1      11.986   0.465  -4.430 +0.00 +0.00    +0.165 C  
DOCKED: BRANCH  11  12
DOCKED: ATOM     12  N2  UNL     1      12.961  -0.571  -4.116 +0.00 -0.00    -0.270 N  
DOCKED: ATOM     13  C7  UNL     1      12.858  -1.839  -4.593 +0.00 +0.00    +0.401 C  
DOCKED: ATOM     14  O2  UNL     1      11.866  -2.302  -5.134 +0.00 -0.00    -0.226 OA 
DOCKED: ATOM     15  H11 UNL     1      13.904  -0.272  -3.891 +0.00 +0.00    +0.153 HD 
DOCKED: BRANCH  13  16
DOCKED: ATOM     16  O3  UNL     1      14.028  -2.481  -4.380 +0.00 -0.00    -0.445 OA 
DOCKED: BRANCH  16  17
DOCKED: ATOM     17  C8  UNL     1      14.764  -3.058  -5.490 +0.00 +0.00    +0.107 C  
DOCKED: ATOM     18  C9  UNL     1      16.213  -3.147  -4.986 +0.00 +0.00    +0.055 C  
DOCKED: ATOM     19  C10 UNL     1      14.267  -4.470  -5.825 +0.00 +0.00    +0.055 C  
DOCKED: ATOM     20  C11 UNL     1      14.737  -2.138  -6.718 +0.00 +0.00    +0.055 C  
DOCKED: ENDBRANCH  16  17
DOCKED: ENDBRANCH  13  16
DOCKED: ENDBRANCH  11  12
DOCKED: BRANCH  11  21
DOCKED: ATOM     21  C12 UNL     1      12.118   0.907  -5.906 +0.00 +0.00    +0.012 C  
DOCKED: ATOM     22  C13 UNL     1      13.573   0.936  -6.381 +0.00 +0.00    +0.009 C  
DOCKED: ATOM     23  C14 UNL     1      11.451   2.258  -6.186 +0.00 +0.00    +0.009 C  
DOCKED: ENDBRANCH  11  21
DOCKED: ENDBRANCH   8  11
DOCKED: ENDBRANCH   6   7
DOCKED: BRANCH   6  24
DOCKED: ATOM     24  C3  UNL     1       7.717  -0.071  -3.052 +0.00 +0.00    +0.042 C  
DOCKED: BRANCH  24  25
DOCKED: ATOM     25  C2  UNL     1       6.617  -1.117  -2.883 +0.00 +0.00    +0.071 C  
DOCKED: BRANCH  25  27
DOCKED: ATOM     26  C1  UNL     1       6.608  -3.839  -3.489 +0.00 +0.00    +0.084 C  
DOCKED: ATOM     27  S1  UNL     1       6.486  -2.232  -4.321 +0.00 -0.00    -0.164 S  
DOCKED: ENDBRANCH  25  27
DOCKED: ENDBRANCH  24  25
DOCKED: ENDBRANCH   6  24
DOCKED: ENDBRANCH   2   6
DOCKED: ENDBRANCH   1   4
DOCKED: BRANCH   1  28
DOCKED: ATOM     28  C21 UNL     1       9.878  -4.674  -4.267 +0.00 +0.00    +0.143 C  
DOCKED: BRANCH  28  29
DOCKED: ATOM     29  O5  UNL     1       9.328  -3.697  -5.156 +0.00 -0.00    -0.389 OA 
DOCKED: ATOM     30  H40 UNL     1       9.872  -2.881  -5.077 +0.00 +0.00    +0.210 HD 
DOCKED: ENDBRANCH  28  29
DOCKED: BRANCH  28  31
DOCKED: ATOM     31  C22 UNL     1      11.020  -5.465  -4.904 +0.00 +0.00    +0.129 C  
DOCKED: BRANCH  31  32
DOCKED: ATOM     32  C23 UNL     1      11.083  -5.349  -6.408 +0.00 +0.00    +0.216 C  
DOCKED: ATOM     33  O6  UNL     1      10.917  -6.326  -7.143 +0.00 -0.00    -0.276 OA 
DOCKED: ATOM     34  N4  UNL     1      11.379  -4.082  -6.861 +0.00 -0.00    -0.304 N  
DOCKED: ATOM     35  H43 UNL     1      11.195  -3.321  -6.211 +0.00 +0.00    +0.149 HD 
DOCKED: BRANCH  34  36
DOCKED: ATOM     36  C24 UNL     1      11.156  -3.720  -8.270 +0.00 +0.00    +0.161 C  
DOCKED: BRANCH  36  37
DOCKED: ATOM     37  C25 UNL     1       9.769  -3.035  -8.312 +0.00 +0.00    +0.234 C  
DOCKED: ATOM     38  O7  UNL     1       8.995  -3.211  -9.254 +0.00 -0.00    -0.274 OA 
DOCKED: ATOM     39  N5  UNL     1       9.457  -2.259  -7.219 +0.00 -0.00    -0.310 N  
DOCKED: ATOM     40  H45 UNL     1      10.119  -2.150  -6.468 +0.00 +0.00    +0.149 HD 
DOCKED: BRANCH  39  41
DOCKED: ATOM     41  C26 UNL     1       8.193  -1.567  -7.103 +0.00 +0.00    +0.139 C  
DOCKED: BRANCH  41  42
DOCKED: ATOM     42  C27 UNL     1       8.340  -0.094  -7.388 +0.00 -0.00    -0.030 A  
DOCKED: ATOM     43  C28 UNL     1       7.818   0.869  -6.510 +0.00 +0.00    +0.005 A  
DOCKED: ATOM     44  C29 UNL     1       8.006   2.233  -6.763 +0.00 +0.00    +0.000 A  
DOCKED: ATOM     45  C30 UNL     1       8.700   2.645  -7.897 +0.00 +0.00    +0.000 A  
DOCKED: ATOM     46  C31 UNL     1       9.208   1.695  -8.781 +0.00 +0.00    +0.000 A  
DOCKED: ATOM     47  C32 UNL     1       9.025   0.335  -8.531 +0.00 +0.00    +0.005 A  
DOCKED: ENDBRANCH  41  42
DOCKED: ENDBRANCH  39  41
DOCKED: ENDBRANCH  36  37
DOCKED: BRANCH  36  48
DOCKED: ATOM     48  C33 UNL     1      12.310  -2.834  -8.793 +0.00 +0.00    +0.012 C  
DOCKED: ATOM     49  C34 UNL     1      12.064  -1.333  -8.600 +0.00 +0.00    +0.009 C  
DOCKED: ATOM     50  C35 UNL     1      12.654  -3.122 -10.255 +0.00 +0.00    +0.009 C  
DOCKED: ENDBRANCH  36  48
DOCKED: ENDBRANCH  34  36
DOCKED: ENDBRANCH  31  32
DOCKED: ENDBRANCH  28  31
DOCKED: ENDBRANCH   1  28
DOCKED: BRANCH   1  51
DOCKED: ATOM     51  C17 UNL     1      11.639  -4.310  -2.366 +0.00 +0.00    +0.028 C  
DOCKED: BRANCH  51  52
DOCKED: ATOM     52  C18 UNL     1      12.239  -3.182  -1.498 +0.00 -0.00    -0.015 C  
DOCKED: ATOM     53  C19 UNL     1      11.700  -3.192  -0.066 +0.00 +0.00    +0.007 C  
DOCKED: ATOM     54  C20 UNL     1      13.765  -3.304  -1.471 +0.00 +0.00    +0.007 C  
DOCKED: ENDBRANCH  51  52
DOCKED: ENDBRANCH   1  51
DOCKED: TORSDOF 22
DOCKED: TER
DOCKED: ENDMDL
________________________________________________________________________________


    FINAL DOCKED STATE:
    ________________________


Run:   6 / 20
Time taken for this run:   1.691s

DOCKED: MODEL        6
DOCKED: USER    Run = 6
DOCKED: USER
DOCKED: USER    Estimated Free Energy of Binding    =  +6.56 kcal/mol  [=(1)+(2)+(3)-(4)]
DOCKED: USER
DOCKED: USER    (1) Final Intermolecular Energy     =  +0.00 kcal/mol
DOCKED: USER        vdW + Hbond + desolv Energy     =  +0.00 kcal/mol
DOCKED: USER        Electrostatic Energy            =  +0.00 kcal/mol
DOCKED: USER        Moving Ligand-Fixed Receptor    =  +0.00 kcal/mol
DOCKED: USER        Moving Ligand-Moving Receptor   =  +0.00 kcal/mol
DOCKED: USER    (2) Final Total Internal Energy     = -14.34 kcal/mol
DOCKED: USER    (3) Torsional Free Energy           =  +6.56 kcal/mol
DOCKED: USER    (4) Unbound System's Energy         = -14.34 kcal/mol
DOCKED: USER
DOCKED: USER
DOCKED: REMARK  Name = ligands/ligand_47.pdb
DOCKED: REMARK  32 active torsions:
DOCKED: REMARK  status: ('A' for Active; 'I' for Inactive)
DOCKED: REMARK    1  A    between atoms: C1_1  and  S1_2
DOCKED: REMARK    2  A    between atoms: S1_2  and  C2_3
DOCKED: REMARK    3  A    between atoms: C2_3  and  C3_4
DOCKED: REMARK    4  A    between atoms: C3_4  and  C4_5
DOCKED: REMARK    5  A    between atoms: C4_5  and  N1_6
DOCKED: REMARK    6  A    between atoms: C4_5  and  C15_21
DOCKED: REMARK    7  A    between atoms: C5_7  and  C6_9
DOCKED: REMARK    8  A    between atoms: C6_9  and  N2_10
DOCKED: REMARK    9  A    between atoms: C6_9  and  C12_18
DOCKED: REMARK   10  A    between atoms: C7_11  and  O3_13
DOCKED: REMARK   11  A    between atoms: O3_13  and  C8_14
DOCKED: REMARK   12  A    between atoms: C8_14  and  C9_15
DOCKED: REMARK   13  A    between atoms: C8_14  and  C10_16
DOCKED: REMARK   14  A    between atoms: C8_14  and  C11_17
DOCKED: REMARK   15  A    between atoms: C12_18  and  C13_19
DOCKED: REMARK   16  A    between atoms: C12_18  and  C14_20
DOCKED: REMARK   17  A    between atoms: N3_23  and  C16_24
DOCKED: REMARK   18  A    between atoms: C16_24  and  C17_25
DOCKED: REMARK   19  A    between atoms: C16_24  and  C21_29
DOCKED: REMARK   20  A    between atoms: C17_25  and  C18_26
DOCKED: REMARK   21  A    between atoms: C18_26  and  C19_27
DOCKED: REMARK   22  A    between atoms: C18_26  and  C20_28
DOCKED: REMARK   23  A    between atoms: C21_29  and  O5_30
DOCKED: REMARK   24  A    between atoms: C21_29  and  C22_31
DOCKED: REMARK   25  A    between atoms: C22_31  and  C23_32
DOCKED: REMARK   26  A    between atoms: N4_34  and  C24_35
DOCKED: REMARK   27  A    between atoms: C24_35  and  C25_36
DOCKED: REMARK   28  A    between atoms: C24_35  and  C33_46
DOCKED: REMARK   29  A    between atoms: N5_38  and  C26_39
DOCKED: REMARK   30  A    between atoms: C26_39  and  C27_40
DOCKED: REMARK   31  A    between atoms: C33_46  and  C34_47
DOCKED: REMARK   32  A    between atoms: C33_46  and  C35_48
DOCKED: REMARK                            x       y       z     vdW  Elec       q    Type
DOCKED: REMARK                         _______ _______ _______ _____ _____    ______ ____
DOCKED: USER                              x       y       z     vdW  Elec       q    Type
DOCKED: USER                           _______ _______ _______ _____ _____    ______ ____
DOCKED: ROOT
DOCKED: ATOM      1  C16 UNL     1       8.036  -6.124   2.112 +0.00 +0.00    +0.102 C  
DOCKED: ENDROOT
DOCKED: BRANCH   1   4
DOCKED: ATOM      2  C15 UNL     1       7.105  -5.999   4.413 +0.00 +0.00    +0.234 C  
DOCKED: ATOM      3  O4  UNL     1       8.208  -5.690   4.879 +0.00 -0.00    -0.274 OA 
DOCKED: ATOM      4  N3  UNL     1       6.924  -6.221   3.070 +0.00 -0.00    -0.308 N  
DOCKED: ATOM      5  H28 UNL     1       6.124  -6.750   2.748 +0.00 +0.00    +0.149 HD 
DOCKED: BRANCH   2   6
DOCKED: ATOM      6  C4  UNL     1       5.889  -6.249   5.347 +0.00 +0.00    +0.160 C  
DOCKED: BRANCH   6   7
DOCKED: ATOM      7  N1  UNL     1       4.963  -7.136   4.628 +0.00 -0.00    -0.302 N  
DOCKED: ATOM      8  C5  UNL     1       5.386  -8.344   4.102 +0.00 +0.00    +0.234 C  
DOCKED: ATOM      9  O1  UNL     1       6.489  -8.838   4.336 +0.00 -0.00    -0.274 OA 
DOCKED: ATOM     10  H9  UNL     1       4.284  -6.644   4.056 +0.00 +0.00    +0.150 HD 
DOCKED: BRANCH   8  11
DOCKED: ATOM     11  C6  UNL     1       4.324  -9.072   3.247 +0.00 +0.00    +0.165 C  
DOCKED: BRANCH  11  12
DOCKED: ATOM     12  N2  UNL     1       4.542  -8.668   1.864 +0.00 -0.00    -0.270 N  
DOCKED: ATOM     13  C7  UNL     1       4.472  -7.372   1.463 +0.00 +0.00    +0.401 C  
DOCKED: ATOM     14  O2  UNL     1       4.020  -6.458   2.134 +0.00 -0.00    -0.226 OA 
DOCKED: ATOM     15  H11 UNL     1       5.129  -9.264   1.291 +0.00 +0.00    +0.153 HD 
DOCKED: BRANCH  13  16
DOCKED: ATOM     16  O3  UNL     1       4.993  -7.272   0.220 +0.00 -0.00    -0.445 OA 
DOCKED: BRANCH  16  17
DOCKED: ATOM     17  C8  UNL     1       4.504  -6.268  -0.706 +0.00 +0.00    +0.107 C  
DOCKED: ATOM     18  C9  UNL     1       5.532  -6.262  -1.848 +0.00 +0.00    +0.055 C  
DOCKED: ATOM     19  C10 UNL     1       3.130  -6.645  -1.275 +0.00 +0.00    +0.055 C  
DOCKED: ATOM     20  C11 UNL     1       4.491  -4.874  -0.062 +0.00 +0.00    +0.055 C  
DOCKED: ENDBRANCH  16  17
DOCKED: ENDBRANCH  13  16
DOCKED: ENDBRANCH  11  12
DOCKED: BRANCH  11  21
DOCKED: ATOM     21  C12 UNL     1       4.367 -10.611   3.378 +0.00 +0.00    +0.012 C  
DOCKED: ATOM     22  C13 UNL     1       3.182 -11.292   2.689 +0.00 +0.00    +0.009 C  
DOCKED: ATOM     23  C14 UNL     1       4.465 -11.085   4.833 +0.00 +0.00    +0.009 C  
DOCKED: ENDBRANCH  11  21
DOCKED: ENDBRANCH   8  11
DOCKED: ENDBRANCH   6   7
DOCKED: BRANCH   6  24
DOCKED: ATOM     24  C3  UNL     1       6.195  -6.743   6.768 +0.00 +0.00    +0.042 C  
DOCKED: BRANCH  24  25
DOCKED: ATOM     25  C2  UNL     1       7.422  -7.652   6.786 +0.00 +0.00    +0.071 C  
DOCKED: BRANCH  25  27
DOCKED: ATOM     26  C1  UNL     1       5.274  -9.231   7.603 +0.00 +0.00    +0.084 C  
DOCKED: ATOM     27  S1  UNL     1       7.087  -9.262   7.576 +0.00 -0.00    -0.164 S  
DOCKED: ENDBRANCH  25  27
DOCKED: ENDBRANCH  24  25
DOCKED: ENDBRANCH   6  24
DOCKED: ENDBRANCH   2   6
DOCKED: ENDBRANCH   1   4
DOCKED: BRANCH   1  28
DOCKED: ATOM     28  C21 UNL     1       8.266  -7.528   1.467 +0.00 +0.00    +0.143 C  
DOCKED: BRANCH  28  29
DOCKED: ATOM     29  O5  UNL     1       7.165  -8.406   1.724 +0.00 -0.00    -0.389 OA 
DOCKED: ATOM     30  H40 UNL     1       7.257  -8.741   2.644 +0.00 +0.00    +0.210 HD 
DOCKED: ENDBRANCH  28  29
DOCKED: BRANCH  28  31
DOCKED: ATOM     31  C22 UNL     1       8.660  -7.503  -0.010 +0.00 +0.00    +0.129 C  
DOCKED: BRANCH  31  32
DOCKED: ATOM     32  C23 UNL     1       8.223  -8.726  -0.782 +0.00 +0.00    +0.216 C  
DOCKED: ATOM     33  O6  UNL     1       9.040  -9.517  -1.261 +0.00 -0.00    -0.276 OA 
DOCKED: ATOM     34  N4  UNL     1       6.858  -8.840  -0.928 +0.00 -0.00    -0.304 N  
DOCKED: ATOM     35  H43 UNL     1       6.292  -8.325  -0.257 +0.00 +0.00    +0.149 HD 
DOCKED: BRANCH  34  36
DOCKED: ATOM     36  C24 UNL     1       6.254 -10.112  -1.352 +0.00 +0.00    +0.161 C  
DOCKED: BRANCH  36  37
DOCKED: ATOM     37  C25 UNL     1       6.289 -11.029  -0.107 +0.00 +0.00    +0.234 C  
DOCKED: ATOM     38  O7  UNL     1       5.270 -11.273   0.539 +0.00 -0.00    -0.274 OA 
DOCKED: ATOM     39  N5  UNL     1       7.517 -11.572   0.196 +0.00 -0.00    -0.310 N  
DOCKED: ATOM     40  H45 UNL     1       8.323 -11.351  -0.366 +0.00 +0.00    +0.149 HD 
DOCKED: BRANCH  39  41
DOCKED: ATOM     41  C26 UNL     1       7.709 -12.462   1.319 +0.00 +0.00    +0.139 C  
DOCKED: BRANCH  41  42
DOCKED: ATOM     42  C27 UNL     1       8.130 -11.709   2.556 +0.00 -0.00    -0.030 A  
DOCKED: ATOM     43  C28 UNL     1       7.637 -12.063   3.821 +0.00 +0.00    +0.005 A  
DOCKED: ATOM     44  C29 UNL     1       8.075 -11.387   4.966 +0.00 +0.00    +0.000 A  
DOCKED: ATOM     45  C30 UNL     1       8.993 -10.347   4.856 +0.00 +0.00    +0.000 A  
DOCKED: ATOM     46  C31 UNL     1       9.475  -9.980   3.601 +0.00 +0.00    +0.000 A  
DOCKED: ATOM     47  C32 UNL     1       9.043 -10.653   2.458 +0.00 +0.00    +0.005 A  
DOCKED: ENDBRANCH  41  42
DOCKED: ENDBRANCH  39  41
DOCKED: ENDBRANCH  36  37
DOCKED: BRANCH  36  48
DOCKED: ATOM     48  C33 UNL     1       4.835  -9.879  -1.920 +0.00 +0.00    +0.012 C  
DOCKED: ATOM     49  C34 UNL     1       4.001 -11.160  -2.028 +0.00 +0.00    +0.009 C  
DOCKED: ATOM     50  C35 UNL     1       4.854  -9.156  -3.267 +0.00 +0.00    +0.009 C  
DOCKED: ENDBRANCH  36  48
DOCKED: ENDBRANCH  34  36
DOCKED: ENDBRANCH  31  32
DOCKED: ENDBRANCH  28  31
DOCKED: ENDBRANCH   1  28
DOCKED: BRANCH   1  51
DOCKED: ATOM     51  C17 UNL     1       7.729  -4.992   1.109 +0.00 +0.00    +0.028 C  
DOCKED: BRANCH  51  52
DOCKED: ATOM     52  C18 UNL     1       7.675  -3.575   1.719 +0.00 -0.00    -0.015 C  
DOCKED: ATOM     53  C19 UNL     1       6.320  -3.259   2.355 +0.00 +0.00    +0.007 C  
DOCKED: ATOM     54  C20 UNL     1       8.782  -3.417   2.766 +0.00 +0.00    +0.007 C  
DOCKED: ENDBRANCH  51  52
DOCKED: ENDBRANCH   1  51
DOCKED: TORSDOF 22
DOCKED: TER
DOCKED: ENDMDL
________________________________________________________________________________


    FINAL DOCKED STATE:
    ________________________


Run:   7 / 20
Time taken for this run:   1.691s

DOCKED: MODEL        7
DOCKED: USER    Run = 7
DOCKED: USER
DOCKED: USER    Estimated Free Energy of Binding    =  +6.56 kcal/mol  [=(1)+(2)+(3)-(4)]
DOCKED: USER
DOCKED: USER    (1) Final Intermolecular Energy     =  +0.00 kcal/mol
DOCKED: USER        vdW + Hbond + desolv Energy     =  +0.00 kcal/mol
DOCKED: USER        Electrostatic Energy            =  +0.00 kcal/mol
DOCKED: USER        Moving Ligand-Fixed Receptor    =  +0.00 kcal/mol
DOCKED: USER        Moving Ligand-Moving Receptor   =  +0.00 kcal/mol
DOCKED: USER    (2) Final Total Internal Energy     = -14.36 kcal/mol
DOCKED: USER    (3) Torsional Free Energy           =  +6.56 kcal/mol
DOCKED: USER    (4) Unbound System's Energy         = -14.36 kcal/mol
DOCKED: USER
DOCKED: USER
DOCKED: REMARK  Name = ligands/ligand_47.pdb
DOCKED: REMARK  32 active torsions:
DOCKED: REMARK  status: ('A' for Active; 'I' for Inactive)
DOCKED: REMARK    1  A    between atoms: C1_1  and  S1_2
DOCKED: REMARK    2  A    between atoms: S1_2  and  C2_3
DOCKED: REMARK    3  A    between atoms: C2_3  and  C3_4
DOCKED: REMARK    4  A    between atoms: C3_4  and  C4_5
DOCKED: REMARK    5  A    between atoms: C4_5  and  N1_6
DOCKED: REMARK    6  A    between atoms: C4_5  and  C15_21
DOCKED: REMARK    7  A    between atoms: C5_7  and  C6_9
DOCKED: REMARK    8  A    between atoms: C6_9  and  N2_10
DOCKED: REMARK    9  A    between atoms: C6_9  and  C12_18
DOCKED: REMARK   10  A    between atoms: C7_11  and  O3_13
DOCKED: REMARK   11  A    between atoms: O3_13  and  C8_14
DOCKED: REMARK   12  A    between atoms: C8_14  and  C9_15
DOCKED: REMARK   13  A    between atoms: C8_14  and  C10_16
DOCKED: REMARK   14  A    between atoms: C8_14  and  C11_17
DOCKED: REMARK   15  A    between atoms: C12_18  and  C13_19
DOCKED: REMARK   16  A    between atoms: C12_18  and  C14_20
DOCKED: REMARK   17  A    between atoms: N3_23  and  C16_24
DOCKED: REMARK   18  A    between atoms: C16_24  and  C17_25
DOCKED: REMARK   19  A    between atoms: C16_24  and  C21_29
DOCKED: REMARK   20  A    between atoms: C17_25  and  C18_26
DOCKED: REMARK   21  A    between atoms: C18_26  and  C19_27
DOCKED: REMARK   22  A    between atoms: C18_26  and  C20_28
DOCKED: REMARK   23  A    between atoms: C21_29  and  O5_30
DOCKED: REMARK   24  A    between atoms: C21_29  and  C22_31
DOCKED: REMARK   25  A    between atoms: C22_31  and  C23_32
DOCKED: REMARK   26  A    between atoms: N4_34  and  C24_35
DOCKED: REMARK   27  A    between atoms: C24_35  and  C25_36
DOCKED: REMARK   28  A    between atoms: C24_35  and  C33_46
DOCKED: REMARK   29  A    between atoms: N5_38  and  C26_39
DOCKED: REMARK   30  A    between atoms: C26_39  and  C27_40
DOCKED: REMARK   31  A    between atoms: C33_46  and  C34_47
DOCKED: REMARK   32  A    between atoms: C33_46  and  C35_48
DOCKED: REMARK                            x       y       z     vdW  Elec       q    Type
DOCKED: REMARK                         _______ _______ _______ _____ _____    ______ ____
DOCKED: USER                              x       y       z     vdW  Elec       q    Type
DOCKED: USER                           _______ _______ _______ _____ _____    ______ ____
DOCKED: ROOT
DOCKED: ATOM      1  C16 UNL     1      11.983  -0.915   0.242 +0.00 +0.00    +0.102 C  
DOCKED: ENDROOT
DOCKED: BRANCH   1   4
DOCKED: ATOM      2  C15 UNL     1      10.660   1.119  -0.300 +0.00 +0.00    +0.234 C  
DOCKED: ATOM      3  O4  UNL     1      10.430   0.705  -1.443 +0.00 -0.00    -0.274 OA 
DOCKED: ATOM      4  N3  UNL     1      11.401   0.389   0.597 +0.00 -0.00    -0.308 N  
DOCKED: ATOM      5  H28 UNL     1      11.826   0.847   1.393 +0.00 +0.00    +0.149 HD 
DOCKED: BRANCH   2   6
DOCKED: ATOM      6  C4  UNL     1      10.199   2.534   0.142 +0.00 +0.00    +0.160 C  
DOCKED: BRANCH   6   7
DOCKED: ATOM      7  N1  UNL     1      10.331   2.599   1.604 +0.00 -0.00    -0.302 N  
DOCKED: ATOM      8  C5  UNL     1      11.573   2.674   2.212 +0.00 +0.00    +0.234 C  
DOCKED: ATOM      9  O1  UNL     1      12.621   2.863   1.595 +0.00 -0.00    -0.274 OA 
DOCKED: ATOM     10  H9  UNL     1       9.654   2.032   2.103 +0.00 +0.00    +0.150 HD 
DOCKED: BRANCH   8  11
DOCKED: ATOM     11  C6  UNL     1      11.532   2.576   3.754 +0.00 +0.00    +0.165 C  
DOCKED: BRANCH  11  12
DOCKED: ATOM     12  N2  UNL     1      11.935   1.220   4.105 +0.00 -0.00    -0.270 N  
DOCKED: ATOM     13  C7  UNL     1      11.355   0.122   3.554 +0.00 +0.00    +0.401 C  
DOCKED: ATOM     14  O2  UNL     1      10.325   0.131   2.899 +0.00 -0.00    -0.226 OA 
DOCKED: ATOM     15  H11 UNL     1      12.885   1.086   4.433 +0.00 +0.00    +0.153 HD 
DOCKED: BRANCH  13  16
DOCKED: ATOM     16  O3  UNL     1      12.111  -0.960   3.843 +0.00 -0.00    -0.445 OA 
DOCKED: BRANCH  16  17
DOCKED: ATOM     17  C8  UNL     1      11.589  -2.021   4.684 +0.00 +0.00    +0.107 C  
DOCKED: ATOM     18  C9  UNL     1      12.466  -3.240   4.358 +0.00 +0.00    +0.055 C  
DOCKED: ATOM     19  C10 UNL     1      11.737  -1.686   6.174 +0.00 +0.00    +0.055 C  
DOCKED: ATOM     20  C11 UNL     1      10.137  -2.361   4.318 +0.00 +0.00    +0.055 C  
DOCKED: ENDBRANCH  16  17
DOCKED: ENDBRANCH  13  16
DOCKED: ENDBRANCH  11  12
DOCKED: BRANCH  11  21
DOCKED: ATOM     21  C12 UNL     1      12.430   3.613   4.467 +0.00 +0.00    +0.012 C  
DOCKED: ATOM     22  C13 UNL     1      12.703   3.246   5.928 +0.00 +0.00    +0.009 C  
DOCKED: ATOM     23  C14 UNL     1      11.878   5.040   4.383 +0.00 +0.00    +0.009 C  
DOCKED: ENDBRANCH  11  21
DOCKED: ENDBRANCH   8  11
DOCKED: ENDBRANCH   6   7
DOCKED: BRANCH   6  24
DOCKED: ATOM     24  C3  UNL     1      10.856   3.729  -0.562 +0.00 +0.00    +0.042 C  
DOCKED: BRANCH  24  25
DOCKED: ATOM     25  C2  UNL     1      11.665   3.280  -1.777 +0.00 +0.00    +0.071 C  
DOCKED: BRANCH  25  27
DOCKED: ATOM     26  C1  UNL     1      13.535   1.279  -2.301 +0.00 +0.00    +0.084 C  
DOCKED: ATOM     27  S1  UNL     1      13.374   2.812  -1.345 +0.00 -0.00    -0.164 S  
DOCKED: ENDBRANCH  25  27
DOCKED: ENDBRANCH  24  25
DOCKED: ENDBRANCH   6  24
DOCKED: ENDBRANCH   2   6
DOCKED: ENDBRANCH   1   4
DOCKED: BRANCH   1  28
DOCKED: ATOM     28  C21 UNL     1      13.532  -0.840   0.430 +0.00 +0.00    +0.143 C  
DOCKED: BRANCH  28  29
DOCKED: ATOM     29  O5  UNL     1      13.934   0.431   0.950 +0.00 -0.00    -0.389 OA 
DOCKED: ATOM     30  H40 UNL     1      13.259   0.712   1.607 +0.00 +0.00    +0.210 HD 
DOCKED: ENDBRANCH  28  29
DOCKED: BRANCH  28  31
DOCKED: ATOM     31  C22 UNL     1      14.144  -2.007   1.206 +0.00 +0.00    +0.129 C  
DOCKED: BRANCH  31  32
DOCKED: ATOM     32  C23 UNL     1      15.202  -1.593   2.201 +0.00 +0.00    +0.216 C  
DOCKED: ATOM     33  O6  UNL     1      16.364  -2.002   2.121 +0.00 -0.00    -0.276 OA 
DOCKED: ATOM     34  N4  UNL     1      14.739  -0.771   3.205 +0.00 -0.00    -0.304 N  
DOCKED: ATOM     35  H43 UNL     1      13.877  -0.268   3.007 +0.00 +0.00    +0.149 HD 
DOCKED: BRANCH  34  36
DOCKED: ATOM     36  C24 UNL     1      15.679  -0.019   4.050 +0.00 +0.00    +0.161 C  
DOCKED: BRANCH  36  37
DOCKED: ATOM     37  C25 UNL     1      15.370   1.475   3.795 +0.00 +0.00    +0.234 C  
DOCKED: ATOM     38  O7  UNL     1      14.397   1.824   3.126 +0.00 -0.00    -0.274 OA 
DOCKED: ATOM     39  N5  UNL     1      16.229   2.370   4.392 +0.00 -0.00    -0.310 N  
DOCKED: ATOM     40  H45 UNL     1      17.008   2.039   4.938 +0.00 +0.00    +0.149 HD 
DOCKED: BRANCH  39  41
DOCKED: ATOM     41  C26 UNL     1      16.064   3.800   4.262 +0.00 +0.00    +0.139 C  
DOCKED: BRANCH  41  42
DOCKED: ATOM     42  C27 UNL     1      15.833   4.202   2.827 +0.00 -0.00    -0.030 A  
DOCKED: ATOM     43  C28 UNL     1      16.628   3.683   1.794 +0.00 +0.00    +0.005 A  
DOCKED: ATOM     44  C29 UNL     1      16.370   4.027   0.461 +0.00 +0.00    +0.000 A  
DOCKED: ATOM     45  C30 UNL     1      15.330   4.899   0.153 +0.00 +0.00    +0.000 A  
DOCKED: ATOM     46  C31 UNL     1      14.546   5.430   1.176 +0.00 +0.00    +0.000 A  
DOCKED: ATOM     47  C32 UNL     1      14.799   5.087   2.504 +0.00 +0.00    +0.005 A  
DOCKED: ENDBRANCH  41  42
DOCKED: ENDBRANCH  39  41
DOCKED: ENDBRANCH  36  37
DOCKED: BRANCH  36  48
DOCKED: ATOM     48  C33 UNL     1      15.540  -0.444   5.530 +0.00 +0.00    +0.012 C  
DOCKED: ATOM     49  C34 UNL     1      15.321  -1.950   5.715 +0.00 +0.00    +0.009 C  
DOCKED: ATOM     50  C35 UNL     1      14.449   0.335   6.265 +0.00 +0.00    +0.009 C  
DOCKED: ENDBRANCH  36  48
DOCKED: ENDBRANCH  34  36
DOCKED: ENDBRANCH  31  32
DOCKED: ENDBRANCH  28  31
DOCKED: ENDBRANCH   1  28
DOCKED: BRANCH   1  51
DOCKED: ATOM     51  C17 UNL     1      11.281  -2.011   1.069 +0.00 +0.00    +0.028 C  
DOCKED: BRANCH  51  52
DOCKED: ATOM     52  C18 UNL     1       9.925  -2.489   0.507 +0.00 -0.00    -0.015 C  
DOCKED: ATOM     53  C19 UNL     1       8.749  -1.654   1.018 +0.00 +0.00    +0.007 C  
DOCKED: ATOM     54  C20 UNL     1       9.954  -2.448  -1.024 +0.00 +0.00    +0.007 C  
DOCKED: ENDBRANCH  51  52
DOCKED: ENDBRANCH   1  51
DOCKED: TORSDOF 22
DOCKED: TER
DOCKED: ENDMDL
________________________________________________________________________________


    FINAL DOCKED STATE:
    ________________________


Run:   8 / 20
Time taken for this run:   1.691s

DOCKED: MODEL        8
DOCKED: USER    Run = 8
DOCKED: USER
DOCKED: USER    Estimated Free Energy of Binding    =  +6.56 kcal/mol  [=(1)+(2)+(3)-(4)]
DOCKED: USER
DOCKED: USER    (1) Final Intermolecular Energy     =  +0.00 kcal/mol
DOCKED: USER        vdW + Hbond + desolv Energy     =  +0.00 kcal/mol
DOCKED: USER        Electrostatic Energy            =  +0.00 kcal/mol
DOCKED: USER        Moving Ligand-Fixed Receptor    =  +0.00 kcal/mol
DOCKED: USER        Moving Ligand-Moving Receptor   =  +0.00 kcal/mol
DOCKED: USER    (2) Final Total Internal Energy     = -14.21 kcal/mol
DOCKED: USER    (3) Torsional Free Energy           =  +6.56 kcal/mol
DOCKED: USER    (4) Unbound System's Energy         = -14.21 kcal/mol
DOCKED: USER
DOCKED: USER
DOCKED: REMARK  Name = ligands/ligand_47.pdb
DOCKED: REMARK  32 active torsions:
DOCKED: REMARK  status: ('A' for Active; 'I' for Inactive)
DOCKED: REMARK    1  A    between atoms: C1_1  and  S1_2
DOCKED: REMARK    2  A    between atoms: S1_2  and  C2_3
DOCKED: REMARK    3  A    between atoms: C2_3  and  C3_4
DOCKED: REMARK    4  A    between atoms: C3_4  and  C4_5
DOCKED: REMARK    5  A    between atoms: C4_5  and  N1_6
DOCKED: REMARK    6  A    between atoms: C4_5  and  C15_21
DOCKED: REMARK    7  A    between atoms: C5_7  and  C6_9
DOCKED: REMARK    8  A    between atoms: C6_9  and  N2_10
DOCKED: REMARK    9  A    between atoms: C6_9  and  C12_18
DOCKED: REMARK   10  A    between atoms: C7_11  and  O3_13
DOCKED: REMARK   11  A    between atoms: O3_13  and  C8_14
DOCKED: REMARK   12  A    between atoms: C8_14  and  C9_15
DOCKED: REMARK   13  A    between atoms: C8_14  and  C10_16
DOCKED: REMARK   14  A    between atoms: C8_14  and  C11_17
DOCKED: REMARK   15  A    between atoms: C12_18  and  C13_19
DOCKED: REMARK   16  A    between atoms: C12_18  and  C14_20
DOCKED: REMARK   17  A    between atoms: N3_23  and  C16_24
DOCKED: REMARK   18  A    between atoms: C16_24  and  C17_25
DOCKED: REMARK   19  A    between atoms: C16_24  and  C21_29
DOCKED: REMARK   20  A    between atoms: C17_25  and  C18_26
DOCKED: REMARK   21  A    between atoms: C18_26  and  C19_27
DOCKED: REMARK   22  A    between atoms: C18_26  and  C20_28
DOCKED: REMARK   23  A    between atoms: C21_29  and  O5_30
DOCKED: REMARK   24  A    between atoms: C21_29  and  C22_31
DOCKED: REMARK   25  A    between atoms: C22_31  and  C23_32
DOCKED: REMARK   26  A    between atoms: N4_34  and  C24_35
DOCKED: REMARK   27  A    between atoms: C24_35  and  C25_36
DOCKED: REMARK   28  A    between atoms: C24_35  and  C33_46
DOCKED: REMARK   29  A    between atoms: N5_38  and  C26_39
DOCKED: REMARK   30  A    between atoms: C26_39  and  C27_40
DOCKED: REMARK   31  A    between atoms: C33_46  and  C34_47
DOCKED: REMARK   32  A    between atoms: C33_46  and  C35_48
DOCKED: REMARK                            x       y       z     vdW  Elec       q    Type
DOCKED: REMARK                         _______ _______ _______ _____ _____    ______ ____
DOCKED: USER                              x       y       z     vdW  Elec       q    Type
DOCKED: USER                           _______ _______ _______ _____ _____    ______ ____
DOCKED: ROOT
DOCKED: ATOM      1  C16 UNL     1      10.893  -5.650  -0.336 +0.00 +0.00    +0.102 C  
DOCKED: ENDROOT
DOCKED: BRANCH   1   4
DOCKED: ATOM      2  C15 UNL     1       9.671  -3.486  -0.296 +0.00 +0.00    +0.234 C  
DOCKED: ATOM      3  O4  UNL     1       8.863  -3.921   0.534 +0.00 -0.00    -0.274 OA 
DOCKED: ATOM      4  N3  UNL     1      10.703  -4.258  -0.771 +0.00 -0.00    -0.308 N  
DOCKED: ATOM      5  H28 UNL     1      11.160  -4.013  -1.640 +0.00 +0.00    +0.149 HD 
DOCKED: BRANCH   2   6
DOCKED: ATOM      6  C4  UNL     1       9.494  -2.074  -0.915 +0.00 +0.00    +0.160 C  
DOCKED: BRANCH   6   7
DOCKED: ATOM      7  N1  UNL     1       9.764  -2.192  -2.355 +0.00 -0.00    -0.302 N  
DOCKED: ATOM      8  C5  UNL     1       8.923  -2.908  -3.190 +0.00 +0.00    +0.234 C  
DOCKED: ATOM      9  O1  UNL     1       7.825  -3.341  -2.838 +0.00 -0.00    -0.274 OA 
DOCKED: ATOM     10  H9  UNL     1      10.750  -2.275  -2.582 +0.00 +0.00    +0.150 HD 
DOCKED: BRANCH   8  11
DOCKED: ATOM     11  C6  UNL     1       9.442  -3.059  -4.637 +0.00 +0.00    +0.165 C  
DOCKED: BRANCH  11  12
DOCKED: ATOM     12  N2  UNL     1      10.486  -4.075  -4.611 +0.00 -0.00    -0.270 N  
DOCKED: ATOM     13  C7  UNL     1      11.498  -4.104  -5.517 +0.00 +0.00    +0.401 C  
DOCKED: ATOM     14  O2  UNL     1      11.531  -3.449  -6.547 +0.00 -0.00    -0.226 OA 
DOCKED: ATOM     15  H11 UNL     1      10.697  -4.504  -3.717 +0.00 +0.00    +0.153 HD 
DOCKED: BRANCH  13  16
DOCKED: ATOM     16  O3  UNL     1      12.449  -4.958  -5.080 +0.00 -0.00    -0.445 OA 
DOCKED: BRANCH  16  17
DOCKED: ATOM     17  C8  UNL     1      13.603  -5.263  -5.906 +0.00 +0.00    +0.107 C  
DOCKED: ATOM     18  C9  UNL     1      14.395  -6.301  -5.095 +0.00 +0.00    +0.055 C  
DOCKED: ATOM     19  C10 UNL     1      13.190  -5.887  -7.245 +0.00 +0.00    +0.055 C  
DOCKED: ATOM     20  C11 UNL     1      14.491  -4.026  -6.104 +0.00 +0.00    +0.055 C  
DOCKED: ENDBRANCH  16  17
DOCKED: ENDBRANCH  13  16
DOCKED: ENDBRANCH  11  12
DOCKED: BRANCH  11  21
DOCKED: ATOM     21  C12 UNL     1       8.342  -3.435  -5.657 +0.00 +0.00    +0.012 C  
DOCKED: ATOM     22  C13 UNL     1       8.259  -4.944  -5.899 +0.00 +0.00    +0.009 C  
DOCKED: ATOM     23  C14 UNL     1       8.490  -2.700  -6.994 +0.00 +0.00    +0.009 C  
DOCKED: ENDBRANCH  11  21
DOCKED: ENDBRANCH   8  11
DOCKED: ENDBRANCH   6   7
DOCKED: BRANCH   6  24
DOCKED: ATOM     24  C3  UNL     1       8.173  -1.348  -0.622 +0.00 +0.00    +0.042 C  
DOCKED: BRANCH  24  25
DOCKED: ATOM     25  C2  UNL     1       8.370  -0.233   0.403 +0.00 +0.00    +0.071 C  
DOCKED: BRANCH  25  27
DOCKED: ATOM     26  C1  UNL     1      11.022  -0.040   1.240 +0.00 +0.00    +0.084 C  
DOCKED: ATOM     27  S1  UNL     1       9.442  -0.740   1.789 +0.00 -0.00    -0.164 S  
DOCKED: ENDBRANCH  25  27
DOCKED: ENDBRANCH  24  25
DOCKED: ENDBRANCH   6  24
DOCKED: ENDBRANCH   2   6
DOCKED: ENDBRANCH   1   4
DOCKED: BRANCH   1  28
DOCKED: ATOM     28  C21 UNL     1      11.527  -6.461  -1.512 +0.00 +0.00    +0.143 C  
DOCKED: BRANCH  28  29
DOCKED: ATOM     29  O5  UNL     1      11.389  -5.768  -2.757 +0.00 -0.00    -0.389 OA 
DOCKED: ATOM     30  H40 UNL     1      12.217  -5.260  -2.909 +0.00 +0.00    +0.210 HD 
DOCKED: ENDBRANCH  28  29
DOCKED: BRANCH  28  31
DOCKED: ATOM     31  C22 UNL     1      12.958  -6.941  -1.268 +0.00 +0.00    +0.129 C  
DOCKED: BRANCH  31  32
DOCKED: ATOM     32  C23 UNL     1      14.015  -5.917  -1.606 +0.00 +0.00    +0.216 C  
DOCKED: ATOM     33  O6  UNL     1      15.151  -6.248  -1.957 +0.00 -0.00    -0.276 OA 
DOCKED: ATOM     34  N4  UNL     1      13.604  -4.612  -1.446 +0.00 -0.00    -0.304 N  
DOCKED: ATOM     35  H43 UNL     1      12.598  -4.456  -1.453 +0.00 +0.00    +0.149 HD 
DOCKED: BRANCH  34  36
DOCKED: ATOM     36  C24 UNL     1      14.376  -3.506  -2.035 +0.00 +0.00    +0.161 C  
DOCKED: BRANCH  36  37
DOCKED: ATOM     37  C25 UNL     1      13.407  -2.789  -3.004 +0.00 +0.00    +0.234 C  
DOCKED: ATOM     38  O7  UNL     1      12.209  -3.071  -3.041 +0.00 -0.00    -0.274 OA 
DOCKED: ATOM     39  N5  UNL     1      13.969  -1.801  -3.781 +0.00 -0.00    -0.310 N  
DOCKED: ATOM     40  H45 UNL     1      14.953  -1.598  -3.711 +0.00 +0.00    +0.149 HD 
DOCKED: BRANCH  39  41
DOCKED: ATOM     41  C26 UNL     1      13.191  -1.028  -4.724 +0.00 +0.00    +0.139 C  
DOCKED: BRANCH  41  42
DOCKED: ATOM     42  C27 UNL     1      12.071  -0.285  -4.040 +0.00 -0.00    -0.030 A  
DOCKED: ATOM     43  C28 UNL     1      10.839  -0.085  -4.681 +0.00 +0.00    +0.005 A  
DOCKED: ATOM     44  C29 UNL     1       9.792   0.563  -4.015 +0.00 +0.00    +0.000 A  
DOCKED: ATOM     45  C30 UNL     1       9.971   1.027  -2.715 +0.00 +0.00    +0.000 A  
DOCKED: ATOM     46  C31 UNL     1      11.197   0.845  -2.078 +0.00 +0.00    +0.000 A  
DOCKED: ATOM     47  C32 UNL     1      12.242   0.197  -2.738 +0.00 +0.00    +0.005 A  
DOCKED: ENDBRANCH  41  42
DOCKED: ENDBRANCH  39  41
DOCKED: ENDBRANCH  36  37
DOCKED: BRANCH  36  48
DOCKED: ATOM     48  C33 UNL     1      14.948  -2.592  -0.928 +0.00 +0.00    +0.012 C  
DOCKED: ATOM     49  C34 UNL     1      13.908  -1.645  -0.318 +0.00 +0.00    +0.009 C  
DOCKED: ATOM     50  C35 UNL     1      16.166  -1.795  -1.397 +0.00 +0.00    +0.009 C  
DOCKED: ENDBRANCH  36  48
DOCKED: ENDBRANCH  34  36
DOCKED: ENDBRANCH  31  32
DOCKED: ENDBRANCH  28  31
DOCKED: ENDBRANCH   1  28
DOCKED: BRANCH   1  51
DOCKED: ATOM     51  C17 UNL     1      11.716  -5.652   0.970 +0.00 +0.00    +0.028 C  
DOCKED: BRANCH  51  52
DOCKED: ATOM     52  C18 UNL     1      12.391  -4.309   1.319 +0.00 -0.00    -0.015 C  
DOCKED: ATOM     53  C19 UNL     1      11.645  -3.543   2.413 +0.00 +0.00    +0.007 C  
DOCKED: ATOM     54  C20 UNL     1      13.837  -4.554   1.761 +0.00 +0.00    +0.007 C  
DOCKED: ENDBRANCH  51  52
DOCKED: ENDBRANCH   1  51
DOCKED: TORSDOF 22
DOCKED: TER
DOCKED: ENDMDL
________________________________________________________________________________


    FINAL DOCKED STATE:
    ________________________


Run:   9 / 20
Time taken for this run:   1.691s

DOCKED: MODEL        9
DOCKED: USER    Run = 9
DOCKED: USER
DOCKED: USER    Estimated Free Energy of Binding    =  +6.56 kcal/mol  [=(1)+(2)+(3)-(4)]
DOCKED: USER
DOCKED: USER    (1) Final Intermolecular Energy     =  +0.00 kcal/mol
DOCKED: USER        vdW + Hbond + desolv Energy     =  +0.00 kcal/mol
DOCKED: USER        Electrostatic Energy            =  +0.00 kcal/mol
DOCKED: USER        Moving Ligand-Fixed Receptor    =  +0.00 kcal/mol
DOCKED: USER        Moving Ligand-Moving Receptor   =  +0.00 kcal/mol
DOCKED: USER    (2) Final Total Internal Energy     = -14.33 kcal/mol
DOCKED: USER    (3) Torsional Free Energy           =  +6.56 kcal/mol
DOCKED: USER    (4) Unbound System's Energy         = -14.33 kcal/mol
DOCKED: USER
DOCKED: USER
DOCKED: REMARK  Name = ligands/ligand_47.pdb
DOCKED: REMARK  32 active torsions:
DOCKED: REMARK  status: ('A' for Active; 'I' for Inactive)
DOCKED: REMARK    1  A    between atoms: C1_1  and  S1_2
DOCKED: REMARK    2  A    between atoms: S1_2  and  C2_3
DOCKED: REMARK    3  A    between atoms: C2_3  and  C3_4
DOCKED: REMARK    4  A    between atoms: C3_4  and  C4_5
DOCKED: REMARK    5  A    between atoms: C4_5  and  N1_6
DOCKED: REMARK    6  A    between atoms: C4_5  and  C15_21
DOCKED: REMARK    7  A    between atoms: C5_7  and  C6_9
DOCKED: REMARK    8  A    between atoms: C6_9  and  N2_10
DOCKED: REMARK    9  A    between atoms: C6_9  and  C12_18
DOCKED: REMARK   10  A    between atoms: C7_11  and  O3_13
DOCKED: REMARK   11  A    between atoms: O3_13  and  C8_14
DOCKED: REMARK   12  A    between atoms: C8_14  and  C9_15
DOCKED: REMARK   13  A    between atoms: C8_14  and  C10_16
DOCKED: REMARK   14  A    between atoms: C8_14  and  C11_17
DOCKED: REMARK   15  A    between atoms: C12_18  and  C13_19
DOCKED: REMARK   16  A    between atoms: C12_18  and  C14_20
DOCKED: REMARK   17  A    between atoms: N3_23  and  C16_24
DOCKED: REMARK   18  A    between atoms: C16_24  and  C17_25
DOCKED: REMARK   19  A    between atoms: C16_24  and  C21_29
DOCKED: REMARK   20  A    between atoms: C17_25  and  C18_26
DOCKED: REMARK   21  A    between atoms: C18_26  and  C19_27
DOCKED: REMARK   22  A    between atoms: C18_26  and  C20_28
DOCKED: REMARK   23  A    between atoms: C21_29  and  O5_30
DOCKED: REMARK   24  A    between atoms: C21_29  and  C22_31
DOCKED: REMARK   25  A    between atoms: C22_31  and  C23_32
DOCKED: REMARK   26  A    between atoms: N4_34  and  C24_35
DOCKED: REMARK   27  A    between atoms: C24_35  and  C25_36
DOCKED: REMARK   28  A    between atoms: C24_35  and  C33_46
DOCKED: REMARK   29  A    between atoms: N5_38  and  C26_39
DOCKED: REMARK   30  A    between atoms: C26_39  and  C27_40
DOCKED: REMARK   31  A    between atoms: C33_46  and  C34_47
DOCKED: REMARK   32  A    between atoms: C33_46  and  C35_48
DOCKED: REMARK                            x       y       z     vdW  Elec       q    Type
DOCKED: REMARK                         _______ _______ _______ _____ _____    ______ ____
DOCKED: USER                              x       y       z     vdW  Elec       q    Type
DOCKED: USER                           _______ _______ _______ _____ _____    ______ ____
DOCKED: ROOT
DOCKED: ATOM      1  C16 UNL     1      10.755  -3.548   0.277 +0.00 +0.00    +0.102 C  
DOCKED: ENDROOT
DOCKED: BRANCH   1   4
DOCKED: ATOM      2  C15 UNL     1      10.675  -1.168  -0.434 +0.00 +0.00    +0.234 C  
DOCKED: ATOM      3  O4  UNL     1      10.883  -1.479  -1.612 +0.00 -0.00    -0.274 OA 
DOCKED: ATOM      4  N3  UNL     1      10.587  -2.114   0.558 +0.00 -0.00    -0.308 N  
DOCKED: ATOM      5  H28 UNL     1      10.717  -1.847   1.525 +0.00 +0.00    +0.149 HD 
DOCKED: BRANCH   2   6
DOCKED: ATOM      6  C4  UNL     1      10.603   0.323  -0.004 +0.00 +0.00    +0.160 C  
DOCKED: BRANCH   6   7
DOCKED: ATOM      7  N1  UNL     1      11.123   0.406   1.368 +0.00 -0.00    -0.302 N  
DOCKED: ATOM      8  C5  UNL     1      12.323  -0.187   1.722 +0.00 +0.00    +0.234 C  
DOCKED: ATOM      9  O1  UNL     1      13.110  -0.666   0.905 +0.00 -0.00    -0.274 OA 
DOCKED: ATOM     10  H9  UNL     1      10.404   0.357   2.083 +0.00 +0.00    +0.150 HD 
DOCKED: BRANCH   8  11
DOCKED: ATOM     11  C6  UNL     1      12.636  -0.134   3.234 +0.00 +0.00    +0.165 C  
DOCKED: BRANCH  11  12
DOCKED: ATOM     12  N2  UNL     1      12.064  -1.336   3.829 +0.00 -0.00    -0.270 N  
DOCKED: ATOM     13  C7  UNL     1      10.748  -1.650   3.714 +0.00 +0.00    +0.401 C  
DOCKED: ATOM     14  O2  UNL     1       9.882  -0.890   3.310 +0.00 -0.00    -0.226 OA 
DOCKED: ATOM     15  H11 UNL     1      12.684  -2.125   3.973 +0.00 +0.00    +0.153 HD 
DOCKED: BRANCH  13  16
DOCKED: ATOM     16  O3  UNL     1      10.571  -2.931   4.106 +0.00 -0.00    -0.445 OA 
DOCKED: BRANCH  16  17
DOCKED: ATOM     17  C8  UNL     1       9.660  -3.251   5.190 +0.00 +0.00    +0.107 C  
DOCKED: ATOM     18  C9  UNL     1      10.348  -2.697   6.448 +0.00 +0.00    +0.055 C  
DOCKED: ATOM     19  C10 UNL     1       8.305  -2.554   5.015 +0.00 +0.00    +0.055 C  
DOCKED: ATOM     20  C11 UNL     1       9.503  -4.769   5.357 +0.00 +0.00    +0.055 C  
DOCKED: ENDBRANCH  16  17
DOCKED: ENDBRANCH  13  16
DOCKED: ENDBRANCH  11  12
DOCKED: BRANCH  11  21
DOCKED: ATOM     21  C12 UNL     1      14.145  -0.034   3.553 +0.00 +0.00    +0.012 C  
DOCKED: ATOM     22  C13 UNL     1      14.419   0.112   5.052 +0.00 +0.00    +0.009 C  
DOCKED: ATOM     23  C14 UNL     1      14.845   1.092   2.784 +0.00 +0.00    +0.009 C  
DOCKED: ENDBRANCH  11  21
DOCKED: ENDBRANCH   8  11
DOCKED: ENDBRANCH   6   7
DOCKED: BRANCH   6  24
DOCKED: ATOM     24  C3  UNL     1      11.254   1.348  -0.943 +0.00 +0.00    +0.042 C  
DOCKED: BRANCH  24  25
DOCKED: ATOM     25  C2  UNL     1      11.919   2.475  -0.157 +0.00 +0.00    +0.071 C  
DOCKED: BRANCH  25  27
DOCKED: ATOM     26  C1  UNL     1      13.942   1.182  -1.575 +0.00 +0.00    +0.084 C  
DOCKED: ATOM     27  S1  UNL     1      13.739   2.433  -0.277 +0.00 -0.00    -0.164 S  
DOCKED: ENDBRANCH  25  27
DOCKED: ENDBRANCH  24  25
DOCKED: ENDBRANCH   6  24
DOCKED: ENDBRANCH   2   6
DOCKED: ENDBRANCH   1   4
DOCKED: BRANCH   1  28
DOCKED: ATOM     28  C21 UNL     1      12.025  -4.060   1.029 +0.00 +0.00    +0.143 C  
DOCKED: BRANCH  28  29
DOCKED: ATOM     29  O5  UNL     1      12.448  -3.131   2.032 +0.00 -0.00    -0.389 OA 
DOCKED: ATOM     30  H40 UNL     1      13.017  -2.458   1.595 +0.00 +0.00    +0.210 HD 
DOCKED: ENDBRANCH  28  29
DOCKED: BRANCH  28  31
DOCKED: ATOM     31  C22 UNL     1      11.926  -5.489   1.564 +0.00 +0.00    +0.129 C  
DOCKED: BRANCH  31  32
DOCKED: ATOM     32  C23 UNL     1      12.860  -5.780   2.715 +0.00 +0.00    +0.216 C  
DOCKED: ATOM     33  O6  UNL     1      13.817  -6.550   2.596 +0.00 -0.00    -0.276 OA 
DOCKED: ATOM     34  N4  UNL     1      12.519  -5.146   3.889 +0.00 -0.00    -0.304 N  
DOCKED: ATOM     35  H43 UNL     1      11.922  -4.327   3.798 +0.00 +0.00    +0.149 HD 
DOCKED: BRANCH  34  36
DOCKED: ATOM     36  C24 UNL     1      13.483  -5.051   4.997 +0.00 +0.00    +0.161 C  
DOCKED: BRANCH  36  37
DOCKED: ATOM     37  C25 UNL     1      14.465  -3.924   4.602 +0.00 +0.00    +0.234 C  
DOCKED: ATOM     38  O7  UNL     1      14.396  -2.805   5.111 +0.00 -0.00    -0.274 OA 
DOCKED: ATOM     39  N5  UNL     1      15.430  -4.272   3.683 +0.00 -0.00    -0.310 N  
DOCKED: ATOM     40  H45 UNL     1      15.453  -5.203   3.299 +0.00 +0.00    +0.149 HD 
DOCKED: BRANCH  39  41
DOCKED: ATOM     41  C26 UNL     1      16.430  -3.334   3.225 +0.00 +0.00    +0.139 C  
DOCKED: BRANCH  41  42
DOCKED: ATOM     42  C27 UNL     1      16.095  -2.789   1.860 +0.00 -0.00    -0.030 A  
DOCKED: ATOM     43  C28 UNL     1      15.314  -3.527   0.958 +0.00 +0.00    +0.005 A  
DOCKED: ATOM     44  C29 UNL     1      14.969  -2.986  -0.287 +0.00 +0.00    +0.000 A  
DOCKED: ATOM     45  C30 UNL     1      15.412  -1.716  -0.644 +0.00 +0.00    +0.000 A  
DOCKED: ATOM     46  C31 UNL     1      16.200  -0.983   0.241 +0.00 +0.00    +0.000 A  
DOCKED: ATOM     47  C32 UNL     1      16.544  -1.518   1.483 +0.00 +0.00    +0.005 A  
DOCKED: ENDBRANCH  41  42
DOCKED: ENDBRANCH  39  41
DOCKED: ENDBRANCH  36  37
DOCKED: BRANCH  36  48
DOCKED: ATOM     48  C33 UNL     1      12.750  -4.806   6.336 +0.00 +0.00    +0.012 C  
DOCKED: ATOM     49  C34 UNL     1      13.659  -4.244   7.435 +0.00 +0.00    +0.009 C  
DOCKED: ATOM     50  C35 UNL     1      12.026  -6.052   6.846 +0.00 +0.00    +0.009 C  
DOCKED: ENDBRANCH  36  48
DOCKED: ENDBRANCH  34  36
DOCKED: ENDBRANCH  31  32
DOCKED: ENDBRANCH  28  31
DOCKED: ENDBRANCH   1  28
DOCKED: BRANCH   1  51
DOCKED: ATOM     51  C17 UNL     1       9.447  -4.281   0.641 +0.00 +0.00    +0.028 C  
DOCKED: BRANCH  51  52
DOCKED: ATOM     52  C18 UNL     1       8.648  -3.654   1.804 +0.00 -0.00    -0.015 C  
DOCKED: ATOM     53  C19 UNL     1       7.739  -2.512   1.346 +0.00 +0.00    +0.007 C  
DOCKED: ATOM     54  C20 UNL     1       7.808  -4.731   2.497 +0.00 +0.00    +0.007 C  
DOCKED: ENDBRANCH  51  52
DOCKED: ENDBRANCH   1  51
DOCKED: TORSDOF 22
DOCKED: TER
DOCKED: ENDMDL
________________________________________________________________________________


    FINAL DOCKED STATE:
    ________________________


Run:   10 / 20
Time taken for this run:   1.691s

DOCKED: MODEL        10
DOCKED: USER    Run = 10
DOCKED: USER
DOCKED: USER    Estimated Free Energy of Binding    =  +6.56 kcal/mol  [=(1)+(2)+(3)-(4)]
DOCKED: USER
DOCKED: USER    (1) Final Intermolecular Energy     =  +0.00 kcal/mol
DOCKED: USER        vdW + Hbond + desolv Energy     =  +0.00 kcal/mol
DOCKED: USER        Electrostatic Energy            =  +0.00 kcal/mol
DOCKED: USER        Moving Ligand-Fixed Receptor    =  +0.00 kcal/mol
DOCKED: USER        Moving Ligand-Moving Receptor   =  +0.00 kcal/mol
DOCKED: USER    (2) Final Total Internal Energy     = -14.32 kcal/mol
DOCKED: USER    (3) Torsional Free Energy           =  +6.56 kcal/mol
DOCKED: USER    (4) Unbound System's Energy         = -14.32 kcal/mol
DOCKED: USER
DOCKED: USER
DOCKED: REMARK  Name = ligands/ligand_47.pdb
DOCKED: REMARK  32 active torsions:
DOCKED: REMARK  status: ('A' for Active; 'I' for Inactive)
DOCKED: REMARK    1  A    between atoms: C1_1  and  S1_2
DOCKED: REMARK    2  A    between atoms: S1_2  and  C2_3
DOCKED: REMARK    3  A    between atoms: C2_3  and  C3_4
DOCKED: REMARK    4  A    between atoms: C3_4  and  C4_5
DOCKED: REMARK    5  A    between atoms: C4_5  and  N1_6
DOCKED: REMARK    6  A    between atoms: C4_5  and  C15_21
DOCKED: REMARK    7  A    between atoms: C5_7  and  C6_9
DOCKED: REMARK    8  A    between atoms: C6_9  and  N2_10
DOCKED: REMARK    9  A    between atoms: C6_9  and  C12_18
DOCKED: REMARK   10  A    between atoms: C7_11  and  O3_13
DOCKED: REMARK   11  A    between atoms: O3_13  and  C8_14
DOCKED: REMARK   12  A    between atoms: C8_14  and  C9_15
DOCKED: REMARK   13  A    between atoms: C8_14  and  C10_16
DOCKED: REMARK   14  A    between atoms: C8_14  and  C11_17
DOCKED: REMARK   15  A    between atoms: C12_18  and  C13_19
DOCKED: REMARK   16  A    between atoms: C12_18  and  C14_20
DOCKED: REMARK   17  A    between atoms: N3_23  and  C16_24
DOCKED: REMARK   18  A    between atoms: C16_24  and  C17_25
DOCKED: REMARK   19  A    between atoms: C16_24  and  C21_29
DOCKED: REMARK   20  A    between atoms: C17_25  and  C18_26
DOCKED: REMARK   21  A    between atoms: C18_26  and  C19_27
DOCKED: REMARK   22  A    between atoms: C18_26  and  C20_28
DOCKED: REMARK   23  A    between atoms: C21_29  and  O5_30
DOCKED: REMARK   24  A    between atoms: C21_29  and  C22_31
DOCKED: REMARK   25  A    between atoms: C22_31  and  C23_32
DOCKED: REMARK   26  A    between atoms: N4_34  and  C24_35
DOCKED: REMARK   27  A    between atoms: C24_35  and  C25_36
DOCKED: REMARK   28  A    between atoms: C24_35  and  C33_46
DOCKED: REMARK   29  A    between atoms: N5_38  and  C26_39
DOCKED: REMARK   30  A    between atoms: C26_39  and  C27_40
DOCKED: REMARK   31  A    between atoms: C33_46  and  C34_47
DOCKED: REMARK   32  A    between atoms: C33_46  and  C35_48
DOCKED: REMARK                            x       y       z     vdW  Elec       q    Type
DOCKED: REMARK                         _______ _______ _______ _____ _____    ______ ____
DOCKED: USER                              x       y       z     vdW  Elec       q    Type
DOCKED: USER                           _______ _______ _______ _____ _____    ______ ____
DOCKED: ROOT
DOCKED: ATOM      1  C16 UNL     1      16.555  -4.300   0.686 +0.00 +0.00    +0.102 C  
DOCKED: ENDROOT
DOCKED: BRANCH   1   4
DOCKED: ATOM      2  C15 UNL     1      14.669  -4.013  -0.908 +0.00 +0.00    +0.234 C  
DOCKED: ATOM      3  O4  UNL     1      14.099  -3.228  -0.142 +0.00 -0.00    -0.274 OA 
DOCKED: ATOM      4  N3  UNL     1      15.880  -4.579  -0.591 +0.00 -0.00    -0.308 N  
DOCKED: ATOM      5  H28 UNL     1      16.184  -5.421  -1.063 +0.00 +0.00    +0.149 HD 
DOCKED: BRANCH   2   6
DOCKED: ATOM      6  C4  UNL     1      13.991  -4.473  -2.227 +0.00 +0.00    +0.160 C  
DOCKED: BRANCH   6   7
DOCKED: ATOM      7  N1  UNL     1      14.404  -5.863  -2.467 +0.00 -0.00    -0.302 N  
DOCKED: ATOM      8  C5  UNL     1      14.290  -6.828  -1.480 +0.00 +0.00    +0.234 C  
DOCKED: ATOM      9  O1  UNL     1      13.694  -6.647  -0.419 +0.00 -0.00    -0.274 OA 
DOCKED: ATOM     10  H9  UNL     1      15.232  -5.951  -3.046 +0.00 +0.00    +0.150 HD 
DOCKED: BRANCH   8  11
DOCKED: ATOM     11  C6  UNL     1      14.914  -8.192  -1.852 +0.00 +0.00    +0.165 C  
DOCKED: BRANCH  11  12
DOCKED: ATOM     12  N2  UNL     1      16.319  -8.137  -1.468 +0.00 -0.00    -0.270 N  
DOCKED: ATOM     13  C7  UNL     1      17.166  -7.185  -1.940 +0.00 +0.00    +0.401 C  
DOCKED: ATOM     14  O2  UNL     1      16.922  -6.433  -2.870 +0.00 -0.00    -0.226 OA 
DOCKED: ATOM     15  H11 UNL     1      16.572  -8.531  -0.569 +0.00 +0.00    +0.153 HD 
DOCKED: BRANCH  13  16
DOCKED: ATOM     16  O3  UNL     1      18.299  -7.209  -1.204 +0.00 -0.00    -0.445 OA 
DOCKED: BRANCH  16  17
DOCKED: ATOM     17  C8  UNL     1      19.589  -7.400  -1.842 +0.00 +0.00    +0.107 C  
DOCKED: ATOM     18  C9  UNL     1      19.559  -8.852  -2.345 +0.00 +0.00    +0.055 C  
DOCKED: ATOM     19  C10 UNL     1      19.770  -6.461  -3.042 +0.00 +0.00    +0.055 C  
DOCKED: ATOM     20  C11 UNL     1      20.737  -7.263  -0.833 +0.00 +0.00    +0.055 C  
DOCKED: ENDBRANCH  16  17
DOCKED: ENDBRANCH  13  16
DOCKED: ENDBRANCH  11  12
DOCKED: BRANCH  11  21
DOCKED: ATOM     21  C12 UNL     1      14.215  -9.399  -1.185 +0.00 +0.00    +0.012 C  
DOCKED: ATOM     22  C13 UNL     1      14.763 -10.741  -1.678 +0.00 +0.00    +0.009 C  
DOCKED: ATOM     23  C14 UNL     1      12.690  -9.369  -1.344 +0.00 +0.00    +0.009 C  
DOCKED: ENDBRANCH  11  21
DOCKED: ENDBRANCH   8  11
DOCKED: ENDBRANCH   6   7
DOCKED: BRANCH   6  24
DOCKED: ATOM     24  C3  UNL     1      12.471  -4.284  -2.328 +0.00 +0.00    +0.042 C  
DOCKED: BRANCH  24  25
DOCKED: ATOM     25  C2  UNL     1      11.821  -5.431  -3.098 +0.00 +0.00    +0.071 C  
DOCKED: BRANCH  25  27
DOCKED: ATOM     26  C1  UNL     1      10.765  -5.495  -0.519 +0.00 +0.00    +0.084 C  
DOCKED: ATOM     27  S1  UNL     1      10.794  -6.496  -2.031 +0.00 -0.00    -0.164 S  
DOCKED: ENDBRANCH  25  27
DOCKED: ENDBRANCH  24  25
DOCKED: ENDBRANCH   6  24
DOCKED: ENDBRANCH   2   6
DOCKED: ENDBRANCH   1   4
DOCKED: BRANCH   1  28
DOCKED: ATOM     28  C21 UNL     1      16.634  -5.625   1.511 +0.00 +0.00    +0.143 C  
DOCKED: BRANCH  28  29
DOCKED: ATOM     29  O5  UNL     1      16.309  -6.761   0.705 +0.00 -0.00    -0.389 OA 
DOCKED: ATOM     30  H40 UNL     1      15.329  -6.833   0.669 +0.00 +0.00    +0.210 HD 
DOCKED: ENDBRANCH  28  29
DOCKED: BRANCH  28  31
DOCKED: ATOM     31  C22 UNL     1      17.931  -5.819   2.298 +0.00 +0.00    +0.129 C  
DOCKED: BRANCH  31  32
DOCKED: ATOM     32  C23 UNL     1      18.225  -7.258   2.648 +0.00 +0.00    +0.216 C  
DOCKED: ATOM     33  O6  UNL     1      18.172  -7.668   3.811 +0.00 -0.00    -0.276 OA 
DOCKED: ATOM     34  N4  UNL     1      18.592  -8.035   1.570 +0.00 -0.00    -0.304 N  
DOCKED: ATOM     35  H43 UNL     1      18.313  -7.689   0.655 +0.00 +0.00    +0.149 HD 
DOCKED: BRANCH  34  36
DOCKED: ATOM     36  C24 UNL     1      18.591  -9.502   1.671 +0.00 +0.00    +0.161 C  
DOCKED: BRANCH  36  37
DOCKED: ATOM     37  C25 UNL     1      17.108  -9.929   1.565 +0.00 +0.00    +0.234 C  
DOCKED: ATOM     38  O7  UNL     1      16.652 -10.416   0.531 +0.00 -0.00    -0.274 OA 
DOCKED: ATOM     39  N5  UNL     1      16.359  -9.759   2.708 +0.00 -0.00    -0.310 N  
DOCKED: ATOM     40  H45 UNL     1      16.777  -9.364   3.535 +0.00 +0.00    +0.149 HD 
DOCKED: BRANCH  39  41
DOCKED: ATOM     41  C26 UNL     1      14.962 -10.125   2.774 +0.00 +0.00    +0.139 C  
DOCKED: BRANCH  41  42
DOCKED: ATOM     42  C27 UNL     1      14.066  -8.931   2.565 +0.00 -0.00    -0.030 A  
DOCKED: ATOM     43  C28 UNL     1      12.793  -9.072   1.991 +0.00 +0.00    +0.005 A  
DOCKED: ATOM     44  C29 UNL     1      11.954  -7.961   1.848 +0.00 +0.00    +0.000 A  
DOCKED: ATOM     45  C30 UNL     1      12.381  -6.703   2.263 +0.00 +0.00    +0.000 A  
DOCKED: ATOM     46  C31 UNL     1      13.650  -6.553   2.820 +0.00 +0.00    +0.000 A  
DOCKED: ATOM     47  C32 UNL     1      14.488  -7.658   2.966 +0.00 +0.00    +0.005 A  
DOCKED: ENDBRANCH  41  42
DOCKED: ENDBRANCH  39  41
DOCKED: ENDBRANCH  36  37
DOCKED: BRANCH  36  48
DOCKED: ATOM     48  C33 UNL     1      19.501 -10.122   0.586 +0.00 +0.00    +0.012 C  
DOCKED: ATOM     49  C34 UNL     1      19.186 -11.594   0.291 +0.00 +0.00    +0.009 C  
DOCKED: ATOM     50  C35 UNL     1      20.987  -9.962   0.905 +0.00 +0.00    +0.009 C  
DOCKED: ENDBRANCH  36  48
DOCKED: ENDBRANCH  34  36
DOCKED: ENDBRANCH  31  32
DOCKED: ENDBRANCH  28  31
DOCKED: ENDBRANCH   1  28
DOCKED: BRANCH   1  51
DOCKED: ATOM     51  C17 UNL     1      17.917  -3.638   0.392 +0.00 +0.00    +0.028 C  
DOCKED: BRANCH  51  52
DOCKED: ATOM     52  C18 UNL     1      18.609  -4.113  -0.904 +0.00 -0.00    -0.015 C  
DOCKED: ATOM     53  C19 UNL     1      18.139  -3.341  -2.139 +0.00 +0.00    +0.007 C  
DOCKED: ATOM     54  C20 UNL     1      20.128  -3.977  -0.763 +0.00 +0.00    +0.007 C  
DOCKED: ENDBRANCH  51  52
DOCKED: ENDBRANCH   1  51
DOCKED: TORSDOF 22
DOCKED: TER
DOCKED: ENDMDL
________________________________________________________________________________


    FINAL DOCKED STATE:
    ________________________


Run:   11 / 20
Time taken for this run:   1.691s

DOCKED: MODEL        11
DOCKED: USER    Run = 11
DOCKED: USER
DOCKED: USER    Estimated Free Energy of Binding    =  +6.56 kcal/mol  [=(1)+(2)+(3)-(4)]
DOCKED: USER
DOCKED: USER    (1) Final Intermolecular Energy     =  +0.00 kcal/mol
DOCKED: USER        vdW + Hbond + desolv Energy     =  +0.00 kcal/mol
DOCKED: USER        Electrostatic Energy            =  +0.00 kcal/mol
DOCKED: USER        Moving Ligand-Fixed Receptor    =  +0.00 kcal/mol
DOCKED: USER        Moving Ligand-Moving Receptor   =  +0.00 kcal/mol
DOCKED: USER    (2) Final Total Internal Energy     = -14.48 kcal/mol
DOCKED: USER    (3) Torsional Free Energy           =  +6.56 kcal/mol
DOCKED: USER    (4) Unbound System's Energy         = -14.48 kcal/mol
DOCKED: USER
DOCKED: USER
DOCKED: REMARK  Name = ligands/ligand_47.pdb
DOCKED: REMARK  32 active torsions:
DOCKED: REMARK  status: ('A' for Active; 'I' for Inactive)
DOCKED: REMARK    1  A    between atoms: C1_1  and  S1_2
DOCKED: REMARK    2  A    between atoms: S1_2  and  C2_3
DOCKED: REMARK    3  A    between atoms: C2_3  and  C3_4
DOCKED: REMARK    4  A    between atoms: C3_4  and  C4_5
DOCKED: REMARK    5  A    between atoms: C4_5  and  N1_6
DOCKED: REMARK    6  A    between atoms: C4_5  and  C15_21
DOCKED: REMARK    7  A    between atoms: C5_7  and  C6_9
DOCKED: REMARK    8  A    between atoms: C6_9  and  N2_10
DOCKED: REMARK    9  A    between atoms: C6_9  and  C12_18
DOCKED: REMARK   10  A    between atoms: C7_11  and  O3_13
DOCKED: REMARK   11  A    between atoms: O3_13  and  C8_14
DOCKED: REMARK   12  A    between atoms: C8_14  and  C9_15
DOCKED: REMARK   13  A    between atoms: C8_14  and  C10_16
DOCKED: REMARK   14  A    between atoms: C8_14  and  C11_17
DOCKED: REMARK   15  A    between atoms: C12_18  and  C13_19
DOCKED: REMARK   16  A    between atoms: C12_18  and  C14_20
DOCKED: REMARK   17  A    between atoms: N3_23  and  C16_24
DOCKED: REMARK   18  A    between atoms: C16_24  and  C17_25
DOCKED: REMARK   19  A    between atoms: C16_24  and  C21_29
DOCKED: REMARK   20  A    between atoms: C17_25  and  C18_26
DOCKED: REMARK   21  A    between atoms: C18_26  and  C19_27
DOCKED: REMARK   22  A    between atoms: C18_26  and  C20_28
DOCKED: REMARK   23  A    between atoms: C21_29  and  O5_30
DOCKED: REMARK   24  A    between atoms: C21_29  and  C22_31
DOCKED: REMARK   25  A    between atoms: C22_31  and  C23_32
DOCKED: REMARK   26  A    between atoms: N4_34  and  C24_35
DOCKED: REMARK   27  A    between atoms: C24_35  and  C25_36
DOCKED: REMARK   28  A    between atoms: C24_35  and  C33_46
DOCKED: REMARK   29  A    between atoms: N5_38  and  C26_39
DOCKED: REMARK   30  A    between atoms: C26_39  and  C27_40
DOCKED: REMARK   31  A    between atoms: C33_46  and  C34_47
DOCKED: REMARK   32  A    between atoms: C33_46  and  C35_48
DOCKED: REMARK                            x       y       z     vdW  Elec       q    Type
DOCKED: REMARK                         _______ _______ _______ _____ _____    ______ ____
DOCKED: USER                              x       y       z     vdW  Elec       q    Type
DOCKED: USER                           _______ _______ _______ _____ _____    ______ ____
DOCKED: ROOT
DOCKED: ATOM      1  C16 UNL     1      10.336  -6.672  -7.933 +0.00 +0.00    +0.102 C  
DOCKED: ENDROOT
DOCKED: BRANCH   1   4
DOCKED: ATOM      2  C15 UNL     1       8.280  -6.878  -9.315 +0.00 +0.00    +0.234 C  
DOCKED: ATOM      3  O4  UNL     1       8.646  -5.956 -10.054 +0.00 -0.00    -0.274 OA 
DOCKED: ATOM      4  N3  UNL     1       9.047  -7.303  -8.258 +0.00 -0.00    -0.308 N  
DOCKED: ATOM      5  H28 UNL     1       8.623  -7.829  -7.505 +0.00 +0.00    +0.149 HD 
DOCKED: BRANCH   2   6
DOCKED: ATOM      6  C4  UNL     1       6.884  -7.533  -9.491 +0.00 +0.00    +0.160 C  
DOCKED: BRANCH   6   7
DOCKED: ATOM      7  N1  UNL     1       7.013  -8.945  -9.105 +0.00 -0.00    -0.302 N  
DOCKED: ATOM      8  C5  UNL     1       7.145  -9.320  -7.778 +0.00 +0.00    +0.234 C  
DOCKED: ATOM      9  O1  UNL     1       6.994  -8.543  -6.835 +0.00 -0.00    -0.274 OA 
DOCKED: ATOM     10  H9  UNL     1       7.562  -9.499  -9.753 +0.00 +0.00    +0.150 HD 
DOCKED: BRANCH   8  11
DOCKED: ATOM     11  C6  UNL     1       7.426 -10.824  -7.568 +0.00 +0.00    +0.165 C  
DOCKED: BRANCH  11  12
DOCKED: ATOM     12  N2  UNL     1       8.873 -10.997  -7.614 +0.00 -0.00    -0.270 N  
DOCKED: ATOM     13  C7  UNL     1       9.717 -10.292  -6.816 +0.00 +0.00    +0.401 C  
DOCKED: ATOM     14  O2  UNL     1       9.399  -9.316  -6.155 +0.00 -0.00    -0.226 OA 
DOCKED: ATOM     15  H11 UNL     1       9.226 -11.894  -7.927 +0.00 +0.00    +0.153 HD 
DOCKED: BRANCH  13  16
DOCKED: ATOM     16  O3  UNL     1      10.942 -10.858  -6.872 +0.00 -0.00    -0.445 OA 
DOCKED: BRANCH  16  17
DOCKED: ATOM     17  C8  UNL     1      11.599 -11.316  -5.661 +0.00 +0.00    +0.107 C  
DOCKED: ATOM     18  C9  UNL     1      12.621 -12.355  -6.146 +0.00 +0.00    +0.055 C  
DOCKED: ATOM     19  C10 UNL     1      12.345 -10.175  -4.957 +0.00 +0.00    +0.055 C  
DOCKED: ATOM     20  C11 UNL     1      10.609 -12.016  -4.719 +0.00 +0.00    +0.055 C  
DOCKED: ENDBRANCH  16  17
DOCKED: ENDBRANCH  13  16
DOCKED: ENDBRANCH  11  12
DOCKED: BRANCH  11  21
DOCKED: ATOM     21  C12 UNL     1       6.853 -11.386  -6.247 +0.00 +0.00    +0.012 C  
DOCKED: ATOM     22  C13 UNL     1       7.528 -12.693  -5.823 +0.00 +0.00    +0.009 C  
DOCKED: ATOM     23  C14 UNL     1       5.332 -11.576  -6.289 +0.00 +0.00    +0.009 C  
DOCKED: ENDBRANCH  11  21
DOCKED: ENDBRANCH   8  11
DOCKED: ENDBRANCH   6   7
DOCKED: BRANCH   6  24
DOCKED: ATOM     24  C3  UNL     1       5.700  -6.840  -8.802 +0.00 +0.00    +0.042 C  
DOCKED: BRANCH  24  25
DOCKED: ATOM     25  C2  UNL     1       5.927  -5.334  -8.694 +0.00 +0.00    +0.071 C  
DOCKED: BRANCH  25  27
DOCKED: ATOM     26  C1  UNL     1       7.929  -3.909  -7.378 +0.00 +0.00    +0.084 C  
DOCKED: ATOM     27  S1  UNL     1       6.403  -4.817  -7.011 +0.00 -0.00    -0.164 S  
DOCKED: ENDBRANCH  25  27
DOCKED: ENDBRANCH  24  25
DOCKED: ENDBRANCH   6  24
DOCKED: ENDBRANCH   2   6
DOCKED: ENDBRANCH   1   4
DOCKED: BRANCH   1  28
DOCKED: ATOM     28  C21 UNL     1      10.311  -6.225  -6.436 +0.00 +0.00    +0.143 C  
DOCKED: BRANCH  28  29
DOCKED: ATOM     29  O5  UNL     1       9.035  -6.475  -5.838 +0.00 -0.00    -0.389 OA 
DOCKED: ATOM     30  H40 UNL     1       8.698  -7.326  -6.198 +0.00 +0.00    +0.210 HD 
DOCKED: ENDBRANCH  28  29
DOCKED: BRANCH  28  31
DOCKED: ATOM     31  C22 UNL     1      11.467  -6.751  -5.585 +0.00 +0.00    +0.129 C  
DOCKED: BRANCH  31  32
DOCKED: ATOM     32  C23 UNL     1      11.081  -7.084  -4.164 +0.00 +0.00    +0.216 C  
DOCKED: ATOM     33  O6  UNL     1      11.576  -6.491  -3.201 +0.00 -0.00    -0.276 OA 
DOCKED: ATOM     34  N4  UNL     1      10.177  -8.117  -4.055 +0.00 -0.00    -0.304 N  
DOCKED: ATOM     35  H43 UNL     1       9.623  -8.316  -4.885 +0.00 +0.00    +0.149 HD 
DOCKED: BRANCH  34  36
DOCKED: ATOM     36  C24 UNL     1       9.452  -8.348  -2.796 +0.00 +0.00    +0.161 C  
DOCKED: BRANCH  36  37
DOCKED: ATOM     37  C25 UNL     1       8.099  -7.615  -2.949 +0.00 +0.00    +0.234 C  
DOCKED: ATOM     38  O7  UNL     1       7.589  -7.006  -2.009 +0.00 -0.00    -0.274 OA 
DOCKED: ATOM     39  N5  UNL     1       7.538  -7.662  -4.206 +0.00 -0.00    -0.310 N  
DOCKED: ATOM     40  H45 UNL     1       7.996  -8.166  -4.948 +0.00 +0.00    +0.149 HD 
DOCKED: BRANCH  39  41
DOCKED: ATOM     41  C26 UNL     1       6.284  -7.012  -4.513 +0.00 +0.00    +0.139 C  
DOCKED: BRANCH  41  42
DOCKED: ATOM     42  C27 UNL     1       5.152  -8.004  -4.600 +0.00 -0.00    -0.030 A  
DOCKED: ATOM     43  C28 UNL     1       4.979  -8.992  -3.618 +0.00 +0.00    +0.005 A  
DOCKED: ATOM     44  C29 UNL     1       3.894  -9.875  -3.686 +0.00 +0.00    +0.000 A  
DOCKED: ATOM     45  C30 UNL     1       2.987  -9.788  -4.737 +0.00 +0.00    +0.000 A  
DOCKED: ATOM     46  C31 UNL     1       3.161  -8.819  -5.724 +0.00 +0.00    +0.000 A  
DOCKED: ATOM     47  C32 UNL     1       4.239  -7.936  -5.658 +0.00 +0.00    +0.005 A  
DOCKED: ENDBRANCH  41  42
DOCKED: ENDBRANCH  39  41
DOCKED: ENDBRANCH  36  37
DOCKED: BRANCH  36  48
DOCKED: ATOM     48  C33 UNL     1       9.317  -9.862  -2.516 +0.00 +0.00    +0.012 C  
DOCKED: ATOM     49  C34 UNL     1       8.038 -10.479  -3.094 +0.00 +0.00    +0.009 C  
DOCKED: ATOM     50  C35 UNL     1       9.430 -10.197  -1.028 +0.00 +0.00    +0.009 C  
DOCKED: ENDBRANCH  36  48
DOCKED: ENDBRANCH  34  36
DOCKED: ENDBRANCH  31  32
DOCKED: ENDBRANCH  28  31
DOCKED: ENDBRANCH   1  28
DOCKED: BRANCH   1  51
DOCKED: ATOM     51  C17 UNL     1      11.472  -7.651  -8.297 +0.00 +0.00    +0.028 C  
DOCKED: BRANCH  51  52
DOCKED: ATOM     52  C18 UNL     1      11.141  -8.643  -9.433 +0.00 -0.00    -0.015 C  
DOCKED: ATOM     53  C19 UNL     1      11.098  -7.971 -10.807 +0.00 +0.00    +0.007 C  
DOCKED: ATOM     54  C20 UNL     1      12.171  -9.776  -9.450 +0.00 +0.00    +0.007 C  
DOCKED: ENDBRANCH  51  52
DOCKED: ENDBRANCH   1  51
DOCKED: TORSDOF 22
DOCKED: TER
DOCKED: ENDMDL
________________________________________________________________________________


    FINAL DOCKED STATE:
    ________________________


Run:   12 / 20
Time taken for this run:   1.691s

DOCKED: MODEL        12
DOCKED: USER    Run = 12
DOCKED: USER
DOCKED: USER    Estimated Free Energy of Binding    =  +6.56 kcal/mol  [=(1)+(2)+(3)-(4)]
DOCKED: USER
DOCKED: USER    (1) Final Intermolecular Energy     =  +0.00 kcal/mol
DOCKED: USER        vdW + Hbond + desolv Energy     =  +0.00 kcal/mol
DOCKED: USER        Electrostatic Energy            =  +0.00 kcal/mol
DOCKED: USER        Moving Ligand-Fixed Receptor    =  +0.00 kcal/mol
DOCKED: USER        Moving Ligand-Moving Receptor   =  +0.00 kcal/mol
DOCKED: USER    (2) Final Total Internal Energy     = -14.57 kcal/mol
DOCKED: USER    (3) Torsional Free Energy           =  +6.56 kcal/mol
DOCKED: USER    (4) Unbound System's Energy         = -14.57 kcal/mol
DOCKED: USER
DOCKED: USER
DOCKED: REMARK  Name = ligands/ligand_47.pdb
DOCKED: REMARK  32 active torsions:
DOCKED: REMARK  status: ('A' for Active; 'I' for Inactive)
DOCKED: REMARK    1  A    between atoms: C1_1  and  S1_2
DOCKED: REMARK    2  A    between atoms: S1_2  and  C2_3
DOCKED: REMARK    3  A    between atoms: C2_3  and  C3_4
DOCKED: REMARK    4  A    between atoms: C3_4  and  C4_5
DOCKED: REMARK    5  A    between atoms: C4_5  and  N1_6
DOCKED: REMARK    6  A    between atoms: C4_5  and  C15_21
DOCKED: REMARK    7  A    between atoms: C5_7  and  C6_9
DOCKED: REMARK    8  A    between atoms: C6_9  and  N2_10
DOCKED: REMARK    9  A    between atoms: C6_9  and  C12_18
DOCKED: REMARK   10  A    between atoms: C7_11  and  O3_13
DOCKED: REMARK   11  A    between atoms: O3_13  and  C8_14
DOCKED: REMARK   12  A    between atoms: C8_14  and  C9_15
DOCKED: REMARK   13  A    between atoms: C8_14  and  C10_16
DOCKED: REMARK   14  A    between atoms: C8_14  and  C11_17
DOCKED: REMARK   15  A    between atoms: C12_18  and  C13_19
DOCKED: REMARK   16  A    between atoms: C12_18  and  C14_20
DOCKED: REMARK   17  A    between atoms: N3_23  and  C16_24
DOCKED: REMARK   18  A    between atoms: C16_24  and  C17_25
DOCKED: REMARK   19  A    between atoms: C16_24  and  C21_29
DOCKED: REMARK   20  A    between atoms: C17_25  and  C18_26
DOCKED: REMARK   21  A    between atoms: C18_26  and  C19_27
DOCKED: REMARK   22  A    between atoms: C18_26  and  C20_28
DOCKED: REMARK   23  A    between atoms: C21_29  and  O5_30
DOCKED: REMARK   24  A    between atoms: C21_29  and  C22_31
DOCKED: REMARK   25  A    between atoms: C22_31  and  C23_32
DOCKED: REMARK   26  A    between atoms: N4_34  and  C24_35
DOCKED: REMARK   27  A    between atoms: C24_35  and  C25_36
DOCKED: REMARK   28  A    between atoms: C24_35  and  C33_46
DOCKED: REMARK   29  A    between atoms: N5_38  and  C26_39
DOCKED: REMARK   30  A    between atoms: C26_39  and  C27_40
DOCKED: REMARK   31  A    between atoms: C33_46  and  C34_47
DOCKED: REMARK   32  A    between atoms: C33_46  and  C35_48
DOCKED: REMARK                            x       y       z     vdW  Elec       q    Type
DOCKED: REMARK                         _______ _______ _______ _____ _____    ______ ____
DOCKED: USER                              x       y       z     vdW  Elec       q    Type
DOCKED: USER                           _______ _______ _______ _____ _____    ______ ____
DOCKED: ROOT
DOCKED: ATOM      1  C16 UNL     1       8.148  -9.514   0.044 +0.00 +0.00    +0.102 C  
DOCKED: ENDROOT
DOCKED: BRANCH   1   4
DOCKED: ATOM      2  C15 UNL     1       7.300  -7.255  -0.557 +0.00 +0.00    +0.234 C  
DOCKED: ATOM      3  O4  UNL     1       6.234  -7.729  -0.968 +0.00 -0.00    -0.274 OA 
DOCKED: ATOM      4  N3  UNL     1       8.290  -8.052  -0.035 +0.00 -0.00    -0.308 N  
DOCKED: ATOM      5  H28 UNL     1       9.241  -7.709   0.016 +0.00 +0.00    +0.149 HD 
DOCKED: BRANCH   2   6
DOCKED: ATOM      6  C4  UNL     1       7.607  -5.740  -0.704 +0.00 +0.00    +0.160 C  
DOCKED: BRANCH   6   7
DOCKED: ATOM      7  N1  UNL     1       8.538  -5.378   0.374 +0.00 -0.00    -0.302 N  
DOCKED: ATOM      8  C5  UNL     1       9.868  -5.763   0.336 +0.00 +0.00    +0.234 C  
DOCKED: ATOM      9  O1  UNL     1      10.400  -6.271  -0.651 +0.00 -0.00    -0.274 OA 
DOCKED: ATOM     10  H9  UNL     1       8.123  -5.396   1.299 +0.00 +0.00    +0.150 HD 
DOCKED: BRANCH   8  11
DOCKED: ATOM     11  C6  UNL     1      10.661  -5.433   1.620 +0.00 +0.00    +0.165 C  
DOCKED: BRANCH  11  12
DOCKED: ATOM     12  N2  UNL     1      11.859  -6.262   1.605 +0.00 -0.00    -0.270 N  
DOCKED: ATOM     13  C7  UNL     1      11.839  -7.565   1.219 +0.00 +0.00    +0.401 C  
DOCKED: ATOM     14  O2  UNL     1      10.828  -8.229   1.060 +0.00 -0.00    -0.226 OA 
DOCKED: ATOM     15  H11 UNL     1      12.750  -5.793   1.489 +0.00 +0.00    +0.153 HD 
DOCKED: BRANCH  13  16
DOCKED: ATOM     16  O3  UNL     1      13.111  -7.983   1.034 +0.00 -0.00    -0.445 OA 
DOCKED: BRANCH  16  17
DOCKED: ATOM     17  C8  UNL     1      13.948  -8.324   2.170 +0.00 +0.00    +0.107 C  
DOCKED: ATOM     18  C9  UNL     1      15.385  -8.200   1.640 +0.00 +0.00    +0.055 C  
DOCKED: ATOM     19  C10 UNL     1      13.758  -7.336   3.328 +0.00 +0.00    +0.055 C  
DOCKED: ATOM     20  C11 UNL     1      13.721  -9.775   2.615 +0.00 +0.00    +0.055 C  
DOCKED: ENDBRANCH  16  17
DOCKED: ENDBRANCH  13  16
DOCKED: ENDBRANCH  11  12
DOCKED: BRANCH  11  21
DOCKED: ATOM     21  C12 UNL     1      11.036  -3.939   1.753 +0.00 +0.00    +0.012 C  
DOCKED: ATOM     22  C13 UNL     1      12.170  -3.705   2.754 +0.00 +0.00    +0.009 C  
DOCKED: ATOM     23  C14 UNL     1       9.837  -3.052   2.108 +0.00 +0.00    +0.009 C  
DOCKED: ENDBRANCH  11  21
DOCKED: ENDBRANCH   8  11
DOCKED: ENDBRANCH   6   7
DOCKED: BRANCH   6  24
DOCKED: ATOM     24  C3  UNL     1       8.084  -5.259  -2.081 +0.00 +0.00    +0.042 C  
DOCKED: BRANCH  24  25
DOCKED: ATOM     25  C2  UNL     1       8.267  -6.431  -3.044 +0.00 +0.00    +0.071 C  
DOCKED: BRANCH  25  27
DOCKED: ATOM     26  C1  UNL     1      10.098  -8.123  -4.291 +0.00 +0.00    +0.084 C  
DOCKED: ATOM     27  S1  UNL     1       9.857  -6.361  -3.936 +0.00 -0.00    -0.164 S  
DOCKED: ENDBRANCH  25  27
DOCKED: ENDBRANCH  24  25
DOCKED: ENDBRANCH   6  24
DOCKED: ENDBRANCH   2   6
DOCKED: ENDBRANCH   1   4
DOCKED: BRANCH   1  28
DOCKED: ATOM     28  C21 UNL     1       9.368 -10.175  -0.673 +0.00 +0.00    +0.143 C  
DOCKED: BRANCH  28  29
DOCKED: ATOM     29  O5  UNL     1      10.192  -9.195  -1.311 +0.00 -0.00    -0.389 OA 
DOCKED: ATOM     30  H40 UNL     1      10.296  -8.441  -0.689 +0.00 +0.00    +0.210 HD 
DOCKED: ENDBRANCH  28  29
DOCKED: BRANCH  28  31
DOCKED: ATOM     31  C22 UNL     1      10.176 -11.145   0.189 +0.00 +0.00    +0.129 C  
DOCKED: BRANCH  31  32
DOCKED: ATOM     32  C23 UNL     1      11.529 -11.494  -0.384 +0.00 +0.00    +0.216 C  
DOCKED: ATOM     33  O6  UNL     1      11.776 -12.620  -0.824 +0.00 -0.00    -0.276 OA 
DOCKED: ATOM     34  N4  UNL     1      12.445 -10.467  -0.327 +0.00 -0.00    -0.304 N  
DOCKED: ATOM     35  H43 UNL     1      12.060  -9.529  -0.236 +0.00 +0.00    +0.149 HD 
DOCKED: BRANCH  34  36
DOCKED: ATOM     36  C24 UNL     1      13.681 -10.521  -1.124 +0.00 +0.00    +0.161 C  
DOCKED: BRANCH  36  37
DOCKED: ATOM     37  C25 UNL     1      13.677  -9.240  -1.992 +0.00 +0.00    +0.234 C  
DOCKED: ATOM     38  O7  UNL     1      14.426  -9.119  -2.961 +0.00 -0.00    -0.274 OA 
DOCKED: ATOM     39  N5  UNL     1      12.761  -8.279  -1.626 +0.00 -0.00    -0.310 N  
DOCKED: ATOM     40  H45 UNL     1      12.162  -8.425  -0.830 +0.00 +0.00    +0.149 HD 
DOCKED: BRANCH  39  41
DOCKED: ATOM     41  C26 UNL     1      12.624  -7.033  -2.348 +0.00 +0.00    +0.139 C  
DOCKED: BRANCH  41  42
DOCKED: ATOM     42  C27 UNL     1      13.240  -5.884  -1.590 +0.00 -0.00    -0.030 A  
DOCKED: ATOM     43  C28 UNL     1      12.650  -4.611  -1.602 +0.00 +0.00    +0.005 A  
DOCKED: ATOM     44  C29 UNL     1      13.207  -3.566  -0.854 +0.00 +0.00    +0.000 A  
DOCKED: ATOM     45  C30 UNL     1      14.359  -3.781  -0.103 +0.00 +0.00    +0.000 A  
DOCKED: ATOM     46  C31 UNL     1      14.958  -5.039  -0.098 +0.00 +0.00    +0.000 A  
DOCKED: ATOM     47  C32 UNL     1      14.405  -6.083  -0.841 +0.00 +0.00    +0.005 A  
DOCKED: ENDBRANCH  41  42
DOCKED: ENDBRANCH  39  41
DOCKED: ENDBRANCH  36  37
DOCKED: BRANCH  36  48
DOCKED: ATOM     48  C33 UNL     1      14.916 -10.652  -0.205 +0.00 +0.00    +0.012 C  
DOCKED: ATOM     49  C34 UNL     1      16.234 -10.285  -0.895 +0.00 +0.00    +0.009 C  
DOCKED: ATOM     50  C35 UNL     1      15.030 -12.039   0.430 +0.00 +0.00    +0.009 C  
DOCKED: ENDBRANCH  36  48
DOCKED: ENDBRANCH  34  36
DOCKED: ENDBRANCH  31  32
DOCKED: ENDBRANCH  28  31
DOCKED: ENDBRANCH   1  28
DOCKED: BRANCH   1  51
DOCKED: ATOM     51  C17 UNL     1       7.971  -9.914   1.523 +0.00 +0.00    +0.028 C  
DOCKED: BRANCH  51  52
DOCKED: ATOM     52  C18 UNL     1       8.361  -8.826   2.547 +0.00 -0.00    -0.015 C  
DOCKED: ATOM     53  C19 UNL     1       7.145  -8.193   3.226 +0.00 +0.00    +0.007 C  
DOCKED: ATOM     54  C20 UNL     1       9.289  -9.423   3.610 +0.00 +0.00    +0.007 C  
DOCKED: ENDBRANCH  51  52
DOCKED: ENDBRANCH   1  51
DOCKED: TORSDOF 22
DOCKED: TER
DOCKED: ENDMDL
________________________________________________________________________________


    FINAL DOCKED STATE:
    ________________________


Run:   13 / 20
Time taken for this run:   1.691s

DOCKED: MODEL        13
DOCKED: USER    Run = 13
DOCKED: USER
DOCKED: USER    Estimated Free Energy of Binding    =  +6.56 kcal/mol  [=(1)+(2)+(3)-(4)]
DOCKED: USER
DOCKED: USER    (1) Final Intermolecular Energy     =  +0.00 kcal/mol
DOCKED: USER        vdW + Hbond + desolv Energy     =  +0.00 kcal/mol
DOCKED: USER        Electrostatic Energy            =  +0.00 kcal/mol
DOCKED: USER        Moving Ligand-Fixed Receptor    =  +0.00 kcal/mol
DOCKED: USER        Moving Ligand-Moving Receptor   =  +0.00 kcal/mol
DOCKED: USER    (2) Final Total Internal Energy     = -14.45 kcal/mol
DOCKED: USER    (3) Torsional Free Energy           =  +6.56 kcal/mol
DOCKED: USER    (4) Unbound System's Energy         = -14.45 kcal/mol
DOCKED: USER
DOCKED: USER
DOCKED: REMARK  Name = ligands/ligand_47.pdb
DOCKED: REMARK  32 active torsions:
DOCKED: REMARK  status: ('A' for Active; 'I' for Inactive)
DOCKED: REMARK    1  A    between atoms: C1_1  and  S1_2
DOCKED: REMARK    2  A    between atoms: S1_2  and  C2_3
DOCKED: REMARK    3  A    between atoms: C2_3  and  C3_4
DOCKED: REMARK    4  A    between atoms: C3_4  and  C4_5
DOCKED: REMARK    5  A    between atoms: C4_5  and  N1_6
DOCKED: REMARK    6  A    between atoms: C4_5  and  C15_21
DOCKED: REMARK    7  A    between atoms: C5_7  and  C6_9
DOCKED: REMARK    8  A    between atoms: C6_9  and  N2_10
DOCKED: REMARK    9  A    between atoms: C6_9  and  C12_18
DOCKED: REMARK   10  A    between atoms: C7_11  and  O3_13
DOCKED: REMARK   11  A    between atoms: O3_13  and  C8_14
DOCKED: REMARK   12  A    between atoms: C8_14  and  C9_15
DOCKED: REMARK   13  A    between atoms: C8_14  and  C10_16
DOCKED: REMARK   14  A    between atoms: C8_14  and  C11_17
DOCKED: REMARK   15  A    between atoms: C12_18  and  C13_19
DOCKED: REMARK   16  A    between atoms: C12_18  and  C14_20
DOCKED: REMARK   17  A    between atoms: N3_23  and  C16_24
DOCKED: REMARK   18  A    between atoms: C16_24  and  C17_25
DOCKED: REMARK   19  A    between atoms: C16_24  and  C21_29
DOCKED: REMARK   20  A    between atoms: C17_25  and  C18_26
DOCKED: REMARK   21  A    between atoms: C18_26  and  C19_27
DOCKED: REMARK   22  A    between atoms: C18_26  and  C20_28
DOCKED: REMARK   23  A    between atoms: C21_29  and  O5_30
DOCKED: REMARK   24  A    between atoms: C21_29  and  C22_31
DOCKED: REMARK   25  A    between atoms: C22_31  and  C23_32
DOCKED: REMARK   26  A    between atoms: N4_34  and  C24_35
DOCKED: REMARK   27  A    between atoms: C24_35  and  C25_36
DOCKED: REMARK   28  A    between atoms: C24_35  and  C33_46
DOCKED: REMARK   29  A    between atoms: N5_38  and  C26_39
DOCKED: REMARK   30  A    between atoms: C26_39  and  C27_40
DOCKED: REMARK   31  A    between atoms: C33_46  and  C34_47
DOCKED: REMARK   32  A    between atoms: C33_46  and  C35_48
DOCKED: REMARK                            x       y       z     vdW  Elec       q    Type
DOCKED: REMARK                         _______ _______ _______ _____ _____    ______ ____
DOCKED: USER                              x       y       z     vdW  Elec       q    Type
DOCKED: USER                           _______ _______ _______ _____ _____    ______ ____
DOCKED: ROOT
DOCKED: ATOM      1  C16 UNL     1      13.580  -5.534   2.491 +0.00 +0.00    +0.102 C  
DOCKED: ENDROOT
DOCKED: BRANCH   1   4
DOCKED: ATOM      2  C15 UNL     1      12.263  -7.641   2.571 +0.00 +0.00    +0.234 C  
DOCKED: ATOM      3  O4  UNL     1      11.198  -7.013   2.610 +0.00 -0.00    -0.274 OA 
DOCKED: ATOM      4  N3  UNL     1      13.476  -7.002   2.501 +0.00 -0.00    -0.308 N  
DOCKED: ATOM      5  H28 UNL     1      14.322  -7.490   2.767 +0.00 +0.00    +0.149 HD 
DOCKED: BRANCH   2   6
DOCKED: ATOM      6  C4  UNL     1      12.279  -9.188   2.699 +0.00 +0.00    +0.160 C  
DOCKED: BRANCH   6   7
DOCKED: ATOM      7  N1  UNL     1      13.440  -9.676   1.941 +0.00 -0.00    -0.302 N  
DOCKED: ATOM      8  C5  UNL     1      14.731  -9.511   2.416 +0.00 +0.00    +0.234 C  
DOCKED: ATOM      9  O1  UNL     1      14.990  -9.115   3.552 +0.00 -0.00    -0.274 OA 
DOCKED: ATOM     10  H9  UNL     1      13.347  -9.573   0.936 +0.00 +0.00    +0.150 HD 
DOCKED: BRANCH   8  11
DOCKED: ATOM     11  C6  UNL     1      15.833  -9.942   1.422 +0.00 +0.00    +0.165 C  
DOCKED: BRANCH  11  12
DOCKED: ATOM     12  N2  UNL     1      16.142  -8.778   0.601 +0.00 -0.00    -0.270 N  
DOCKED: ATOM     13  C7  UNL     1      16.514  -7.586   1.135 +0.00 +0.00    +0.401 C  
DOCKED: ATOM     14  O2  UNL     1      16.424  -7.293   2.317 +0.00 -0.00    -0.226 OA 
DOCKED: ATOM     15  H11 UNL     1      16.471  -8.948  -0.343 +0.00 +0.00    +0.153 HD 
DOCKED: BRANCH  13  16
DOCKED: ATOM     16  O3  UNL     1      17.005  -6.802   0.150 +0.00 -0.00    -0.445 OA 
DOCKED: BRANCH  16  17
DOCKED: ATOM     17  C8  UNL     1      18.327  -6.215   0.266 +0.00 +0.00    +0.107 C  
DOCKED: ATOM     18  C9  UNL     1      18.707  -5.832  -1.173 +0.00 +0.00    +0.055 C  
DOCKED: ATOM     19  C10 UNL     1      18.309  -4.947   1.129 +0.00 +0.00    +0.055 C  
DOCKED: ATOM     20  C11 UNL     1      19.351  -7.238   0.778 +0.00 +0.00    +0.055 C  
DOCKED: ENDBRANCH  16  17
DOCKED: ENDBRANCH  13  16
DOCKED: ENDBRANCH  11  12
DOCKED: BRANCH  11  21
DOCKED: ATOM     21  C12 UNL     1      17.110 -10.481   2.105 +0.00 +0.00    +0.012 C  
DOCKED: ATOM     22  C13 UNL     1      18.337 -10.414   1.191 +0.00 +0.00    +0.009 C  
DOCKED: ATOM     23  C14 UNL     1      16.943 -11.905   2.648 +0.00 +0.00    +0.009 C  
DOCKED: ENDBRANCH  11  21
DOCKED: ENDBRANCH   8  11
DOCKED: ENDBRANCH   6   7
DOCKED: BRANCH   6  24
DOCKED: ATOM     24  C3  UNL     1      12.216  -9.768   4.119 +0.00 +0.00    +0.042 C  
DOCKED: BRANCH  24  25
DOCKED: ATOM     25  C2  UNL     1      11.446  -8.845   5.060 +0.00 +0.00    +0.071 C  
DOCKED: BRANCH  25  27
DOCKED: ATOM     26  C1  UNL     1      11.957  -6.215   5.832 +0.00 +0.00    +0.084 C  
DOCKED: ATOM     27  S1  UNL     1      12.545  -7.898   6.166 +0.00 -0.00    -0.164 S  
DOCKED: ENDBRANCH  25  27
DOCKED: ENDBRANCH  24  25
DOCKED: ENDBRANCH   6  24
DOCKED: ENDBRANCH   2   6
DOCKED: ENDBRANCH   1   4
DOCKED: BRANCH   1  28
DOCKED: ATOM     28  C21 UNL     1      14.440  -5.084   3.715 +0.00 +0.00    +0.143 C  
DOCKED: BRANCH  28  29
DOCKED: ATOM     29  O5  UNL     1      14.872  -6.207   4.491 +0.00 -0.00    -0.389 OA 
DOCKED: ATOM     30  H40 UNL     1      15.044  -6.950   3.870 +0.00 +0.00    +0.210 HD 
DOCKED: ENDBRANCH  28  29
DOCKED: BRANCH  28  31
DOCKED: ATOM     31  C22 UNL     1      15.588  -4.131   3.381 +0.00 +0.00    +0.129 C  
DOCKED: BRANCH  31  32
DOCKED: ATOM     32  C23 UNL     1      16.845  -4.381   4.180 +0.00 +0.00    +0.216 C  
DOCKED: ATOM     33  O6  UNL     1      17.315  -3.527   4.937 +0.00 -0.00    -0.276 OA 
DOCKED: ATOM     34  N4  UNL     1      17.421  -5.611   3.949 +0.00 -0.00    -0.304 N  
DOCKED: ATOM     35  H43 UNL     1      16.809  -6.325   3.561 +0.00 +0.00    +0.149 HD 
DOCKED: BRANCH  34  36
DOCKED: ATOM     36  C24 UNL     1      18.440  -6.144   4.867 +0.00 +0.00    +0.161 C  
DOCKED: BRANCH  36  37
DOCKED: ATOM     37  C25 UNL     1      17.666  -6.980   5.913 +0.00 +0.00    +0.234 C  
DOCKED: ATOM     38  O7  UNL     1      17.954  -6.937   7.110 +0.00 -0.00    -0.274 OA 
DOCKED: ATOM     39  N5  UNL     1      16.625  -7.733   5.419 +0.00 -0.00    -0.310 N  
DOCKED: ATOM     40  H45 UNL     1      16.420  -7.731   4.433 +0.00 +0.00    +0.149 HD 
DOCKED: BRANCH  39  41
DOCKED: ATOM     41  C26 UNL     1      15.796  -8.555   6.273 +0.00 +0.00    +0.139 C  
DOCKED: BRANCH  41  42
DOCKED: ATOM     42  C27 UNL     1      16.139 -10.017   6.136 +0.00 -0.00    -0.030 A  
DOCKED: ATOM     43  C28 UNL     1      15.135 -10.983   5.968 +0.00 +0.00    +0.005 A  
DOCKED: ATOM     44  C29 UNL     1      15.472 -12.330   5.793 +0.00 +0.00    +0.000 A  
DOCKED: ATOM     45  C30 UNL     1      16.807 -12.724   5.798 +0.00 +0.00    +0.000 A  
DOCKED: ATOM     46  C31 UNL     1      17.809 -11.772   5.980 +0.00 +0.00    +0.000 A  
DOCKED: ATOM     47  C32 UNL     1      17.477 -10.427   6.152 +0.00 +0.00    +0.005 A  
DOCKED: ENDBRANCH  41  42
DOCKED: ENDBRANCH  39  41
DOCKED: ENDBRANCH  36  37
DOCKED: BRANCH  36  48
DOCKED: ATOM     48  C33 UNL     1      19.507  -6.946   4.088 +0.00 +0.00    +0.012 C  
DOCKED: ATOM     49  C34 UNL     1      19.160  -8.431   3.927 +0.00 +0.00    +0.009 C  
DOCKED: ATOM     50  C35 UNL     1      20.905  -6.802   4.690 +0.00 +0.00    +0.009 C  
DOCKED: ENDBRANCH  36  48
DOCKED: ENDBRANCH  34  36
DOCKED: ENDBRANCH  31  32
DOCKED: ENDBRANCH  28  31
DOCKED: ENDBRANCH   1  28
DOCKED: BRANCH   1  51
DOCKED: ATOM     51  C17 UNL     1      14.121  -5.085   1.118 +0.00 +0.00    +0.028 C  
DOCKED: BRANCH  51  52
DOCKED: ATOM     52  C18 UNL     1      13.801  -6.038  -0.054 +0.00 -0.00    -0.015 C  
DOCKED: ATOM     53  C19 UNL     1      12.311  -6.066  -0.399 +0.00 +0.00    +0.007 C  
DOCKED: ATOM     54  C20 UNL     1      14.605  -5.627  -1.292 +0.00 +0.00    +0.007 C  
DOCKED: ENDBRANCH  51  52
DOCKED: ENDBRANCH   1  51
DOCKED: TORSDOF 22
DOCKED: TER
DOCKED: ENDMDL
________________________________________________________________________________


    FINAL DOCKED STATE:
    ________________________


Run:   14 / 20
Time taken for this run:   1.691s

DOCKED: MODEL        14
DOCKED: USER    Run = 14
DOCKED: USER
DOCKED: USER    Estimated Free Energy of Binding    =  +6.56 kcal/mol  [=(1)+(2)+(3)-(4)]
DOCKED: USER
DOCKED: USER    (1) Final Intermolecular Energy     =  +0.00 kcal/mol
DOCKED: USER        vdW + Hbond + desolv Energy     =  +0.00 kcal/mol
DOCKED: USER        Electrostatic Energy            =  +0.00 kcal/mol
DOCKED: USER        Moving Ligand-Fixed Receptor    =  +0.00 kcal/mol
DOCKED: USER        Moving Ligand-Moving Receptor   =  +0.00 kcal/mol
DOCKED: USER    (2) Final Total Internal Energy     = -14.04 kcal/mol
DOCKED: USER    (3) Torsional Free Energy           =  +6.56 kcal/mol
DOCKED: USER    (4) Unbound System's Energy         = -14.04 kcal/mol
DOCKED: USER
DOCKED: USER
DOCKED: REMARK  Name = ligands/ligand_47.pdb
DOCKED: REMARK  32 active torsions:
DOCKED: REMARK  status: ('A' for Active; 'I' for Inactive)
DOCKED: REMARK    1  A    between atoms: C1_1  and  S1_2
DOCKED: REMARK    2  A    between atoms: S1_2  and  C2_3
DOCKED: REMARK    3  A    between atoms: C2_3  and  C3_4
DOCKED: REMARK    4  A    between atoms: C3_4  and  C4_5
DOCKED: REMARK    5  A    between atoms: C4_5  and  N1_6
DOCKED: REMARK    6  A    between atoms: C4_5  and  C15_21
DOCKED: REMARK    7  A    between atoms: C5_7  and  C6_9
DOCKED: REMARK    8  A    between atoms: C6_9  and  N2_10
DOCKED: REMARK    9  A    between atoms: C6_9  and  C12_18
DOCKED: REMARK   10  A    between atoms: C7_11  and  O3_13
DOCKED: REMARK   11  A    between atoms: O3_13  and  C8_14
DOCKED: REMARK   12  A    between atoms: C8_14  and  C9_15
DOCKED: REMARK   13  A    between atoms: C8_14  and  C10_16
DOCKED: REMARK   14  A    between atoms: C8_14  and  C11_17
DOCKED: REMARK   15  A    between atoms: C12_18  and  C13_19
DOCKED: REMARK   16  A    between atoms: C12_18  and  C14_20
DOCKED: REMARK   17  A    between atoms: N3_23  and  C16_24
DOCKED: REMARK   18  A    between atoms: C16_24  and  C17_25
DOCKED: REMARK   19  A    between atoms: C16_24  and  C21_29
DOCKED: REMARK   20  A    between atoms: C17_25  and  C18_26
DOCKED: REMARK   21  A    between atoms: C18_26  and  C19_27
DOCKED: REMARK   22  A    between atoms: C18_26  and  C20_28
DOCKED: REMARK   23  A    between atoms: C21_29  and  O5_30
DOCKED: REMARK   24  A    between atoms: C21_29  and  C22_31
DOCKED: REMARK   25  A    between atoms: C22_31  and  C23_32
DOCKED: REMARK   26  A    between atoms: N4_34  and  C24_35
DOCKED: REMARK   27  A    between atoms: C24_35  and  C25_36
DOCKED: REMARK   28  A    between atoms: C24_35  and  C33_46
DOCKED: REMARK   29  A    between atoms: N5_38  and  C26_39
DOCKED: REMARK   30  A    between atoms: C26_39  and  C27_40
DOCKED: REMARK   31  A    between atoms: C33_46  and  C34_47
DOCKED: REMARK   32  A    between atoms: C33_46  and  C35_48
DOCKED: REMARK                            x       y       z     vdW  Elec       q    Type
DOCKED: REMARK                         _______ _______ _______ _____ _____    ______ ____
DOCKED: USER                              x       y       z     vdW  Elec       q    Type
DOCKED: USER                           _______ _______ _______ _____ _____    ______ ____
DOCKED: ROOT
DOCKED: ATOM      1  C16 UNL     1      12.514  -2.451   0.735 +0.00 +0.00    +0.102 C  
DOCKED: ENDROOT
DOCKED: BRANCH   1   4
DOCKED: ATOM      2  C15 UNL     1      11.668  -4.786   0.838 +0.00 +0.00    +0.234 C  
DOCKED: ATOM      3  O4  UNL     1      10.499  -4.403   0.711 +0.00 -0.00    -0.274 OA 
DOCKED: ATOM      4  N3  UNL     1      12.720  -3.903   0.850 +0.00 -0.00    -0.308 N  
DOCKED: ATOM      5  H28 UNL     1      13.610  -4.181   1.244 +0.00 +0.00    +0.149 HD 
DOCKED: BRANCH   2   6
DOCKED: ATOM      6  C4  UNL     1      11.992  -6.284   1.090 +0.00 +0.00    +0.160 C  
DOCKED: BRANCH   6   7
DOCKED: ATOM      7  N1  UNL     1      13.265  -6.337   1.822 +0.00 -0.00    -0.302 N  
DOCKED: ATOM      8  C5  UNL     1      13.417  -5.715   3.049 +0.00 +0.00    +0.234 C  
DOCKED: ATOM      9  O1  UNL     1      12.480  -5.232   3.686 +0.00 -0.00    -0.274 OA 
DOCKED: ATOM     10  H9  UNL     1      14.084  -6.292   1.225 +0.00 +0.00    +0.150 HD 
DOCKED: BRANCH   8  11
DOCKED: ATOM     11  C6  UNL     1      14.860  -5.740   3.600 +0.00 +0.00    +0.165 C  
DOCKED: BRANCH  11  12
DOCKED: ATOM     12  N2  UNL     1      15.546  -4.577   3.049 +0.00 -0.00    -0.270 N  
DOCKED: ATOM     13  C7  UNL     1      15.711  -4.394   1.713 +0.00 +0.00    +0.401 C  
DOCKED: ATOM     14  O2  UNL     1      15.514  -5.247   0.863 +0.00 -0.00    -0.226 OA 
DOCKED: ATOM     15  H11 UNL     1      15.542  -3.728   3.602 +0.00 +0.00    +0.153 HD 
DOCKED: BRANCH  13  16
DOCKED: ATOM     16  O3  UNL     1      16.112  -3.122   1.495 +0.00 -0.00    -0.445 OA 
DOCKED: BRANCH  16  17
DOCKED: ATOM     17  C8  UNL     1      16.947  -2.798   0.353 +0.00 +0.00    +0.107 C  
DOCKED: ATOM     18  C9  UNL     1      18.293  -3.478   0.654 +0.00 +0.00    +0.055 C  
DOCKED: ATOM     19  C10 UNL     1      16.376  -3.378  -0.947 +0.00 +0.00    +0.055 C  
DOCKED: ATOM     20  C11 UNL     1      17.185  -1.285   0.247 +0.00 +0.00    +0.055 C  
DOCKED: ENDBRANCH  16  17
DOCKED: ENDBRANCH  13  16
DOCKED: ENDBRANCH  11  12
DOCKED: BRANCH  11  21
DOCKED: ATOM     21  C12 UNL     1      14.938  -5.736   5.144 +0.00 +0.00    +0.012 C  
DOCKED: ATOM     22  C13 UNL     1      16.358  -5.981   5.660 +0.00 +0.00    +0.009 C  
DOCKED: ATOM     23  C14 UNL     1      13.969  -6.731   5.793 +0.00 +0.00    +0.009 C  
DOCKED: ENDBRANCH  11  21
DOCKED: ENDBRANCH   8  11
DOCKED: ENDBRANCH   6   7
DOCKED: BRANCH   6  24
DOCKED: ATOM     24  C3  UNL     1      10.895  -7.129   1.753 +0.00 +0.00    +0.042 C  
DOCKED: BRANCH  24  25
DOCKED: ATOM     25  C2  UNL     1       9.882  -7.627   0.725 +0.00 +0.00    +0.071 C  
DOCKED: BRANCH  25  27
DOCKED: ATOM     26  C1  UNL     1       9.633  -6.269  -1.698 +0.00 +0.00    +0.084 C  
DOCKED: ATOM     27  S1  UNL     1      10.558  -7.648  -0.969 +0.00 -0.00    -0.164 S  
DOCKED: ENDBRANCH  25  27
DOCKED: ENDBRANCH  24  25
DOCKED: ENDBRANCH   6  24
DOCKED: ENDBRANCH   2   6
DOCKED: ENDBRANCH   1   4
DOCKED: BRANCH   1  28
DOCKED: ATOM     28  C21 UNL     1      12.970  -1.773   2.067 +0.00 +0.00    +0.143 C  
DOCKED: BRANCH  28  29
DOCKED: ATOM     29  O5  UNL     1      13.702  -2.685   2.892 +0.00 -0.00    -0.389 OA 
DOCKED: ATOM     30  H40 UNL     1      13.058  -3.320   3.279 +0.00 +0.00    +0.210 HD 
DOCKED: ENDBRANCH  28  29
DOCKED: BRANCH  28  31
DOCKED: ATOM     31  C22 UNL     1      13.689  -0.434   1.897 +0.00 +0.00    +0.129 C  
DOCKED: BRANCH  31  32
DOCKED: ATOM     32  C23 UNL     1      14.674  -0.123   2.998 +0.00 +0.00    +0.216 C  
DOCKED: ATOM     33  O6  UNL     1      14.501   0.818   3.777 +0.00 -0.00    -0.276 OA 
DOCKED: ATOM     34  N4  UNL     1      15.776  -0.950   3.016 +0.00 -0.00    -0.304 N  
DOCKED: ATOM     35  H43 UNL     1      15.669  -1.847   2.547 +0.00 +0.00    +0.149 HD 
DOCKED: BRANCH  34  36
DOCKED: ATOM     36  C24 UNL     1      16.652  -1.003   4.197 +0.00 +0.00    +0.161 C  
DOCKED: BRANCH  36  37
DOCKED: ATOM     37  C25 UNL     1      15.890  -1.844   5.247 +0.00 +0.00    +0.234 C  
DOCKED: ATOM     38  O7  UNL     1      16.216  -3.004   5.500 +0.00 -0.00    -0.274 OA 
DOCKED: ATOM     39  N5  UNL     1      14.861  -1.196   5.894 +0.00 -0.00    -0.310 N  
DOCKED: ATOM     40  H45 UNL     1      14.635  -0.243   5.660 +0.00 +0.00    +0.149 HD 
DOCKED: BRANCH  39  41
DOCKED: ATOM     41  C26 UNL     1      14.065  -1.842   6.913 +0.00 +0.00    +0.139 C  
DOCKED: BRANCH  41  42
DOCKED: ATOM     42  C27 UNL     1      12.810  -2.446   6.335 +0.00 -0.00    -0.030 A  
DOCKED: ATOM     43  C28 UNL     1      12.098  -1.796   5.316 +0.00 +0.00    +0.005 A  
DOCKED: ATOM     44  C29 UNL     1      10.962  -2.393   4.755 +0.00 +0.00    +0.000 A  
DOCKED: ATOM     45  C30 UNL     1      10.523  -3.631   5.215 +0.00 +0.00    +0.000 A  
DOCKED: ATOM     46  C31 UNL     1      11.217  -4.275   6.238 +0.00 +0.00    +0.000 A  
DOCKED: ATOM     47  C32 UNL     1      12.350  -3.684   6.797 +0.00 +0.00    +0.005 A  
DOCKED: ENDBRANCH  41  42
DOCKED: ENDBRANCH  39  41
DOCKED: ENDBRANCH  36  37
DOCKED: BRANCH  36  48
DOCKED: ATOM     48  C33 UNL     1      18.038  -1.575   3.820 +0.00 +0.00    +0.012 C  
DOCKED: ATOM     49  C34 UNL     1      18.852  -2.052   5.029 +0.00 +0.00    +0.009 C  
DOCKED: ATOM     50  C35 UNL     1      18.869  -0.599   2.986 +0.00 +0.00    +0.009 C  
DOCKED: ENDBRANCH  36  48
DOCKED: ENDBRANCH  34  36
DOCKED: ENDBRANCH  31  32
DOCKED: ENDBRANCH  28  31
DOCKED: ENDBRANCH   1  28
DOCKED: BRANCH   1  51
DOCKED: ATOM     51  C17 UNL     1      13.240  -1.948  -0.530 +0.00 +0.00    +0.028 C  
DOCKED: BRANCH  51  52
DOCKED: ATOM     52  C18 UNL     1      12.716  -2.528  -1.861 +0.00 -0.00    -0.015 C  
DOCKED: ATOM     53  C19 UNL     1      13.272  -3.923  -2.154 +0.00 +0.00    +0.007 C  
DOCKED: ATOM     54  C20 UNL     1      11.185  -2.583  -1.836 +0.00 +0.00    +0.007 C  
DOCKED: ENDBRANCH  51  52
DOCKED: ENDBRANCH   1  51
DOCKED: TORSDOF 22
DOCKED: TER
DOCKED: ENDMDL
________________________________________________________________________________


    FINAL DOCKED STATE:
    ________________________


Run:   15 / 20
Time taken for this run:   1.691s

DOCKED: MODEL        15
DOCKED: USER    Run = 15
DOCKED: USER
DOCKED: USER    Estimated Free Energy of Binding    =  +6.56 kcal/mol  [=(1)+(2)+(3)-(4)]
DOCKED: USER
DOCKED: USER    (1) Final Intermolecular Energy     =  +0.00 kcal/mol
DOCKED: USER        vdW + Hbond + desolv Energy     =  +0.00 kcal/mol
DOCKED: USER        Electrostatic Energy            =  +0.00 kcal/mol
DOCKED: USER        Moving Ligand-Fixed Receptor    =  +0.00 kcal/mol
DOCKED: USER        Moving Ligand-Moving Receptor   =  +0.00 kcal/mol
DOCKED: USER    (2) Final Total Internal Energy     = -14.31 kcal/mol
DOCKED: USER    (3) Torsional Free Energy           =  +6.56 kcal/mol
DOCKED: USER    (4) Unbound System's Energy         = -14.31 kcal/mol
DOCKED: USER
DOCKED: USER
DOCKED: REMARK  Name = ligands/ligand_47.pdb
DOCKED: REMARK  32 active torsions:
DOCKED: REMARK  status: ('A' for Active; 'I' for Inactive)
DOCKED: REMARK    1  A    between atoms: C1_1  and  S1_2
DOCKED: REMARK    2  A    between atoms: S1_2  and  C2_3
DOCKED: REMARK    3  A    between atoms: C2_3  and  C3_4
DOCKED: REMARK    4  A    between atoms: C3_4  and  C4_5
DOCKED: REMARK    5  A    between atoms: C4_5  and  N1_6
DOCKED: REMARK    6  A    between atoms: C4_5  and  C15_21
DOCKED: REMARK    7  A    between atoms: C5_7  and  C6_9
DOCKED: REMARK    8  A    between atoms: C6_9  and  N2_10
DOCKED: REMARK    9  A    between atoms: C6_9  and  C12_18
DOCKED: REMARK   10  A    between atoms: C7_11  and  O3_13
DOCKED: REMARK   11  A    between atoms: O3_13  and  C8_14
DOCKED: REMARK   12  A    between atoms: C8_14  and  C9_15
DOCKED: REMARK   13  A    between atoms: C8_14  and  C10_16
DOCKED: REMARK   14  A    between atoms: C8_14  and  C11_17
DOCKED: REMARK   15  A    between atoms: C12_18  and  C13_19
DOCKED: REMARK   16  A    between atoms: C12_18  and  C14_20
DOCKED: REMARK   17  A    between atoms: N3_23  and  C16_24
DOCKED: REMARK   18  A    between atoms: C16_24  and  C17_25
DOCKED: REMARK   19  A    between atoms: C16_24  and  C21_29
DOCKED: REMARK   20  A    between atoms: C17_25  and  C18_26
DOCKED: REMARK   21  A    between atoms: C18_26  and  C19_27
DOCKED: REMARK   22  A    between atoms: C18_26  and  C20_28
DOCKED: REMARK   23  A    between atoms: C21_29  and  O5_30
DOCKED: REMARK   24  A    between atoms: C21_29  and  C22_31
DOCKED: REMARK   25  A    between atoms: C22_31  and  C23_32
DOCKED: REMARK   26  A    between atoms: N4_34  and  C24_35
DOCKED: REMARK   27  A    between atoms: C24_35  and  C25_36
DOCKED: REMARK   28  A    between atoms: C24_35  and  C33_46
DOCKED: REMARK   29  A    between atoms: N5_38  and  C26_39
DOCKED: REMARK   30  A    between atoms: C26_39  and  C27_40
DOCKED: REMARK   31  A    between atoms: C33_46  and  C34_47
DOCKED: REMARK   32  A    between atoms: C33_46  and  C35_48
DOCKED: REMARK                            x       y       z     vdW  Elec       q    Type
DOCKED: REMARK                         _______ _______ _______ _____ _____    ______ ____
DOCKED: USER                              x       y       z     vdW  Elec       q    Type
DOCKED: USER                           _______ _______ _______ _____ _____    ______ ____
DOCKED: ROOT
DOCKED: ATOM      1  C16 UNL     1       8.480  -8.885  -0.513 +0.00 +0.00    +0.102 C  
DOCKED: ENDROOT
DOCKED: BRANCH   1   4
DOCKED: ATOM      2  C15 UNL     1       7.805  -7.065   1.039 +0.00 +0.00    +0.234 C  
DOCKED: ATOM      3  O4  UNL     1       8.066  -7.764   2.025 +0.00 -0.00    -0.274 OA 
DOCKED: ATOM      4  N3  UNL     1       7.986  -7.526  -0.242 +0.00 -0.00    -0.308 N  
DOCKED: ATOM      5  H28 UNL     1       7.504  -7.082  -1.013 +0.00 +0.00    +0.149 HD 
DOCKED: BRANCH   2   6
DOCKED: ATOM      6  C4  UNL     1       7.163  -5.661   1.206 +0.00 +0.00    +0.160 C  
DOCKED: BRANCH   6   7
DOCKED: ATOM      7  N1  UNL     1       6.421  -5.371  -0.029 +0.00 -0.00    -0.302 N  
DOCKED: ATOM      8  C5  UNL     1       5.440  -6.229  -0.497 +0.00 +0.00    +0.234 C  
DOCKED: ATOM      9  O1  UNL     1       5.003  -7.179   0.152 +0.00 -0.00    -0.274 OA 
DOCKED: ATOM     10  H9  UNL     1       6.984  -4.942  -0.755 +0.00 +0.00    +0.150 HD 
DOCKED: BRANCH   8  11
DOCKED: ATOM     11  C6  UNL     1       4.874  -5.850  -1.884 +0.00 +0.00    +0.165 C  
DOCKED: BRANCH  11  12
DOCKED: ATOM     12  N2  UNL     1       5.695  -6.531  -2.878 +0.00 -0.00    -0.270 N  
DOCKED: ATOM     13  C7  UNL     1       7.031  -6.316  -2.990 +0.00 +0.00    +0.401 C  
DOCKED: ATOM     14  O2  UNL     1       7.640  -5.406  -2.450 +0.00 -0.00    -0.226 OA 
DOCKED: ATOM     15  H11 UNL     1       5.375  -7.435  -3.206 +0.00 +0.00    +0.153 HD 
DOCKED: BRANCH  13  16
DOCKED: ATOM     16  O3  UNL     1       7.561  -7.276  -3.781 +0.00 -0.00    -0.445 OA 
DOCKED: BRANCH  16  17
DOCKED: ATOM     17  C8  UNL     1       8.729  -6.998  -4.595 +0.00 +0.00    +0.107 C  
DOCKED: ATOM     18  C9  UNL     1       9.197  -8.379  -5.082 +0.00 +0.00    +0.055 C  
DOCKED: ATOM     19  C10 UNL     1       8.377  -6.135  -5.814 +0.00 +0.00    +0.055 C  
DOCKED: ATOM     20  C11 UNL     1       9.856  -6.373  -3.761 +0.00 +0.00    +0.055 C  
DOCKED: ENDBRANCH  16  17
DOCKED: ENDBRANCH  13  16
DOCKED: ENDBRANCH  11  12
DOCKED: BRANCH  11  21
DOCKED: ATOM     21  C12 UNL     1       3.383  -6.212  -2.069 +0.00 +0.00    +0.012 C  
DOCKED: ATOM     22  C13 UNL     1       2.792  -5.626  -3.353 +0.00 +0.00    +0.009 C  
DOCKED: ATOM     23  C14 UNL     1       2.518  -5.812  -0.868 +0.00 +0.00    +0.009 C  
DOCKED: ENDBRANCH  11  21
DOCKED: ENDBRANCH   8  11
DOCKED: ENDBRANCH   6   7
DOCKED: BRANCH   6  24
DOCKED: ATOM     24  C3  UNL     1       6.321  -5.428   2.468 +0.00 +0.00    +0.042 C  
DOCKED: BRANCH  24  25
DOCKED: ATOM     25  C2  UNL     1       5.262  -4.353   2.237 +0.00 +0.00    +0.071 C  
DOCKED: BRANCH  25  27
DOCKED: ATOM     26  C1  UNL     1       3.884  -6.589   3.173 +0.00 +0.00    +0.084 C  
DOCKED: ATOM     27  S1  UNL     1       3.563  -5.011   2.339 +0.00 -0.00    -0.164 S  
DOCKED: ENDBRANCH  25  27
DOCKED: ENDBRANCH  24  25
DOCKED: ENDBRANCH   6  24
DOCKED: ENDBRANCH   2   6
DOCKED: ENDBRANCH   1   4
DOCKED: BRANCH   1  28
DOCKED: ATOM     28  C21 UNL     1       7.361  -9.687  -1.251 +0.00 +0.00    +0.143 C  
DOCKED: BRANCH  28  29
DOCKED: ATOM     29  O5  UNL     1       6.326  -8.821  -1.727 +0.00 -0.00    -0.389 OA 
DOCKED: ATOM     30  H40 UNL     1       5.759  -8.582  -0.960 +0.00 +0.00    +0.210 HD 
DOCKED: ENDBRANCH  28  29
DOCKED: BRANCH  28  31
DOCKED: ATOM     31  C22 UNL     1       7.861 -10.647  -2.332 +0.00 +0.00    +0.129 C  
DOCKED: BRANCH  31  32
DOCKED: ATOM     32  C23 UNL     1       6.874 -10.877  -3.451 +0.00 +0.00    +0.216 C  
DOCKED: ATOM     33  O6  UNL     1       6.361 -11.982  -3.648 +0.00 -0.00    -0.276 OA 
DOCKED: ATOM     34  N4  UNL     1       6.644  -9.767  -4.234 +0.00 -0.00    -0.304 N  
DOCKED: ATOM     35  H43 UNL     1       6.868  -8.869  -3.813 +0.00 +0.00    +0.149 HD 
DOCKED: BRANCH  34  36
DOCKED: ATOM     36  C24 UNL     1       5.488  -9.718  -5.143 +0.00 +0.00    +0.161 C  
DOCKED: BRANCH  36  37
DOCKED: ATOM     37  C25 UNL     1       4.260  -9.437  -4.245 +0.00 +0.00    +0.234 C  
DOCKED: ATOM     38  O7  UNL     1       3.714  -8.333  -4.231 +0.00 -0.00    -0.274 OA 
DOCKED: ATOM     39  N5  UNL     1       3.809 -10.505  -3.504 +0.00 -0.00    -0.310 N  
DOCKED: ATOM     40  H45 UNL     1       4.282 -11.393  -3.553 +0.00 +0.00    +0.149 HD 
DOCKED: BRANCH  39  41
DOCKED: ATOM     41  C26 UNL     1       2.663 -10.406  -2.629 +0.00 +0.00    +0.139 C  
DOCKED: BRANCH  41  42
DOCKED: ATOM     42  C27 UNL     1       3.076 -10.146  -1.202 +0.00 -0.00    -0.030 A  
DOCKED: ATOM     43  C28 UNL     1       4.229 -10.736  -0.664 +0.00 +0.00    +0.005 A  
DOCKED: ATOM     44  C29 UNL     1       4.627 -10.445   0.647 +0.00 +0.00    +0.000 A  
DOCKED: ATOM     45  C30 UNL     1       3.872  -9.578   1.431 +0.00 +0.00    +0.000 A  
DOCKED: ATOM     46  C31 UNL     1       2.717  -9.000   0.907 +0.00 +0.00    +0.000 A  
DOCKED: ATOM     47  C32 UNL     1       2.319  -9.285  -0.399 +0.00 +0.00    +0.005 A  
DOCKED: ENDBRANCH  41  42
DOCKED: ENDBRANCH  39  41
DOCKED: ENDBRANCH  36  37
DOCKED: BRANCH  36  48
DOCKED: ATOM     48  C33 UNL     1       5.711  -8.663  -6.251 +0.00 +0.00    +0.012 C  
DOCKED: ATOM     49  C34 UNL     1       4.432  -8.298  -7.014 +0.00 +0.00    +0.009 C  
DOCKED: ATOM     50  C35 UNL     1       6.806  -9.070  -7.236 +0.00 +0.00    +0.009 C  
DOCKED: ENDBRANCH  36  48
DOCKED: ENDBRANCH  34  36
DOCKED: ENDBRANCH  31  32
DOCKED: ENDBRANCH  28  31
DOCKED: ENDBRANCH   1  28
DOCKED: BRANCH   1  51
DOCKED: ATOM     51  C17 UNL     1       9.816  -8.782  -1.278 +0.00 +0.00    +0.028 C  
DOCKED: BRANCH  51  52
DOCKED: ATOM     52  C18 UNL     1      10.976  -8.140  -0.487 +0.00 -0.00    -0.015 C  
DOCKED: ATOM     53  C19 UNL     1      10.937  -6.611  -0.523 +0.00 +0.00    +0.007 C  
DOCKED: ATOM     54  C20 UNL     1      10.940  -8.620   0.967 +0.00 +0.00    +0.007 C  
DOCKED: ENDBRANCH  51  52
DOCKED: ENDBRANCH   1  51
DOCKED: TORSDOF 22
DOCKED: TER
DOCKED: ENDMDL
________________________________________________________________________________


    FINAL DOCKED STATE:
    ________________________


Run:   16 / 20
Time taken for this run:   1.691s

DOCKED: MODEL        16
DOCKED: USER    Run = 16
DOCKED: USER
DOCKED: USER    Estimated Free Energy of Binding    =  +6.56 kcal/mol  [=(1)+(2)+(3)-(4)]
DOCKED: USER
DOCKED: USER    (1) Final Intermolecular Energy     =  +0.00 kcal/mol
DOCKED: USER        vdW + Hbond + desolv Energy     =  +0.00 kcal/mol
DOCKED: USER        Electrostatic Energy            =  +0.00 kcal/mol
DOCKED: USER        Moving Ligand-Fixed Receptor    =  +0.00 kcal/mol
DOCKED: USER        Moving Ligand-Moving Receptor   =  +0.00 kcal/mol
DOCKED: USER    (2) Final Total Internal Energy     = -14.34 kcal/mol
DOCKED: USER    (3) Torsional Free Energy           =  +6.56 kcal/mol
DOCKED: USER    (4) Unbound System's Energy         = -14.34 kcal/mol
DOCKED: USER
DOCKED: USER
DOCKED: REMARK  Name = ligands/ligand_47.pdb
DOCKED: REMARK  32 active torsions:
DOCKED: REMARK  status: ('A' for Active; 'I' for Inactive)
DOCKED: REMARK    1  A    between atoms: C1_1  and  S1_2
DOCKED: REMARK    2  A    between atoms: S1_2  and  C2_3
DOCKED: REMARK    3  A    between atoms: C2_3  and  C3_4
DOCKED: REMARK    4  A    between atoms: C3_4  and  C4_5
DOCKED: REMARK    5  A    between atoms: C4_5  and  N1_6
DOCKED: REMARK    6  A    between atoms: C4_5  and  C15_21
DOCKED: REMARK    7  A    between atoms: C5_7  and  C6_9
DOCKED: REMARK    8  A    between atoms: C6_9  and  N2_10
DOCKED: REMARK    9  A    between atoms: C6_9  and  C12_18
DOCKED: REMARK   10  A    between atoms: C7_11  and  O3_13
DOCKED: REMARK   11  A    between atoms: O3_13  and  C8_14
DOCKED: REMARK   12  A    between atoms: C8_14  and  C9_15
DOCKED: REMARK   13  A    between atoms: C8_14  and  C10_16
DOCKED: REMARK   14  A    between atoms: C8_14  and  C11_17
DOCKED: REMARK   15  A    between atoms: C12_18  and  C13_19
DOCKED: REMARK   16  A    between atoms: C12_18  and  C14_20
DOCKED: REMARK   17  A    between atoms: N3_23  and  C16_24
DOCKED: REMARK   18  A    between atoms: C16_24  and  C17_25
DOCKED: REMARK   19  A    between atoms: C16_24  and  C21_29
DOCKED: REMARK   20  A    between atoms: C17_25  and  C18_26
DOCKED: REMARK   21  A    between atoms: C18_26  and  C19_27
DOCKED: REMARK   22  A    between atoms: C18_26  and  C20_28
DOCKED: REMARK   23  A    between atoms: C21_29  and  O5_30
DOCKED: REMARK   24  A    between atoms: C21_29  and  C22_31
DOCKED: REMARK   25  A    between atoms: C22_31  and  C23_32
DOCKED: REMARK   26  A    between atoms: N4_34  and  C24_35
DOCKED: REMARK   27  A    between atoms: C24_35  and  C25_36
DOCKED: REMARK   28  A    between atoms: C24_35  and  C33_46
DOCKED: REMARK   29  A    between atoms: N5_38  and  C26_39
DOCKED: REMARK   30  A    between atoms: C26_39  and  C27_40
DOCKED: REMARK   31  A    between atoms: C33_46  and  C34_47
DOCKED: REMARK   32  A    between atoms: C33_46  and  C35_48
DOCKED: REMARK                            x       y       z     vdW  Elec       q    Type
DOCKED: REMARK                         _______ _______ _______ _____ _____    ______ ____
DOCKED: USER                              x       y       z     vdW  Elec       q    Type
DOCKED: USER                           _______ _______ _______ _____ _____    ______ ____
DOCKED: ROOT
DOCKED: ATOM      1  C16 UNL     1       8.357  -5.294   2.722 +0.00 +0.00    +0.102 C  
DOCKED: ENDROOT
DOCKED: BRANCH   1   4
DOCKED: ATOM      2  C15 UNL     1       9.176  -7.641   2.707 +0.00 +0.00    +0.234 C  
DOCKED: ATOM      3  O4  UNL     1       9.071  -7.704   1.476 +0.00 -0.00    -0.274 OA 
DOCKED: ATOM      4  N3  UNL     1       8.859  -6.499   3.401 +0.00 -0.00    -0.308 N  
DOCKED: ATOM      5  H28 UNL     1       8.663  -6.547   4.392 +0.00 +0.00    +0.149 HD 
DOCKED: BRANCH   2   6
DOCKED: ATOM      6  C4  UNL     1       9.579  -8.890   3.536 +0.00 +0.00    +0.160 C  
DOCKED: BRANCH   6   7
DOCKED: ATOM      7  N1  UNL     1       8.877  -8.802   4.824 +0.00 -0.00    -0.302 N  
DOCKED: ATOM      8  C5  UNL     1       7.516  -8.554   4.887 +0.00 +0.00    +0.234 C  
DOCKED: ATOM      9  O1  UNL     1       6.778  -8.561   3.902 +0.00 -0.00    -0.274 OA 
DOCKED: ATOM     10  H9  UNL     1       9.419  -8.358   5.558 +0.00 +0.00    +0.150 HD 
DOCKED: BRANCH   8  11
DOCKED: ATOM     11  C6  UNL     1       6.975  -8.340   6.319 +0.00 +0.00    +0.165 C  
DOCKED: BRANCH  11  12
DOCKED: ATOM     12  N2  UNL     1       7.078  -6.915   6.604 +0.00 -0.00    -0.270 N  
DOCKED: ATOM     13  C7  UNL     1       8.257  -6.242   6.539 +0.00 +0.00    +0.401 C  
DOCKED: ATOM     14  O2  UNL     1       9.356  -6.766   6.457 +0.00 -0.00    -0.226 OA 
DOCKED: ATOM     15  H11 UNL     1       6.251  -6.348   6.455 +0.00 +0.00    +0.153 HD 
DOCKED: BRANCH  13  16
DOCKED: ATOM     16  O3  UNL     1       8.002  -4.915   6.567 +0.00 -0.00    -0.445 OA 
DOCKED: BRANCH  16  17
DOCKED: ATOM     17  C8  UNL     1       8.550  -4.081   7.621 +0.00 +0.00    +0.107 C  
DOCKED: ATOM     18  C9  UNL     1       7.783  -4.502   8.884 +0.00 +0.00    +0.055 C  
DOCKED: ATOM     19  C10 UNL     1      10.045  -4.350   7.834 +0.00 +0.00    +0.055 C  
DOCKED: ATOM     20  C11 UNL     1       8.270  -2.595   7.360 +0.00 +0.00    +0.055 C  
DOCKED: ENDBRANCH  16  17
DOCKED: ENDBRANCH  13  16
DOCKED: ENDBRANCH  11  12
DOCKED: BRANCH  11  21
DOCKED: ATOM     21  C12 UNL     1       5.523  -8.831   6.516 +0.00 +0.00    +0.012 C  
DOCKED: ATOM     22  C13 UNL     1       5.047  -8.692   7.964 +0.00 +0.00    +0.009 C  
DOCKED: ATOM     23  C14 UNL     1       5.308 -10.271   6.034 +0.00 +0.00    +0.009 C  
DOCKED: ENDBRANCH  11  21
DOCKED: ENDBRANCH   8  11
DOCKED: ENDBRANCH   6   7
DOCKED: BRANCH   6  24
DOCKED: ATOM     24  C3  UNL     1       9.403 -10.257   2.861 +0.00 +0.00    +0.042 C  
DOCKED: BRANCH  24  25
DOCKED: ATOM     25  C2  UNL     1       8.918 -11.308   3.857 +0.00 +0.00    +0.071 C  
DOCKED: BRANCH  25  27
DOCKED: ATOM     26  C1  UNL     1       6.962 -11.160   1.876 +0.00 +0.00    +0.084 C  
DOCKED: ATOM     27  S1  UNL     1       7.194 -11.820   3.549 +0.00 -0.00    -0.164 S  
DOCKED: ENDBRANCH  25  27
DOCKED: ENDBRANCH  24  25
DOCKED: ENDBRANCH   6  24
DOCKED: ENDBRANCH   2   6
DOCKED: ENDBRANCH   1   4
DOCKED: BRANCH   1  28
DOCKED: ATOM     28  C21 UNL     1       6.872  -5.061   3.149 +0.00 +0.00    +0.143 C  
DOCKED: BRANCH  28  29
DOCKED: ATOM     29  O5  UNL     1       6.549  -5.793   4.335 +0.00 -0.00    -0.389 OA 
DOCKED: ATOM     30  H40 UNL     1       6.260  -6.693   4.061 +0.00 +0.00    +0.210 HD 
DOCKED: ENDBRANCH  28  29
DOCKED: BRANCH  28  31
DOCKED: ATOM     31  C22 UNL     1       6.448  -3.594   3.236 +0.00 +0.00    +0.129 C  
DOCKED: BRANCH  31  32
DOCKED: ATOM     32  C23 UNL     1       5.282  -3.347   4.163 +0.00 +0.00    +0.216 C  
DOCKED: ATOM     33  O6  UNL     1       4.177  -2.997   3.737 +0.00 -0.00    -0.276 OA 
DOCKED: ATOM     34  N4  UNL     1       5.581  -3.507   5.498 +0.00 -0.00    -0.304 N  
DOCKED: ATOM     35  H43 UNL     1       6.399  -4.075   5.707 +0.00 +0.00    +0.149 HD 
DOCKED: BRANCH  34  36
DOCKED: ATOM     36  C24 UNL     1       4.508  -3.630   6.496 +0.00 +0.00    +0.161 C  
DOCKED: BRANCH  36  37
DOCKED: ATOM     37  C25 UNL     1       4.007  -5.090   6.396 +0.00 +0.00    +0.234 C  
DOCKED: ATOM     38  O7  UNL     1       4.276  -5.922   7.264 +0.00 -0.00    -0.274 OA 
DOCKED: ATOM     39  N5  UNL     1       3.222  -5.375   5.302 +0.00 -0.00    -0.310 N  
DOCKED: ATOM     40  H45 UNL     1       3.021  -4.660   4.621 +0.00 +0.00    +0.149 HD 
DOCKED: BRANCH  39  41
DOCKED: ATOM     41  C26 UNL     1       2.664  -6.689   5.076 +0.00 +0.00    +0.139 C  
DOCKED: BRANCH  41  42
DOCKED: ATOM     42  C27 UNL     1       3.329  -7.380   3.912 +0.00 -0.00    -0.030 A  
DOCKED: ATOM     43  C28 UNL     1       3.986  -6.644   2.913 +0.00 +0.00    +0.005 A  
DOCKED: ATOM     44  C29 UNL     1       4.641  -7.302   1.865 +0.00 +0.00    +0.000 A  
DOCKED: ATOM     45  C30 UNL     1       4.634  -8.692   1.798 +0.00 +0.00    +0.000 A  
DOCKED: ATOM     46  C31 UNL     1       3.971  -9.428   2.779 +0.00 +0.00    +0.000 A  
DOCKED: ATOM     47  C32 UNL     1       3.319  -8.776   3.826 +0.00 +0.00    +0.005 A  
DOCKED: ENDBRANCH  41  42
DOCKED: ENDBRANCH  39  41
DOCKED: ENDBRANCH  36  37
DOCKED: BRANCH  36  48
DOCKED: ATOM     48  C33 UNL     1       5.023  -3.238   7.900 +0.00 +0.00    +0.012 C  
DOCKED: ATOM     49  C34 UNL     1       4.129  -3.738   9.041 +0.00 +0.00    +0.009 C  
DOCKED: ATOM     50  C35 UNL     1       5.254  -1.733   8.041 +0.00 +0.00    +0.009 C  
DOCKED: ENDBRANCH  36  48
DOCKED: ENDBRANCH  34  36
DOCKED: ENDBRANCH  31  32
DOCKED: ENDBRANCH  28  31
DOCKED: ENDBRANCH   1  28
DOCKED: BRANCH   1  51
DOCKED: ATOM     51  C17 UNL     1       9.311  -4.120   3.028 +0.00 +0.00    +0.028 C  
DOCKED: BRANCH  51  52
DOCKED: ATOM     52  C18 UNL     1      10.112  -4.253   4.341 +0.00 -0.00    -0.015 C  
DOCKED: ATOM     53  C19 UNL     1      11.380  -5.091   4.174 +0.00 +0.00    +0.007 C  
DOCKED: ATOM     54  C20 UNL     1      10.482  -2.863   4.866 +0.00 +0.00    +0.007 C  
DOCKED: ENDBRANCH  51  52
DOCKED: ENDBRANCH   1  51
DOCKED: TORSDOF 22
DOCKED: TER
DOCKED: ENDMDL
________________________________________________________________________________


    FINAL DOCKED STATE:
    ________________________


Run:   17 / 20
Time taken for this run:   1.691s

DOCKED: MODEL        17
DOCKED: USER    Run = 17
DOCKED: USER
DOCKED: USER    Estimated Free Energy of Binding    =  +6.56 kcal/mol  [=(1)+(2)+(3)-(4)]
DOCKED: USER
DOCKED: USER    (1) Final Intermolecular Energy     =  +0.00 kcal/mol
DOCKED: USER        vdW + Hbond + desolv Energy     =  +0.00 kcal/mol
DOCKED: USER        Electrostatic Energy            =  +0.00 kcal/mol
DOCKED: USER        Moving Ligand-Fixed Receptor    =  +0.00 kcal/mol
DOCKED: USER        Moving Ligand-Moving Receptor   =  +0.00 kcal/mol
DOCKED: USER    (2) Final Total Internal Energy     = -14.59 kcal/mol
DOCKED: USER    (3) Torsional Free Energy           =  +6.56 kcal/mol
DOCKED: USER    (4) Unbound System's Energy         = -14.59 kcal/mol
DOCKED: USER
DOCKED: USER
DOCKED: REMARK  Name = ligands/ligand_47.pdb
DOCKED: REMARK  32 active torsions:
DOCKED: REMARK  status: ('A' for Active; 'I' for Inactive)
DOCKED: REMARK    1  A    between atoms: C1_1  and  S1_2
DOCKED: REMARK    2  A    between atoms: S1_2  and  C2_3
DOCKED: REMARK    3  A    between atoms: C2_3  and  C3_4
DOCKED: REMARK    4  A    between atoms: C3_4  and  C4_5
DOCKED: REMARK    5  A    between atoms: C4_5  and  N1_6
DOCKED: REMARK    6  A    between atoms: C4_5  and  C15_21
DOCKED: REMARK    7  A    between atoms: C5_7  and  C6_9
DOCKED: REMARK    8  A    between atoms: C6_9  and  N2_10
DOCKED: REMARK    9  A    between atoms: C6_9  and  C12_18
DOCKED: REMARK   10  A    between atoms: C7_11  and  O3_13
DOCKED: REMARK   11  A    between atoms: O3_13  and  C8_14
DOCKED: REMARK   12  A    between atoms: C8_14  and  C9_15
DOCKED: REMARK   13  A    between atoms: C8_14  and  C10_16
DOCKED: REMARK   14  A    between atoms: C8_14  and  C11_17
DOCKED: REMARK   15  A    between atoms: C12_18  and  C13_19
DOCKED: REMARK   16  A    between atoms: C12_18  and  C14_20
DOCKED: REMARK   17  A    between atoms: N3_23  and  C16_24
DOCKED: REMARK   18  A    between atoms: C16_24  and  C17_25
DOCKED: REMARK   19  A    between atoms: C16_24  and  C21_29
DOCKED: REMARK   20  A    between atoms: C17_25  and  C18_26
DOCKED: REMARK   21  A    between atoms: C18_26  and  C19_27
DOCKED: REMARK   22  A    between atoms: C18_26  and  C20_28
DOCKED: REMARK   23  A    between atoms: C21_29  and  O5_30
DOCKED: REMARK   24  A    between atoms: C21_29  and  C22_31
DOCKED: REMARK   25  A    between atoms: C22_31  and  C23_32
DOCKED: REMARK   26  A    between atoms: N4_34  and  C24_35
DOCKED: REMARK   27  A    between atoms: C24_35  and  C25_36
DOCKED: REMARK   28  A    between atoms: C24_35  and  C33_46
DOCKED: REMARK   29  A    between atoms: N5_38  and  C26_39
DOCKED: REMARK   30  A    between atoms: C26_39  and  C27_40
DOCKED: REMARK   31  A    between atoms: C33_46  and  C34_47
DOCKED: REMARK   32  A    between atoms: C33_46  and  C35_48
DOCKED: REMARK                            x       y       z     vdW  Elec       q    Type
DOCKED: REMARK                         _______ _______ _______ _____ _____    ______ ____
DOCKED: USER                              x       y       z     vdW  Elec       q    Type
DOCKED: USER                           _______ _______ _______ _____ _____    ______ ____
DOCKED: ROOT
DOCKED: ATOM      1  C16 UNL     1       9.485  -3.649  -1.913 +0.00 +0.00    +0.102 C  
DOCKED: ENDROOT
DOCKED: BRANCH   1   4
DOCKED: ATOM      2  C15 UNL     1       7.602  -2.059  -2.242 +0.00 +0.00    +0.234 C  
DOCKED: ATOM      3  O4  UNL     1       6.771  -2.950  -2.033 +0.00 -0.00    -0.274 OA 
DOCKED: ATOM      4  N3  UNL     1       8.953  -2.306  -2.194 +0.00 -0.00    -0.308 N  
DOCKED: ATOM      5  H28 UNL     1       9.600  -1.673  -2.646 +0.00 +0.00    +0.149 HD 
DOCKED: BRANCH   2   6
DOCKED: ATOM      6  C4  UNL     1       7.154  -0.635  -2.667 +0.00 +0.00    +0.160 C  
DOCKED: BRANCH   6   7
DOCKED: ATOM      7  N1  UNL     1       8.230   0.292  -2.288 +0.00 -0.00    -0.302 N  
DOCKED: ATOM      8  C5  UNL     1       9.415   0.350  -3.000 +0.00 +0.00    +0.234 C  
DOCKED: ATOM      9  O1  UNL     1       9.590  -0.225  -4.075 +0.00 -0.00    -0.274 OA 
DOCKED: ATOM     10  H9  UNL     1       8.336   0.409  -1.285 +0.00 +0.00    +0.150 HD 
DOCKED: BRANCH   8  11
DOCKED: ATOM     11  C6  UNL     1      10.491   1.263  -2.370 +0.00 +0.00    +0.165 C  
DOCKED: BRANCH  11  12
DOCKED: ATOM     12  N2  UNL     1      11.770   0.878  -2.953 +0.00 -0.00    -0.270 N  
DOCKED: ATOM     13  C7  UNL     1      12.130  -0.420  -3.127 +0.00 +0.00    +0.401 C  
DOCKED: ATOM     14  O2  UNL     1      11.550  -1.376  -2.638 +0.00 -0.00    -0.226 OA 
DOCKED: ATOM     15  H11 UNL     1      12.211   1.536  -3.586 +0.00 +0.00    +0.153 HD 
DOCKED: BRANCH  13  16
DOCKED: ATOM     16  O3  UNL     1      13.213  -0.467  -3.934 +0.00 -0.00    -0.445 OA 
DOCKED: BRANCH  16  17
DOCKED: ATOM     17  C8  UNL     1      14.532  -0.157  -3.414 +0.00 +0.00    +0.107 C  
DOCKED: ATOM     18  C9  UNL     1      15.000  -1.459  -2.747 +0.00 +0.00    +0.055 C  
DOCKED: ATOM     19  C10 UNL     1      15.511   0.206  -4.539 +0.00 +0.00    +0.055 C  
DOCKED: ATOM     20  C11 UNL     1      14.467   0.938  -2.341 +0.00 +0.00    +0.055 C  
DOCKED: ENDBRANCH  16  17
DOCKED: ENDBRANCH  13  16
DOCKED: ENDBRANCH  11  12
DOCKED: BRANCH  11  21
DOCKED: ATOM     21  C12 UNL     1      10.228   2.772  -2.584 +0.00 +0.00    +0.012 C  
DOCKED: ATOM     22  C13 UNL     1       9.128   3.035  -3.615 +0.00 +0.00    +0.009 C  
DOCKED: ATOM     23  C14 UNL     1      11.493   3.551  -2.961 +0.00 +0.00    +0.009 C  
DOCKED: ENDBRANCH  11  21
DOCKED: ENDBRANCH   8  11
DOCKED: ENDBRANCH   6   7
DOCKED: BRANCH   6  24
DOCKED: ATOM     24  C3  UNL     1       6.707  -0.454  -4.125 +0.00 +0.00    +0.042 C  
DOCKED: BRANCH  24  25
DOCKED: ATOM     25  C2  UNL     1       6.760  -1.776  -4.888 +0.00 +0.00    +0.071 C  
DOCKED: BRANCH  25  27
DOCKED: ATOM     26  C1  UNL     1       8.466  -3.270  -6.510 +0.00 +0.00    +0.084 C  
DOCKED: ATOM     27  S1  UNL     1       7.674  -1.639  -6.460 +0.00 -0.00    -0.164 S  
DOCKED: ENDBRANCH  25  27
DOCKED: ENDBRANCH  24  25
DOCKED: ENDBRANCH   6  24
DOCKED: ENDBRANCH   2   6
DOCKED: ENDBRANCH   1   4
DOCKED: BRANCH   1  28
DOCKED: ATOM     28  C21 UNL     1      10.360  -4.104  -3.124 +0.00 +0.00    +0.143 C  
DOCKED: BRANCH  28  29
DOCKED: ATOM     29  O5  UNL     1      10.332  -3.139  -4.180 +0.00 -0.00    -0.389 OA 
DOCKED: ATOM     30  H40 UNL     1      10.348  -2.246  -3.769 +0.00 +0.00    +0.210 HD 
DOCKED: ENDBRANCH  28  29
DOCKED: BRANCH  28  31
DOCKED: ATOM     31  C22 UNL     1      11.782  -4.537  -2.767 +0.00 +0.00    +0.129 C  
DOCKED: BRANCH  31  32
DOCKED: ATOM     32  C23 UNL     1      12.719  -4.598  -3.950 +0.00 +0.00    +0.216 C  
DOCKED: ATOM     33  O6  UNL     1      13.143  -5.672  -4.388 +0.00 -0.00    -0.276 OA 
DOCKED: ATOM     34  N4  UNL     1      13.077  -3.365  -4.448 +0.00 -0.00    -0.304 N  
DOCKED: ATOM     35  H43 UNL     1      12.452  -2.593  -4.221 +0.00 +0.00    +0.149 HD 
DOCKED: BRANCH  34  36
DOCKED: ATOM     36  C24 UNL     1      13.701  -3.245  -5.774 +0.00 +0.00    +0.161 C  
DOCKED: BRANCH  36  37
DOCKED: ATOM     37  C25 UNL     1      12.759  -2.341  -6.602 +0.00 +0.00    +0.234 C  
DOCKED: ATOM     38  O7  UNL     1      12.839  -2.282  -7.830 +0.00 -0.00    -0.274 OA 
DOCKED: ATOM     39  N5  UNL     1      11.815  -1.647  -5.879 +0.00 -0.00    -0.310 N  
DOCKED: ATOM     40  H45 UNL     1      11.781  -1.732  -4.876 +0.00 +0.00    +0.149 HD 
DOCKED: BRANCH  39  41
DOCKED: ATOM     41  C26 UNL     1      10.851  -0.773  -6.509 +0.00 +0.00    +0.139 C  
DOCKED: BRANCH  41  42
DOCKED: ATOM     42  C27 UNL     1      11.297   0.666  -6.466 +0.00 -0.00    -0.030 A  
DOCKED: ATOM     43  C28 UNL     1      12.658   1.000  -6.386 +0.00 +0.00    +0.005 A  
DOCKED: ATOM     44  C29 UNL     1      13.060   2.341  -6.397 +0.00 +0.00    +0.000 A  
DOCKED: ATOM     45  C30 UNL     1      12.110   3.355  -6.473 +0.00 +0.00    +0.000 A  
DOCKED: ATOM     46  C31 UNL     1      10.756   3.032  -6.537 +0.00 +0.00    +0.000 A  
DOCKED: ATOM     47  C32 UNL     1      10.352   1.696  -6.529 +0.00 +0.00    +0.005 A  
DOCKED: ENDBRANCH  41  42
DOCKED: ENDBRANCH  39  41
DOCKED: ENDBRANCH  36  37
DOCKED: BRANCH  36  48
DOCKED: ATOM     48  C33 UNL     1      15.143  -2.701  -5.649 +0.00 +0.00    +0.012 C  
DOCKED: ATOM     49  C34 UNL     1      15.716  -2.179  -6.972 +0.00 +0.00    +0.009 C  
DOCKED: ATOM     50  C35 UNL     1      16.103  -3.719  -5.033 +0.00 +0.00    +0.009 C  
DOCKED: ENDBRANCH  36  48
DOCKED: ENDBRANCH  34  36
DOCKED: ENDBRANCH  31  32
DOCKED: ENDBRANCH  28  31
DOCKED: ENDBRANCH   1  28
DOCKED: BRANCH   1  51
DOCKED: ATOM     51  C17 UNL     1      10.222  -3.615  -0.558 +0.00 +0.00    +0.028 C  
DOCKED: BRANCH  51  52
DOCKED: ATOM     52  C18 UNL     1      10.530  -2.203  -0.015 +0.00 -0.00    -0.015 C  
DOCKED: ATOM     53  C19 UNL     1       9.614  -1.805   1.143 +0.00 +0.00    +0.007 C  
DOCKED: ATOM     54  C20 UNL     1      11.991  -2.128   0.438 +0.00 +0.00    +0.007 C  
DOCKED: ENDBRANCH  51  52
DOCKED: ENDBRANCH   1  51
DOCKED: TORSDOF 22
DOCKED: TER
DOCKED: ENDMDL
________________________________________________________________________________


    FINAL DOCKED STATE:
    ________________________


Run:   18 / 20
Time taken for this run:   1.691s

DOCKED: MODEL        18
DOCKED: USER    Run = 18
DOCKED: USER
DOCKED: USER    Estimated Free Energy of Binding    =  +6.56 kcal/mol  [=(1)+(2)+(3)-(4)]
DOCKED: USER
DOCKED: USER    (1) Final Intermolecular Energy     =  +0.00 kcal/mol
DOCKED: USER        vdW + Hbond + desolv Energy     =  +0.00 kcal/mol
DOCKED: USER        Electrostatic Energy            =  +0.00 kcal/mol
DOCKED: USER        Moving Ligand-Fixed Receptor    =  +0.00 kcal/mol
DOCKED: USER        Moving Ligand-Moving Receptor   =  +0.00 kcal/mol
DOCKED: USER    (2) Final Total Internal Energy     = -14.49 kcal/mol
DOCKED: USER    (3) Torsional Free Energy           =  +6.56 kcal/mol
DOCKED: USER    (4) Unbound System's Energy         = -14.49 kcal/mol
DOCKED: USER
DOCKED: USER
DOCKED: REMARK  Name = ligands/ligand_47.pdb
DOCKED: REMARK  32 active torsions:
DOCKED: REMARK  status: ('A' for Active; 'I' for Inactive)
DOCKED: REMARK    1  A    between atoms: C1_1  and  S1_2
DOCKED: REMARK    2  A    between atoms: S1_2  and  C2_3
DOCKED: REMARK    3  A    between atoms: C2_3  and  C3_4
DOCKED: REMARK    4  A    between atoms: C3_4  and  C4_5
DOCKED: REMARK    5  A    between atoms: C4_5  and  N1_6
DOCKED: REMARK    6  A    between atoms: C4_5  and  C15_21
DOCKED: REMARK    7  A    between atoms: C5_7  and  C6_9
DOCKED: REMARK    8  A    between atoms: C6_9  and  N2_10
DOCKED: REMARK    9  A    between atoms: C6_9  and  C12_18
DOCKED: REMARK   10  A    between atoms: C7_11  and  O3_13
DOCKED: REMARK   11  A    between atoms: O3_13  and  C8_14
DOCKED: REMARK   12  A    between atoms: C8_14  and  C9_15
DOCKED: REMARK   13  A    between atoms: C8_14  and  C10_16
DOCKED: REMARK   14  A    between atoms: C8_14  and  C11_17
DOCKED: REMARK   15  A    between atoms: C12_18  and  C13_19
DOCKED: REMARK   16  A    between atoms: C12_18  and  C14_20
DOCKED: REMARK   17  A    between atoms: N3_23  and  C16_24
DOCKED: REMARK   18  A    between atoms: C16_24  and  C17_25
DOCKED: REMARK   19  A    between atoms: C16_24  and  C21_29
DOCKED: REMARK   20  A    between atoms: C17_25  and  C18_26
DOCKED: REMARK   21  A    between atoms: C18_26  and  C19_27
DOCKED: REMARK   22  A    between atoms: C18_26  and  C20_28
DOCKED: REMARK   23  A    between atoms: C21_29  and  O5_30
DOCKED: REMARK   24  A    between atoms: C21_29  and  C22_31
DOCKED: REMARK   25  A    between atoms: C22_31  and  C23_32
DOCKED: REMARK   26  A    between atoms: N4_34  and  C24_35
DOCKED: REMARK   27  A    between atoms: C24_35  and  C25_36
DOCKED: REMARK   28  A    between atoms: C24_35  and  C33_46
DOCKED: REMARK   29  A    between atoms: N5_38  and  C26_39
DOCKED: REMARK   30  A    between atoms: C26_39  and  C27_40
DOCKED: REMARK   31  A    between atoms: C33_46  and  C34_47
DOCKED: REMARK   32  A    between atoms: C33_46  and  C35_48
DOCKED: REMARK                            x       y       z     vdW  Elec       q    Type
DOCKED: REMARK                         _______ _______ _______ _____ _____    ______ ____
DOCKED: USER                              x       y       z     vdW  Elec       q    Type
DOCKED: USER                           _______ _______ _______ _____ _____    ______ ____
DOCKED: ROOT
DOCKED: ATOM      1  C16 UNL     1       2.263  -6.524   1.806 +0.00 +0.00    +0.102 C  
DOCKED: ENDROOT
DOCKED: BRANCH   1   4
DOCKED: ATOM      2  C15 UNL     1       3.732  -7.800   3.352 +0.00 +0.00    +0.234 C  
DOCKED: ATOM      3  O4  UNL     1       3.287  -7.190   4.331 +0.00 -0.00    -0.274 OA 
DOCKED: ATOM      4  N3  UNL     1       3.282  -7.549   2.079 +0.00 -0.00    -0.308 N  
DOCKED: ATOM      5  H28 UNL     1       3.842  -7.821   1.282 +0.00 +0.00    +0.149 HD 
DOCKED: BRANCH   2   6
DOCKED: ATOM      6  C4  UNL     1       4.896  -8.816   3.509 +0.00 +0.00    +0.160 C  
DOCKED: BRANCH   6   7
DOCKED: ATOM      7  N1  UNL     1       4.687  -9.876   2.513 +0.00 -0.00    -0.302 N  
DOCKED: ATOM      8  C5  UNL     1       4.903  -9.649   1.164 +0.00 +0.00    +0.234 C  
DOCKED: ATOM      9  O1  UNL     1       5.437  -8.631   0.724 +0.00 -0.00    -0.274 OA 
DOCKED: ATOM     10  H9  UNL     1       3.897 -10.479   2.715 +0.00 +0.00    +0.150 HD 
DOCKED: BRANCH   8  11
DOCKED: ATOM     11  C6  UNL     1       4.485 -10.822   0.248 +0.00 +0.00    +0.165 C  
DOCKED: BRANCH  11  12
DOCKED: ATOM     12  N2  UNL     1       3.086 -10.609  -0.103 +0.00 -0.00    -0.270 N  
DOCKED: ATOM     13  C7  UNL     1       2.642  -9.450  -0.657 +0.00 +0.00    +0.401 C  
DOCKED: ATOM     14  O2  UNL     1       3.286  -8.415  -0.718 +0.00 -0.00    -0.226 OA 
DOCKED: ATOM     15  H11 UNL     1       2.529 -11.428  -0.316 +0.00 +0.00    +0.153 HD 
DOCKED: BRANCH  13  16
DOCKED: ATOM     16  O3  UNL     1       1.392  -9.645  -1.130 +0.00 -0.00    -0.445 OA 
DOCKED: BRANCH  16  17
DOCKED: ATOM     17  C8  UNL     1       1.087  -9.406  -2.529 +0.00 +0.00    +0.107 C  
DOCKED: ATOM     18  C9  UNL     1      -0.204 -10.199  -2.784 +0.00 +0.00    +0.055 C  
DOCKED: ATOM     19  C10 UNL     1       0.821  -7.920  -2.803 +0.00 +0.00    +0.055 C  
DOCKED: ATOM     20  C11 UNL     1       2.186  -9.966  -3.444 +0.00 +0.00    +0.055 C  
DOCKED: ENDBRANCH  16  17
DOCKED: ENDBRANCH  13  16
DOCKED: ENDBRANCH  11  12
DOCKED: BRANCH  11  21
DOCKED: ATOM     21  C12 UNL     1       5.351 -10.957  -1.025 +0.00 +0.00    +0.012 C  
DOCKED: ATOM     22  C13 UNL     1       4.663 -11.778  -2.118 +0.00 +0.00    +0.009 C  
DOCKED: ATOM     23  C14 UNL     1       6.744 -11.532  -0.741 +0.00 +0.00    +0.009 C  
DOCKED: ENDBRANCH  11  21
DOCKED: ENDBRANCH   8  11
DOCKED: ENDBRANCH   6   7
DOCKED: BRANCH   6  24
DOCKED: ATOM     24  C3  UNL     1       6.322  -8.248   3.474 +0.00 +0.00    +0.042 C  
DOCKED: BRANCH  24  25
DOCKED: ATOM     25  C2  UNL     1       6.360  -6.814   3.999 +0.00 +0.00    +0.071 C  
DOCKED: BRANCH  25  27
DOCKED: ATOM     26  C1  UNL     1       5.101  -4.494   3.102 +0.00 +0.00    +0.084 C  
DOCKED: ATOM     27  S1  UNL     1       6.482  -5.582   2.659 +0.00 -0.00    -0.164 S  
DOCKED: ENDBRANCH  25  27
DOCKED: ENDBRANCH  24  25
DOCKED: ENDBRANCH   6  24
DOCKED: ENDBRANCH   2   6
DOCKED: ENDBRANCH   1   4
DOCKED: BRANCH   1  28
DOCKED: ATOM     28  C21 UNL     1       2.828  -5.525   0.745 +0.00 +0.00    +0.143 C  
DOCKED: BRANCH  28  29
DOCKED: ATOM     29  O5  UNL     1       4.165  -5.866   0.368 +0.00 -0.00    -0.389 OA 
DOCKED: ATOM     30  H40 UNL     1       4.226  -6.847   0.336 +0.00 +0.00    +0.210 HD 
DOCKED: ENDBRANCH  28  29
DOCKED: BRANCH  28  31
DOCKED: ATOM     31  C22 UNL     1       1.923  -5.288  -0.464 +0.00 +0.00    +0.129 C  
DOCKED: BRANCH  31  32
DOCKED: ATOM     32  C23 UNL     1       2.669  -5.154  -1.771 +0.00 +0.00    +0.216 C  
DOCKED: ATOM     33  O6  UNL     1       2.620  -4.120  -2.443 +0.00 -0.00    -0.276 OA 
DOCKED: ATOM     34  N4  UNL     1       3.357  -6.288  -2.144 +0.00 -0.00    -0.304 N  
DOCKED: ATOM     35  H43 UNL     1       3.575  -6.944  -1.397 +0.00 +0.00    +0.149 HD 
DOCKED: BRANCH  34  36
DOCKED: ATOM     36  C24 UNL     1       4.386  -6.227  -3.194 +0.00 +0.00    +0.161 C  
DOCKED: BRANCH  36  37
DOCKED: ATOM     37  C25 UNL     1       5.725  -5.992  -2.456 +0.00 +0.00    +0.234 C  
DOCKED: ATOM     38  O7  UNL     1       6.574  -5.218  -2.900 +0.00 -0.00    -0.274 OA 
DOCKED: ATOM     39  N5  UNL     1       5.876  -6.671  -1.269 +0.00 -0.00    -0.310 N  
DOCKED: ATOM     40  H45 UNL     1       5.150  -7.288  -0.940 +0.00 +0.00    +0.149 HD 
DOCKED: BRANCH  39  41
DOCKED: ATOM     41  C26 UNL     1       7.064  -6.544  -0.454 +0.00 +0.00    +0.139 C  
DOCKED: BRANCH  41  42
DOCKED: ATOM     42  C27 UNL     1       7.960  -7.749  -0.590 +0.00 -0.00    -0.030 A  
DOCKED: ATOM     43  C28 UNL     1       8.288  -8.269  -1.851 +0.00 +0.00    +0.005 A  
DOCKED: ATOM     44  C29 UNL     1       9.161  -9.358  -1.962 +0.00 +0.00    +0.000 A  
DOCKED: ATOM     45  C30 UNL     1       9.699  -9.942  -0.820 +0.00 +0.00    +0.000 A  
DOCKED: ATOM     46  C31 UNL     1       9.366  -9.440   0.437 +0.00 +0.00    +0.000 A  
DOCKED: ATOM     47  C32 UNL     1       8.499  -8.353   0.552 +0.00 +0.00    +0.005 A  
DOCKED: ENDBRANCH  41  42
DOCKED: ENDBRANCH  39  41
DOCKED: ENDBRANCH  36  37
DOCKED: BRANCH  36  48
DOCKED: ATOM     48  C33 UNL     1       4.361  -7.511  -4.054 +0.00 +0.00    +0.012 C  
DOCKED: ATOM     49  C34 UNL     1       5.347  -8.585  -3.580 +0.00 +0.00    +0.009 C  
DOCKED: ATOM     50  C35 UNL     1       4.578  -7.226  -5.541 +0.00 +0.00    +0.009 C  
DOCKED: ENDBRANCH  36  48
DOCKED: ENDBRANCH  34  36
DOCKED: ENDBRANCH  31  32
DOCKED: ENDBRANCH  28  31
DOCKED: ENDBRANCH   1  28
DOCKED: BRANCH   1  51
DOCKED: ATOM     51  C17 UNL     1       0.951  -7.227   1.399 +0.00 +0.00    +0.028 C  
DOCKED: BRANCH  51  52
DOCKED: ATOM     52  C18 UNL     1       0.738  -8.625   2.020 +0.00 -0.00    -0.015 C  
DOCKED: ATOM     53  C19 UNL     1       0.447  -8.564   3.521 +0.00 +0.00    +0.007 C  
DOCKED: ATOM     54  C20 UNL     1      -0.410  -9.342   1.305 +0.00 +0.00    +0.007 C  
DOCKED: ENDBRANCH  51  52
DOCKED: ENDBRANCH   1  51
DOCKED: TORSDOF 22
DOCKED: TER
DOCKED: ENDMDL
________________________________________________________________________________


    FINAL DOCKED STATE:
    ________________________


Run:   19 / 20
Time taken for this run:   1.691s

DOCKED: MODEL        19
DOCKED: USER    Run = 19
DOCKED: USER
DOCKED: USER    Estimated Free Energy of Binding    =  +6.56 kcal/mol  [=(1)+(2)+(3)-(4)]
DOCKED: USER
DOCKED: USER    (1) Final Intermolecular Energy     =  +0.00 kcal/mol
DOCKED: USER        vdW + Hbond + desolv Energy     =  +0.00 kcal/mol
DOCKED: USER        Electrostatic Energy            =  +0.00 kcal/mol
DOCKED: USER        Moving Ligand-Fixed Receptor    =  +0.00 kcal/mol
DOCKED: USER        Moving Ligand-Moving Receptor   =  +0.00 kcal/mol
DOCKED: USER    (2) Final Total Internal Energy     = -14.32 kcal/mol
DOCKED: USER    (3) Torsional Free Energy           =  +6.56 kcal/mol
DOCKED: USER    (4) Unbound System's Energy         = -14.32 kcal/mol
DOCKED: USER
DOCKED: USER
DOCKED: REMARK  Name = ligands/ligand_47.pdb
DOCKED: REMARK  32 active torsions:
DOCKED: REMARK  status: ('A' for Active; 'I' for Inactive)
DOCKED: REMARK    1  A    between atoms: C1_1  and  S1_2
DOCKED: REMARK    2  A    between atoms: S1_2  and  C2_3
DOCKED: REMARK    3  A    between atoms: C2_3  and  C3_4
DOCKED: REMARK    4  A    between atoms: C3_4  and  C4_5
DOCKED: REMARK    5  A    between atoms: C4_5  and  N1_6
DOCKED: REMARK    6  A    between atoms: C4_5  and  C15_21
DOCKED: REMARK    7  A    between atoms: C5_7  and  C6_9
DOCKED: REMARK    8  A    between atoms: C6_9  and  N2_10
DOCKED: REMARK    9  A    between atoms: C6_9  and  C12_18
DOCKED: REMARK   10  A    between atoms: C7_11  and  O3_13
DOCKED: REMARK   11  A    between atoms: O3_13  and  C8_14
DOCKED: REMARK   12  A    between atoms: C8_14  and  C9_15
DOCKED: REMARK   13  A    between atoms: C8_14  and  C10_16
DOCKED: REMARK   14  A    between atoms: C8_14  and  C11_17
DOCKED: REMARK   15  A    between atoms: C12_18  and  C13_19
DOCKED: REMARK   16  A    between atoms: C12_18  and  C14_20
DOCKED: REMARK   17  A    between atoms: N3_23  and  C16_24
DOCKED: REMARK   18  A    between atoms: C16_24  and  C17_25
DOCKED: REMARK   19  A    between atoms: C16_24  and  C21_29
DOCKED: REMARK   20  A    between atoms: C17_25  and  C18_26
DOCKED: REMARK   21  A    between atoms: C18_26  and  C19_27
DOCKED: REMARK   22  A    between atoms: C18_26  and  C20_28
DOCKED: REMARK   23  A    between atoms: C21_29  and  O5_30
DOCKED: REMARK   24  A    between atoms: C21_29  and  C22_31
DOCKED: REMARK   25  A    between atoms: C22_31  and  C23_32
DOCKED: REMARK   26  A    between atoms: N4_34  and  C24_35
DOCKED: REMARK   27  A    between atoms: C24_35  and  C25_36
DOCKED: REMARK   28  A    between atoms: C24_35  and  C33_46
DOCKED: REMARK   29  A    between atoms: N5_38  and  C26_39
DOCKED: REMARK   30  A    between atoms: C26_39  and  C27_40
DOCKED: REMARK   31  A    between atoms: C33_46  and  C34_47
DOCKED: REMARK   32  A    between atoms: C33_46  and  C35_48
DOCKED: REMARK                            x       y       z     vdW  Elec       q    Type
DOCKED: REMARK                         _______ _______ _______ _____ _____    ______ ____
DOCKED: USER                              x       y       z     vdW  Elec       q    Type
DOCKED: USER                           _______ _______ _______ _____ _____    ______ ____
DOCKED: ROOT
DOCKED: ATOM      1  C16 UNL     1      10.775  -4.905   1.961 +0.00 +0.00    +0.102 C  
DOCKED: ENDROOT
DOCKED: BRANCH   1   4
DOCKED: ATOM      2  C15 UNL     1      11.151  -2.578   1.170 +0.00 +0.00    +0.234 C  
DOCKED: ATOM      3  O4  UNL     1      11.598  -2.983   0.090 +0.00 -0.00    -0.274 OA 
DOCKED: ATOM      4  N3  UNL     1      10.715  -3.446   2.141 +0.00 -0.00    -0.308 N  
DOCKED: ATOM      5  H28 UNL     1      10.639  -3.134   3.101 +0.00 +0.00    +0.149 HD 
DOCKED: BRANCH   2   6
DOCKED: ATOM      6  C4  UNL     1      11.155  -1.065   1.516 +0.00 +0.00    +0.160 C  
DOCKED: BRANCH   6   7
DOCKED: ATOM      7  N1  UNL     1      11.170  -0.953   2.982 +0.00 -0.00    -0.302 N  
DOCKED: ATOM      8  C5  UNL     1      12.133  -1.595   3.743 +0.00 +0.00    +0.234 C  
DOCKED: ATOM      9  O1  UNL     1      13.122  -2.146   3.262 +0.00 -0.00    -0.274 OA 
DOCKED: ATOM     10  H9  UNL     1      10.246  -0.936   3.401 +0.00 +0.00    +0.150 HD 
DOCKED: BRANCH   8  11
DOCKED: ATOM     11  C6  UNL     1      11.904  -1.497   5.268 +0.00 +0.00    +0.165 C  
DOCKED: BRANCH  11  12
DOCKED: ATOM     12  N2  UNL     1      11.137  -2.673   5.659 +0.00 -0.00    -0.270 N  
DOCKED: ATOM     13  C7  UNL     1       9.907  -2.943   5.149 +0.00 +0.00    +0.401 C  
DOCKED: ATOM     14  O2  UNL     1       9.233  -2.159   4.502 +0.00 -0.00    -0.226 OA 
DOCKED: ATOM     15  H11 UNL     1      11.655  -3.481   5.985 +0.00 +0.00    +0.153 HD 
DOCKED: BRANCH  13  16
DOCKED: ATOM     16  O3  UNL     1       9.575  -4.214   5.467 +0.00 -0.00    -0.445 OA 
DOCKED: BRANCH  16  17
DOCKED: ATOM     17  C8  UNL     1       8.184  -4.590   5.643 +0.00 +0.00    +0.107 C  
DOCKED: ATOM     18  C9  UNL     1       8.196  -6.127   5.631 +0.00 +0.00    +0.055 C  
DOCKED: ATOM     19  C10 UNL     1       7.635  -4.107   6.992 +0.00 +0.00    +0.055 C  
DOCKED: ATOM     20  C11 UNL     1       7.321  -4.106   4.470 +0.00 +0.00    +0.055 C  
DOCKED: ENDBRANCH  16  17
DOCKED: ENDBRANCH  13  16
DOCKED: ENDBRANCH  11  12
DOCKED: BRANCH  11  21
DOCKED: ATOM     21  C12 UNL     1      13.211  -1.403   6.088 +0.00 +0.00    +0.012 C  
DOCKED: ATOM     22  C13 UNL     1      12.955  -1.118   7.571 +0.00 +0.00    +0.009 C  
DOCKED: ATOM     23  C14 UNL     1      14.198  -0.374   5.524 +0.00 +0.00    +0.009 C  
DOCKED: ENDBRANCH  11  21
DOCKED: ENDBRANCH   8  11
DOCKED: ENDBRANCH   6   7
DOCKED: BRANCH   6  24
DOCKED: ATOM     24  C3  UNL     1      12.237  -0.203   0.849 +0.00 +0.00    +0.042 C  
DOCKED: BRANCH  24  25
DOCKED: ATOM     25  C2  UNL     1      13.535  -0.987   0.667 +0.00 +0.00    +0.071 C  
DOCKED: BRANCH  25  27
DOCKED: ATOM     26  C1  UNL     1      14.111   1.114   2.407 +0.00 +0.00    +0.084 C  
DOCKED: ATOM     27  S1  UNL     1      14.965  -0.160   1.439 +0.00 -0.00    -0.164 S  
DOCKED: ENDBRANCH  25  27
DOCKED: ENDBRANCH  24  25
DOCKED: ENDBRANCH   6  24
DOCKED: ENDBRANCH   2   6
DOCKED: ENDBRANCH   1   4
DOCKED: BRANCH   1  28
DOCKED: ATOM     28  C21 UNL     1      11.764  -5.500   3.014 +0.00 +0.00    +0.143 C  
DOCKED: BRANCH  28  29
DOCKED: ATOM     29  O5  UNL     1      12.042  -4.561   4.057 +0.00 -0.00    -0.389 OA 
DOCKED: ATOM     30  H40 UNL     1      12.730  -3.941   3.726 +0.00 +0.00    +0.210 HD 
DOCKED: ENDBRANCH  28  29
DOCKED: BRANCH  28  31
DOCKED: ATOM     31  C22 UNL     1      11.378  -6.877   3.556 +0.00 +0.00    +0.129 C  
DOCKED: BRANCH  31  32
DOCKED: ATOM     32  C23 UNL     1      11.842  -7.131   4.970 +0.00 +0.00    +0.216 C  
DOCKED: ATOM     33  O6  UNL     1      12.676  -8.002   5.233 +0.00 -0.00    -0.276 OA 
DOCKED: ATOM     34  N4  UNL     1      11.223  -6.342   5.915 +0.00 -0.00    -0.304 N  
DOCKED: ATOM     35  H43 UNL     1      10.801  -5.482   5.571 +0.00 +0.00    +0.149 HD 
DOCKED: BRANCH  34  36
DOCKED: ATOM     36  C24 UNL     1      11.779  -6.223   7.272 +0.00 +0.00    +0.161 C  
DOCKED: BRANCH  36  37
DOCKED: ATOM     37  C25 UNL     1      12.976  -5.250   7.151 +0.00 +0.00    +0.234 C  
DOCKED: ATOM     38  O7  UNL     1      12.917  -4.102   7.590 +0.00 -0.00    -0.274 OA 
DOCKED: ATOM     39  N5  UNL     1      14.105  -5.770   6.559 +0.00 -0.00    -0.310 N  
DOCKED: ATOM     40  H45 UNL     1      14.111  -6.719   6.222 +0.00 +0.00    +0.149 HD 
DOCKED: BRANCH  39  41
DOCKED: ATOM     41  C26 UNL     1      15.312  -4.992   6.388 +0.00 +0.00    +0.139 C  
DOCKED: BRANCH  41  42
DOCKED: ATOM     42  C27 UNL     1      15.417  -4.433   4.991 +0.00 -0.00    -0.030 A  
DOCKED: ATOM     43  C28 UNL     1      16.005  -3.181   4.755 +0.00 +0.00    +0.005 A  
DOCKED: ATOM     44  C29 UNL     1      16.140  -2.698   3.448 +0.00 +0.00    +0.000 A  
DOCKED: ATOM     45  C30 UNL     1      15.678  -3.451   2.373 +0.00 +0.00    +0.000 A  
DOCKED: ATOM     46  C31 UNL     1      15.079  -4.688   2.601 +0.00 +0.00    +0.000 A  
DOCKED: ATOM     47  C32 UNL     1      14.945  -5.174   3.902 +0.00 +0.00    +0.005 A  
DOCKED: ENDBRANCH  41  42
DOCKED: ENDBRANCH  39  41
DOCKED: ENDBRANCH  36  37
DOCKED: BRANCH  36  48
DOCKED: ATOM     48  C33 UNL     1      10.691  -5.759   8.267 +0.00 +0.00    +0.012 C  
DOCKED: ATOM     49  C34 UNL     1      11.255  -5.284   9.612 +0.00 +0.00    +0.009 C  
DOCKED: ATOM     50  C35 UNL     1       9.616  -6.821   8.499 +0.00 +0.00    +0.009 C  
DOCKED: ENDBRANCH  36  48
DOCKED: ENDBRANCH  34  36
DOCKED: ENDBRANCH  31  32
DOCKED: ENDBRANCH  28  31
DOCKED: ENDBRANCH   1  28
DOCKED: BRANCH   1  51
DOCKED: ATOM     51  C17 UNL     1       9.341  -5.471   2.026 +0.00 +0.00    +0.028 C  
DOCKED: BRANCH  51  52
DOCKED: ATOM     52  C18 UNL     1       8.419  -5.053   0.860 +0.00 -0.00    -0.015 C  
DOCKED: ATOM     53  C19 UNL     1       7.769  -3.686   1.085 +0.00 +0.00    +0.007 C  
DOCKED: ATOM     54  C20 UNL     1       9.214  -5.032  -0.449 +0.00 +0.00    +0.007 C  
DOCKED: ENDBRANCH  51  52
DOCKED: ENDBRANCH   1  51
DOCKED: TORSDOF 22
DOCKED: TER
DOCKED: ENDMDL
________________________________________________________________________________


    FINAL DOCKED STATE:
    ________________________


Run:   20 / 20
Time taken for this run:   1.691s

DOCKED: MODEL        20
DOCKED: USER    Run = 20
DOCKED: USER
DOCKED: USER    Estimated Free Energy of Binding    =  +6.56 kcal/mol  [=(1)+(2)+(3)-(4)]
DOCKED: USER
DOCKED: USER    (1) Final Intermolecular Energy     =  +0.00 kcal/mol
DOCKED: USER        vdW + Hbond + desolv Energy     =  +0.00 kcal/mol
DOCKED: USER        Electrostatic Energy            =  +0.00 kcal/mol
DOCKED: USER        Moving Ligand-Fixed Receptor    =  +0.00 kcal/mol
DOCKED: USER        Moving Ligand-Moving Receptor   =  +0.00 kcal/mol
DOCKED: USER    (2) Final Total Internal Energy     = -14.49 kcal/mol
DOCKED: USER    (3) Torsional Free Energy           =  +6.56 kcal/mol
DOCKED: USER    (4) Unbound System's Energy         = -14.49 kcal/mol
DOCKED: USER
DOCKED: USER
DOCKED: REMARK  Name = ligands/ligand_47.pdb
DOCKED: REMARK  32 active torsions:
DOCKED: REMARK  status: ('A' for Active; 'I' for Inactive)
DOCKED: REMARK    1  A    between atoms: C1_1  and  S1_2
DOCKED: REMARK    2  A    between atoms: S1_2  and  C2_3
DOCKED: REMARK    3  A    between atoms: C2_3  and  C3_4
DOCKED: REMARK    4  A    between atoms: C3_4  and  C4_5
DOCKED: REMARK    5  A    between atoms: C4_5  and  N1_6
DOCKED: REMARK    6  A    between atoms: C4_5  and  C15_21
DOCKED: REMARK    7  A    between atoms: C5_7  and  C6_9
DOCKED: REMARK    8  A    between atoms: C6_9  and  N2_10
DOCKED: REMARK    9  A    between atoms: C6_9  and  C12_18
DOCKED: REMARK   10  A    between atoms: C7_11  and  O3_13
DOCKED: REMARK   11  A    between atoms: O3_13  and  C8_14
DOCKED: REMARK   12  A    between atoms: C8_14  and  C9_15
DOCKED: REMARK   13  A    between atoms: C8_14  and  C10_16
DOCKED: REMARK   14  A    between atoms: C8_14  and  C11_17
DOCKED: REMARK   15  A    between atoms: C12_18  and  C13_19
DOCKED: REMARK   16  A    between atoms: C12_18  and  C14_20
DOCKED: REMARK   17  A    between atoms: N3_23  and  C16_24
DOCKED: REMARK   18  A    between atoms: C16_24  and  C17_25
DOCKED: REMARK   19  A    between atoms: C16_24  and  C21_29
DOCKED: REMARK   20  A    between atoms: C17_25  and  C18_26
DOCKED: REMARK   21  A    between atoms: C18_26  and  C19_27
DOCKED: REMARK   22  A    between atoms: C18_26  and  C20_28
DOCKED: REMARK   23  A    between atoms: C21_29  and  O5_30
DOCKED: REMARK   24  A    between atoms: C21_29  and  C22_31
DOCKED: REMARK   25  A    between atoms: C22_31  and  C23_32
DOCKED: REMARK   26  A    between atoms: N4_34  and  C24_35
DOCKED: REMARK   27  A    between atoms: C24_35  and  C25_36
DOCKED: REMARK   28  A    between atoms: C24_35  and  C33_46
DOCKED: REMARK   29  A    between atoms: N5_38  and  C26_39
DOCKED: REMARK   30  A    between atoms: C26_39  and  C27_40
DOCKED: REMARK   31  A    between atoms: C33_46  and  C34_47
DOCKED: REMARK   32  A    between atoms: C33_46  and  C35_48
DOCKED: REMARK                            x       y       z     vdW  Elec       q    Type
DOCKED: REMARK                         _______ _______ _______ _____ _____    ______ ____
DOCKED: USER                              x       y       z     vdW  Elec       q    Type
DOCKED: USER                           _______ _______ _______ _____ _____    ______ ____
DOCKED: ROOT
DOCKED: ATOM      1  C16 UNL     1      11.917  -1.947  -1.990 +0.00 +0.00    +0.102 C  
DOCKED: ENDROOT
DOCKED: BRANCH   1   4
DOCKED: ATOM      2  C15 UNL     1      13.088  -3.656  -3.363 +0.00 +0.00    +0.234 C  
DOCKED: ATOM      3  O4  UNL     1      12.056  -3.900  -3.999 +0.00 -0.00    -0.274 OA 
DOCKED: ATOM      4  N3  UNL     1      13.117  -2.708  -2.369 +0.00 -0.00    -0.308 N  
DOCKED: ATOM      5  H28 UNL     1      13.852  -2.726  -1.674 +0.00 +0.00    +0.149 HD 
DOCKED: BRANCH   2   6
DOCKED: ATOM      6  C4  UNL     1      14.381  -4.483  -3.596 +0.00 +0.00    +0.160 C  
DOCKED: BRANCH   6   7
DOCKED: ATOM      7  N1  UNL     1      15.520  -3.568  -3.434 +0.00 -0.00    -0.302 N  
DOCKED: ATOM      8  C5  UNL     1      15.895  -3.099  -2.187 +0.00 +0.00    +0.234 C  
DOCKED: ATOM      9  O1  UNL     1      15.433  -3.532  -1.131 +0.00 -0.00    -0.274 OA 
DOCKED: ATOM     10  H9  UNL     1      15.609  -2.888  -4.182 +0.00 +0.00    +0.150 HD 
DOCKED: BRANCH   8  11
DOCKED: ATOM     11  C6  UNL     1      17.009  -2.028  -2.220 +0.00 +0.00    +0.165 C  
DOCKED: BRANCH  11  12
DOCKED: ATOM     12  N2  UNL     1      16.349  -0.733  -2.331 +0.00 -0.00    -0.270 N  
DOCKED: ATOM     13  C7  UNL     1      15.377  -0.334  -1.470 +0.00 +0.00    +0.401 C  
DOCKED: ATOM     14  O2  UNL     1      14.808  -1.063  -0.674 +0.00 -0.00    -0.226 OA 
DOCKED: ATOM     15  H11 UNL     1      16.868   0.018  -2.772 +0.00 +0.00    +0.153 HD 
DOCKED: BRANCH  13  16
DOCKED: ATOM     16  O3  UNL     1      15.165   0.990  -1.638 +0.00 -0.00    -0.445 OA 
DOCKED: BRANCH  16  17
DOCKED: ATOM     17  C8  UNL     1      15.344   1.912  -0.531 +0.00 +0.00    +0.107 C  
DOCKED: ATOM     18  C9  UNL     1      15.575   3.277  -1.199 +0.00 +0.00    +0.055 C  
DOCKED: ATOM     19  C10 UNL     1      14.088   1.993   0.346 +0.00 +0.00    +0.055 C  
DOCKED: ATOM     20  C11 UNL     1      16.592   1.561   0.292 +0.00 +0.00    +0.055 C  
DOCKED: ENDBRANCH  16  17
DOCKED: ENDBRANCH  13  16
DOCKED: ENDBRANCH  11  12
DOCKED: BRANCH  11  21
DOCKED: ATOM     21  C12 UNL     1      17.940  -2.060  -0.987 +0.00 +0.00    +0.012 C  
DOCKED: ATOM     22  C13 UNL     1      18.712  -0.752  -0.800 +0.00 +0.00    +0.009 C  
DOCKED: ATOM     23  C14 UNL     1      18.917  -3.242  -1.006 +0.00 +0.00    +0.009 C  
DOCKED: ENDBRANCH  11  21
DOCKED: ENDBRANCH   8  11
DOCKED: ENDBRANCH   6   7
DOCKED: BRANCH   6  24
DOCKED: ATOM     24  C3  UNL     1      14.539  -5.770  -2.774 +0.00 +0.00    +0.042 C  
DOCKED: BRANCH  24  25
DOCKED: ATOM     25  C2  UNL     1      13.180  -6.372  -2.421 +0.00 +0.00    +0.071 C  
DOCKED: BRANCH  25  27
DOCKED: ATOM     26  C1  UNL     1      11.056  -5.374  -0.917 +0.00 +0.00    +0.084 C  
DOCKED: ATOM     27  S1  UNL     1      12.713  -6.074  -0.684 +0.00 -0.00    -0.164 S  
DOCKED: ENDBRANCH  25  27
DOCKED: ENDBRANCH  24  25
DOCKED: ENDBRANCH   6  24
DOCKED: ENDBRANCH   2   6
DOCKED: ENDBRANCH   1   4
DOCKED: BRANCH   1  28
DOCKED: ATOM     28  C21 UNL     1      11.737  -2.035  -0.440 +0.00 +0.00    +0.143 C  
DOCKED: BRANCH  28  29
DOCKED: ATOM     29  O5  UNL     1      12.722  -2.887   0.152 +0.00 -0.00    -0.389 OA 
DOCKED: ATOM     30  H40 UNL     1      13.574  -2.726  -0.312 +0.00 +0.00    +0.210 HD 
DOCKED: ENDBRANCH  28  29
DOCKED: BRANCH  28  31
DOCKED: ATOM     31  C22 UNL     1      11.627  -0.687   0.274 +0.00 +0.00    +0.129 C  
DOCKED: BRANCH  31  32
DOCKED: ATOM     32  C23 UNL     1      12.292  -0.655   1.629 +0.00 +0.00    +0.216 C  
DOCKED: ATOM     33  O6  UNL     1      11.649  -0.461   2.664 +0.00 -0.00    -0.276 OA 
DOCKED: ATOM     34  N4  UNL     1      13.660  -0.818   1.587 +0.00 -0.00    -0.304 N  
DOCKED: ATOM     35  H43 UNL     1      14.031  -1.263   0.751 +0.00 +0.00    +0.149 HD 
DOCKED: BRANCH  34  36
DOCKED: ATOM     36  C24 UNL     1      14.413  -1.140   2.809 +0.00 +0.00    +0.161 C  
DOCKED: BRANCH  36  37
DOCKED: ATOM     37  C25 UNL     1      14.548  -2.681   2.825 +0.00 +0.00    +0.234 C  
DOCKED: ATOM     38  O7  UNL     1      14.458  -3.323   3.871 +0.00 -0.00    -0.274 OA 
DOCKED: ATOM     39  N5  UNL     1      14.737  -3.272   1.596 +0.00 -0.00    -0.310 N  
DOCKED: ATOM     40  H45 UNL     1      14.796  -2.707   0.764 +0.00 +0.00    +0.149 HD 
DOCKED: BRANCH  39  41
DOCKED: ATOM     41  C26 UNL     1      14.865  -4.704   1.442 +0.00 +0.00    +0.139 C  
DOCKED: BRANCH  41  42
DOCKED: ATOM     42  C27 UNL     1      16.303  -5.114   1.250 +0.00 -0.00    -0.030 A  
DOCKED: ATOM     43  C28 UNL     1      17.312  -4.632   2.098 +0.00 +0.00    +0.005 A  
DOCKED: ATOM     44  C29 UNL     1      18.635  -5.060   1.938 +0.00 +0.00    +0.000 A  
DOCKED: ATOM     45  C30 UNL     1      18.962  -5.958   0.926 +0.00 +0.00    +0.000 A  
DOCKED: ATOM     46  C31 UNL     1      17.968  -6.430   0.071 +0.00 +0.00    +0.000 A  
DOCKED: ATOM     47  C32 UNL     1      16.648  -6.007   0.229 +0.00 +0.00    +0.005 A  
DOCKED: ENDBRANCH  41  42
DOCKED: ENDBRANCH  39  41
DOCKED: ENDBRANCH  36  37
DOCKED: BRANCH  36  48
DOCKED: ATOM     48  C33 UNL     1      15.765  -0.391   2.829 +0.00 +0.00    +0.012 C  
DOCKED: ATOM     49  C34 UNL     1      16.932  -1.221   2.281 +0.00 +0.00    +0.009 C  
DOCKED: ATOM     50  C35 UNL     1      16.116   0.150   4.215 +0.00 +0.00    +0.009 C  
DOCKED: ENDBRANCH  36  48
DOCKED: ENDBRANCH  34  36
DOCKED: ENDBRANCH  31  32
DOCKED: ENDBRANCH  28  31
DOCKED: ENDBRANCH   1  28
DOCKED: BRANCH   1  51
DOCKED: ATOM     51  C17 UNL     1      12.043  -0.514  -2.548 +0.00 +0.00    +0.028 C  
DOCKED: BRANCH  51  52
DOCKED: ATOM     52  C18 UNL     1      12.910  -0.381  -3.818 +0.00 -0.00    -0.015 C  
DOCKED: ATOM     53  C19 UNL     1      12.195  -0.882  -5.074 +0.00 +0.00    +0.007 C  
DOCKED: ATOM     54  C20 UNL     1      13.323   1.081  -4.014 +0.00 +0.00    +0.007 C  
DOCKED: ENDBRANCH  51  52
DOCKED: ENDBRANCH   1  51
DOCKED: TORSDOF 22
DOCKED: TER
DOCKED: ENDMDL
________________________________________________________________________________


    CLUSTERING HISTOGRAM
    ____________________


________________________________________________________________________________
     |           |     |           |     |
Clus | Lowest    | Run | Mean      | Num | Histogram
-ter | Binding   |     | Binding   | in  |
Rank | Energy    |     | Energy    | Clus|    5    10   15   20   25   30   35
_____|___________|_____|___________|_____|____:____|____:____|____:____|____:___
   1 |     +6.56 |   1 |     +6.56 |   1 |#
   2 |     +6.56 |   2 |     +6.56 |   1 |#
   3 |     +6.56 |   3 |     +6.56 |   1 |#
   4 |     +6.56 |   4 |     +6.56 |   1 |#
   5 |     +6.56 |   5 |     +6.56 |   1 |#
   6 |     +6.56 |   6 |     +6.56 |   1 |#
   7 |     +6.56 |   7 |     +6.56 |   1 |#
   8 |     +6.56 |   8 |     +6.56 |   1 |#
   9 |     +6.56 |   9 |     +6.56 |   1 |#
  10 |     +6.56 |  10 |     +6.56 |   1 |#
  11 |     +6.56 |  11 |     +6.56 |   1 |#
  12 |     +6.56 |  12 |     +6.56 |   1 |#
  13 |     +6.56 |  13 |     +6.56 |   1 |#
  14 |     +6.56 |  14 |     +6.56 |   1 |#
  15 |     +6.56 |  15 |     +6.56 |   1 |#
  16 |     +6.56 |  16 |     +6.56 |   1 |#
  17 |     +6.56 |  17 |     +6.56 |   1 |#
  18 |     +6.56 |  18 |     +6.56 |   1 |#
  19 |     +6.56 |  19 |     +6.56 |   1 |#
  20 |     +6.56 |  20 |     +6.56 |   1 |#
_____|___________|_____|___________|_____|______________________________________


    RMSD TABLE
    __________


_______________________________________________________________________
     |      |      |           |         |                 |
Rank | Sub- | Run  | Binding   | Cluster | Reference       | Grep
     | Rank |      | Energy    | RMSD    | RMSD            | Pattern
_____|______|______|___________|_________|_________________|___________
   1      1      1       +6.56      0.00      8.38           RANKING
   2      1      2       +6.56      0.00     11.70           RANKING
   3      1      3       +6.56      0.00     14.20           RANKING
   4      1      4       +6.56      0.00      9.15           RANKING
   5      1      5       +6.56      0.00      8.80           RANKING
   6      1      6       +6.56      0.00      9.03           RANKING
   7      1      7       +6.56      0.00     10.51           RANKING
   8      1      8       +6.56      0.00      9.07           RANKING
   9      1      9       +6.56      0.00     10.73           RANKING
  10      1     10       +6.56      0.00     13.66           RANKING
  11      1     11       +6.56      0.00      9.85           RANKING
  12      1     12       +6.56      0.00     10.80           RANKING
  13      1     13       +6.56      0.00     14.59           RANKING
  14      1     14       +6.56      0.00     11.21           RANKING
  15      1     15       +6.56      0.00      7.57           RANKING
  16      1     16       +6.56      0.00      9.10           RANKING
  17      1     17       +6.56      0.00      9.00           RANKING
  18      1     18       +6.56      0.00      7.85           RANKING
  19      1     19       +6.56      0.00     11.28           RANKING
  20      1     20       +6.56      0.00     11.85           RANKING

Run time 34.071 sec
Idle time 0.288 sec
