AutoDock-GPU version: v1.6

**********************************************************
**    AutoDock-GPU AUTODOCKTOOLS-COMPATIBLE DLG FILE    **
**********************************************************


    DOCKING PARAMETERS
    ________________________


Ligand file:                               ligands/ligand_20.pdbqt
Grid fld file:                             protein.maps.fld

Random seed:                               1770972703, 28124
Number of runs:                            20
Number of energy evaluations:              9755677
Number of generations:                     42000
Size of population:                        150
Rate of crossover:                         80.000000%
Tournament selection probability limit:    60.000000%
Rate of mutation:                          2.000000%
Maximal allowed delta movement:            +/- 6.000000A
Maximal allowed delta angle:               +/- 90.000000

Rate of local search:                      100.000000%
Maximal number of local search iterations: 300
Rho lower bound:                           0.010000
Spread of local search delta movement:     2.000000A
Spread of local search delta angle:        74.999999
Limit of consecutive successes/failures:   4

Handle symmetry during clustering:         YES
RMSD tolerance:                            2.000000A

Program call in command line was:          ./autodock-gpu --ffile protein.maps.fld --lfile ligands/ligand_20.pdbqt --nrun 20 


    GRID PARAMETERS
    ________________________


Receptor name:                             #MACROMOLECULE
Number of grid points (x, y, z):           61, 61, 61
Grid center (x, y, z):                     10.261000, -3.492000, -0.127000A
Grid size (x, y, z):                       22.500000, 22.500000, 22.500000A
Grid spacing:                              0.375000A


    LIGAND PARAMETERS
    ________________________


Ligand name:                               ligands/ligand_20
Number of atoms:                           57
Number of rotatable bonds:                 21
Number of atom types:                      6


    DUMMY DATA (only for ADT-compatibility)
    ________________________


DPF> outlev 1
DPF> ga_run 20
DPF> fld protein.maps.fld
DPF> move ligands/ligand_20.pdbqt


    COUNTER STATES
    ________________________


Number of energy evaluations performed:    5002187
Number of generations used:                200


    INPUT LIGAND PDBQT FILE:
    ________________________


INPUT-LIGAND-PDBQT: REMARK  Name = ligands/ligand_20.pdb
INPUT-LIGAND-PDBQT: REMARK  30 active torsions:
INPUT-LIGAND-PDBQT: REMARK  status: ('A' for Active; 'I' for Inactive)
INPUT-LIGAND-PDBQT: REMARK    1  A    between atoms: C1_1  and  C2_2
INPUT-LIGAND-PDBQT: REMARK    2  A    between atoms: C2_2  and  C3_3
INPUT-LIGAND-PDBQT: REMARK    3  A    between atoms: C2_2  and  C4_4
INPUT-LIGAND-PDBQT: REMARK    4  A    between atoms: C4_4  and  C5_5
INPUT-LIGAND-PDBQT: REMARK    5  A    between atoms: C5_5  and  N1_6
INPUT-LIGAND-PDBQT: REMARK    6  A    between atoms: C5_5  and  C11_14
INPUT-LIGAND-PDBQT: REMARK    7  A    between atoms: C6_7  and  O2_9
INPUT-LIGAND-PDBQT: REMARK    8  A    between atoms: O2_9  and  C7_10
INPUT-LIGAND-PDBQT: REMARK    9  A    between atoms: C7_10  and  C8_11
INPUT-LIGAND-PDBQT: REMARK   10  A    between atoms: C7_10  and  C9_12
INPUT-LIGAND-PDBQT: REMARK   11  A    between atoms: C7_10  and  C10_13
INPUT-LIGAND-PDBQT: REMARK   12  A    between atoms: N2_16  and  C12_17
INPUT-LIGAND-PDBQT: REMARK   13  A    between atoms: C12_17  and  C13_18
INPUT-LIGAND-PDBQT: REMARK   14  A    between atoms: C12_17  and  C14_19
INPUT-LIGAND-PDBQT: REMARK   15  A    between atoms: N3_21  and  C15_22
INPUT-LIGAND-PDBQT: REMARK   16  A    between atoms: C15_22  and  C16_23
INPUT-LIGAND-PDBQT: REMARK   17  A    between atoms: C15_22  and  C23_30
INPUT-LIGAND-PDBQT: REMARK   18  A    between atoms: C16_23  and  C17_24
INPUT-LIGAND-PDBQT: REMARK   19  A    between atoms: C23_30  and  O5_31
INPUT-LIGAND-PDBQT: REMARK   20  A    between atoms: C23_30  and  C24_32
INPUT-LIGAND-PDBQT: REMARK   21  A    between atoms: C24_32  and  C25_33
INPUT-LIGAND-PDBQT: REMARK   22  A    between atoms: C25_33  and  C26_34
INPUT-LIGAND-PDBQT: REMARK   23  A    between atoms: C25_33  and  C27_35
INPUT-LIGAND-PDBQT: REMARK   24  A    between atoms: N4_37  and  C28_38
INPUT-LIGAND-PDBQT: REMARK   25  A    between atoms: C28_38  and  C29_39
INPUT-LIGAND-PDBQT: REMARK   26  A    between atoms: C28_38  and  C36_49
INPUT-LIGAND-PDBQT: REMARK   27  A    between atoms: N5_41  and  C30_42
INPUT-LIGAND-PDBQT: REMARK   28  A    between atoms: C30_42  and  C31_43
INPUT-LIGAND-PDBQT: REMARK   29  A    between atoms: C36_49  and  C37_50
INPUT-LIGAND-PDBQT: REMARK   30  A    between atoms: C36_49  and  C38_51
INPUT-LIGAND-PDBQT: REMARK                            x       y       z     vdW  Elec       q    Type
INPUT-LIGAND-PDBQT: REMARK                         _______ _______ _______ _____ _____    ______ ____
INPUT-LIGAND-PDBQT: ROOT
INPUT-LIGAND-PDBQT: ATOM      1  C15 UNL     1      -1.832   0.545  -2.996  0.00  0.00    +0.106 C 
INPUT-LIGAND-PDBQT: ENDROOT
INPUT-LIGAND-PDBQT: BRANCH   1   4
INPUT-LIGAND-PDBQT: ATOM      2  C14 UNL     1      -0.655  -0.943  -1.363  0.00  0.00    +0.233 C 
INPUT-LIGAND-PDBQT: ATOM      3  O4  UNL     1       0.072  -0.057  -0.923  0.00  0.00    -0.274 OA
INPUT-LIGAND-PDBQT: ATOM      4  N3  UNL     1      -1.657  -0.709  -2.271  0.00  0.00    -0.308 N 
INPUT-LIGAND-PDBQT: ATOM      5  H26 UNL     1      -2.287  -1.456  -2.545  0.00  0.00    +0.149 HD
INPUT-LIGAND-PDBQT: BRANCH   2   6
INPUT-LIGAND-PDBQT: ATOM      6  C12 UNL     1      -0.553  -2.414  -0.910  0.00  0.00    +0.156 C 
INPUT-LIGAND-PDBQT: ATOM      7  C13 UNL     1      -1.589  -2.690   0.174  0.00  0.00    +0.038 C 
INPUT-LIGAND-PDBQT: BRANCH   6  10
INPUT-LIGAND-PDBQT: ATOM      8  C11 UNL     1       1.818  -2.857  -1.334  0.00  0.00    +0.234 C 
INPUT-LIGAND-PDBQT: ATOM      9  O3  UNL     1       1.595  -2.874  -2.547  0.00  0.00    -0.274 OA
INPUT-LIGAND-PDBQT: ATOM     10  N2  UNL     1       0.795  -2.684  -0.417  0.00  0.00    -0.303 N 
INPUT-LIGAND-PDBQT: ATOM     11  H21 UNL     1       1.038  -2.177   0.425  0.00  0.00    +0.149 HD
INPUT-LIGAND-PDBQT: BRANCH   8  12
INPUT-LIGAND-PDBQT: ATOM     12  C5  UNL     1       3.234  -3.117  -0.752  0.00  0.00    +0.162 C 
INPUT-LIGAND-PDBQT: BRANCH  12  13
INPUT-LIGAND-PDBQT: ATOM     13  N1  UNL     1       4.199  -2.715  -1.775  0.00  0.00    -0.270 N 
INPUT-LIGAND-PDBQT: ATOM     14  C6  UNL     1       5.115  -3.559  -2.315  0.00  0.00    +0.401 C 
INPUT-LIGAND-PDBQT: ATOM     15  O1  UNL     1       5.317  -4.707  -1.947  0.00  0.00    -0.226 OA
INPUT-LIGAND-PDBQT: ATOM     16  H11 UNL     1       4.043  -1.856  -2.291  0.00  0.00    +0.153 HD
INPUT-LIGAND-PDBQT: BRANCH  14  17
INPUT-LIGAND-PDBQT: ATOM     17  O2  UNL     1       5.765  -2.912  -3.309  0.00  0.00    -0.445 OA
INPUT-LIGAND-PDBQT: BRANCH  17  18
INPUT-LIGAND-PDBQT: ATOM     18  C7  UNL     1       6.828  -3.574  -4.040  0.00  0.00    +0.107 C 
INPUT-LIGAND-PDBQT: ATOM     19  C8  UNL     1       6.293  -4.789  -4.809  0.00  0.00    +0.055 C 
INPUT-LIGAND-PDBQT: ATOM     20  C9  UNL     1       8.002  -3.941  -3.119  0.00  0.00    +0.055 C 
INPUT-LIGAND-PDBQT: ATOM     21  C10 UNL     1       7.315  -2.523  -5.047  0.00  0.00    +0.055 C 
INPUT-LIGAND-PDBQT: ENDBRANCH  17  18
INPUT-LIGAND-PDBQT: ENDBRANCH  14  17
INPUT-LIGAND-PDBQT: ENDBRANCH  12  13
INPUT-LIGAND-PDBQT: BRANCH  12  22
INPUT-LIGAND-PDBQT: ATOM     22  C4  UNL     1       3.571  -2.390   0.561  0.00  0.00    +0.035 C 
INPUT-LIGAND-PDBQT: BRANCH  22  24
INPUT-LIGAND-PDBQT: ATOM     23  C1  UNL     1       4.011  -4.439   2.021  0.00  0.00    +0.007 C 
INPUT-LIGAND-PDBQT: ATOM     24  C2  UNL     1       3.186  -3.161   1.845  0.00  0.00    -0.015 C 
INPUT-LIGAND-PDBQT: ATOM     25  C3  UNL     1       3.381  -2.264   3.074  0.00  0.00    +0.007 C 
INPUT-LIGAND-PDBQT: ENDBRANCH  22  24
INPUT-LIGAND-PDBQT: ENDBRANCH  12  22
INPUT-LIGAND-PDBQT: ENDBRANCH   8  12
INPUT-LIGAND-PDBQT: ENDBRANCH   6  10
INPUT-LIGAND-PDBQT: ENDBRANCH   2   6
INPUT-LIGAND-PDBQT: ENDBRANCH   1   4
INPUT-LIGAND-PDBQT: BRANCH   1  26
INPUT-LIGAND-PDBQT: ATOM     26  C16 UNL     1      -1.549   0.357  -4.508  0.00  0.00    +0.060 C 
INPUT-LIGAND-PDBQT: BRANCH  26  27
INPUT-LIGAND-PDBQT: ATOM     27  C17 UNL     1      -2.360  -0.693  -5.232  0.00  0.00    -0.046 A 
INPUT-LIGAND-PDBQT: ATOM     28  C18 UNL     1      -3.556  -0.345  -5.881  0.00  0.00    +0.004 A 
INPUT-LIGAND-PDBQT: ATOM     29  C19 UNL     1      -4.312  -1.315  -6.539  0.00  0.00    +0.000 A 
INPUT-LIGAND-PDBQT: ATOM     30  C20 UNL     1      -3.875  -2.639  -6.571  0.00  0.00    +0.000 A 
INPUT-LIGAND-PDBQT: ATOM     31  C21 UNL     1      -2.680  -2.991  -5.947  0.00  0.00    +0.000 A 
INPUT-LIGAND-PDBQT: ATOM     32  C22 UNL     1      -1.926  -2.025  -5.275  0.00  0.00    +0.004 A 
INPUT-LIGAND-PDBQT: ENDBRANCH  26  27
INPUT-LIGAND-PDBQT: ENDBRANCH   1  26
INPUT-LIGAND-PDBQT: BRANCH   1  33
INPUT-LIGAND-PDBQT: ATOM     33  C23 UNL     1      -3.229   1.152  -2.709  0.00  0.00    +0.136 C 
INPUT-LIGAND-PDBQT: BRANCH  33  34
INPUT-LIGAND-PDBQT: ATOM     34  O5  UNL     1      -4.222   0.115  -2.742  0.00  0.00    -0.390 OA
INPUT-LIGAND-PDBQT: ATOM     35  H36 UNL     1      -5.091   0.537  -2.638  0.00  0.00    +0.210 HD
INPUT-LIGAND-PDBQT: ENDBRANCH  33  34
INPUT-LIGAND-PDBQT: BRANCH  33  36
INPUT-LIGAND-PDBQT: ATOM     36  C24 UNL     1      -3.316   1.834  -1.333  0.00  0.00    +0.045 C 
INPUT-LIGAND-PDBQT: BRANCH  36  37
INPUT-LIGAND-PDBQT: ATOM     37  C25 UNL     1      -2.362   3.027  -1.098  0.00  0.00    +0.074 C 
INPUT-LIGAND-PDBQT: ATOM     38  C26 UNL     1      -2.344   4.023  -2.262  0.00  0.00    +0.017 C 
INPUT-LIGAND-PDBQT: BRANCH  37  39
INPUT-LIGAND-PDBQT: ATOM     39  C27 UNL     1      -2.770   3.743   0.187  0.00  0.00    +0.217 C 
INPUT-LIGAND-PDBQT: ATOM     40  O6  UNL     1      -3.305   4.849   0.195  0.00  0.00    -0.276 OA
INPUT-LIGAND-PDBQT: ATOM     41  N4  UNL     1      -2.536   3.023   1.333  0.00  0.00    -0.304 N 
INPUT-LIGAND-PDBQT: ATOM     42  H43 UNL     1      -1.984   2.170   1.305  0.00  0.00    +0.149 HD
INPUT-LIGAND-PDBQT: BRANCH  41  43
INPUT-LIGAND-PDBQT: ATOM     43  C28 UNL     1      -2.910   3.522   2.657  0.00  0.00    +0.161 C 
INPUT-LIGAND-PDBQT: BRANCH  43  44
INPUT-LIGAND-PDBQT: ATOM     44  C29 UNL     1      -1.992   2.832   3.693  0.00  0.00    +0.234 C 
INPUT-LIGAND-PDBQT: ATOM     45  O7  UNL     1      -1.436   1.759   3.457  0.00  0.00    -0.274 OA
INPUT-LIGAND-PDBQT: ATOM     46  N5  UNL     1      -1.871   3.500   4.892  0.00  0.00    -0.310 N 
INPUT-LIGAND-PDBQT: ATOM     47  H45 UNL     1      -2.422   4.335   5.051  0.00  0.00    +0.149 HD
INPUT-LIGAND-PDBQT: BRANCH  46  48
INPUT-LIGAND-PDBQT: ATOM     48  C30 UNL     1      -1.221   2.905   6.039  0.00  0.00    +0.139 C 
INPUT-LIGAND-PDBQT: BRANCH  48  49
INPUT-LIGAND-PDBQT: ATOM     49  C31 UNL     1      -2.213   2.122   6.856  0.00  0.00    -0.027 A 
INPUT-LIGAND-PDBQT: ATOM     50  C32 UNL     1      -2.451   0.775   6.565  0.00  0.00    +0.025 A 
INPUT-LIGAND-PDBQT: ATOM     51  C33 UNL     1      -3.412   0.093   7.296  0.00  0.00    +0.111 A 
INPUT-LIGAND-PDBQT: ATOM     52  N6  UNL     1      -4.141   0.655   8.290  0.00  0.00    -0.263 NA
INPUT-LIGAND-PDBQT: ATOM     53  C34 UNL     1      -3.905   1.960   8.548  0.00  0.00    +0.111 A 
INPUT-LIGAND-PDBQT: ATOM     54  C35 UNL     1      -2.966   2.725   7.869  0.00  0.00    +0.025 A 
INPUT-LIGAND-PDBQT: ENDBRANCH  48  49
INPUT-LIGAND-PDBQT: ENDBRANCH  46  48
INPUT-LIGAND-PDBQT: ENDBRANCH  43  44
INPUT-LIGAND-PDBQT: BRANCH  43  55
INPUT-LIGAND-PDBQT: ATOM     55  C36 UNL     1      -4.423   3.313   2.922  0.00  0.00    +0.012 C 
INPUT-LIGAND-PDBQT: ATOM     56  C37 UNL     1      -4.811   1.834   3.034  0.00  0.00    +0.009 C 
INPUT-LIGAND-PDBQT: ATOM     57  C38 UNL     1      -4.923   4.098   4.138  0.00  0.00    +0.009 C 
INPUT-LIGAND-PDBQT: ENDBRANCH  43  55
INPUT-LIGAND-PDBQT: ENDBRANCH  41  43
INPUT-LIGAND-PDBQT: ENDBRANCH  37  39
INPUT-LIGAND-PDBQT: ENDBRANCH  36  37
INPUT-LIGAND-PDBQT: ENDBRANCH  33  36
INPUT-LIGAND-PDBQT: ENDBRANCH   1  33
INPUT-LIGAND-PDBQT: TORSDOF 21


    FINAL DOCKED STATE:
    ________________________


Run:   1 / 20
Time taken for this run:   1.486s

DOCKED: MODEL        1
DOCKED: USER    Run = 1
DOCKED: USER
DOCKED: USER    Estimated Free Energy of Binding    =  +6.26 kcal/mol  [=(1)+(2)+(3)-(4)]
DOCKED: USER
DOCKED: USER    (1) Final Intermolecular Energy     =  +0.00 kcal/mol
DOCKED: USER        vdW + Hbond + desolv Energy     =  +0.00 kcal/mol
DOCKED: USER        Electrostatic Energy            =  +0.00 kcal/mol
DOCKED: USER        Moving Ligand-Fixed Receptor    =  +0.00 kcal/mol
DOCKED: USER        Moving Ligand-Moving Receptor   =  +0.00 kcal/mol
DOCKED: USER    (2) Final Total Internal Energy     = -14.80 kcal/mol
DOCKED: USER    (3) Torsional Free Energy           =  +6.26 kcal/mol
DOCKED: USER    (4) Unbound System's Energy         = -14.80 kcal/mol
DOCKED: USER
DOCKED: USER
DOCKED: REMARK  Name = ligands/ligand_20.pdb
DOCKED: REMARK  30 active torsions:
DOCKED: REMARK  status: ('A' for Active; 'I' for Inactive)
DOCKED: REMARK    1  A    between atoms: C1_1  and  C2_2
DOCKED: REMARK    2  A    between atoms: C2_2  and  C3_3
DOCKED: REMARK    3  A    between atoms: C2_2  and  C4_4
DOCKED: REMARK    4  A    between atoms: C4_4  and  C5_5
DOCKED: REMARK    5  A    between atoms: C5_5  and  N1_6
DOCKED: REMARK    6  A    between atoms: C5_5  and  C11_14
DOCKED: REMARK    7  A    between atoms: C6_7  and  O2_9
DOCKED: REMARK    8  A    between atoms: O2_9  and  C7_10
DOCKED: REMARK    9  A    between atoms: C7_10  and  C8_11
DOCKED: REMARK   10  A    between atoms: C7_10  and  C9_12
DOCKED: REMARK   11  A    between atoms: C7_10  and  C10_13
DOCKED: REMARK   12  A    between atoms: N2_16  and  C12_17
DOCKED: REMARK   13  A    between atoms: C12_17  and  C13_18
DOCKED: REMARK   14  A    between atoms: C12_17  and  C14_19
DOCKED: REMARK   15  A    between atoms: N3_21  and  C15_22
DOCKED: REMARK   16  A    between atoms: C15_22  and  C16_23
DOCKED: REMARK   17  A    between atoms: C15_22  and  C23_30
DOCKED: REMARK   18  A    between atoms: C16_23  and  C17_24
DOCKED: REMARK   19  A    between atoms: C23_30  and  O5_31
DOCKED: REMARK   20  A    between atoms: C23_30  and  C24_32
DOCKED: REMARK   21  A    between atoms: C24_32  and  C25_33
DOCKED: REMARK   22  A    between atoms: C25_33  and  C26_34
DOCKED: REMARK   23  A    between atoms: C25_33  and  C27_35
DOCKED: REMARK   24  A    between atoms: N4_37  and  C28_38
DOCKED: REMARK   25  A    between atoms: C28_38  and  C29_39
DOCKED: REMARK   26  A    between atoms: C28_38  and  C36_49
DOCKED: REMARK   27  A    between atoms: N5_41  and  C30_42
DOCKED: REMARK   28  A    between atoms: C30_42  and  C31_43
DOCKED: REMARK   29  A    between atoms: C36_49  and  C37_50
DOCKED: REMARK   30  A    between atoms: C36_49  and  C38_51
DOCKED: REMARK                            x       y       z     vdW  Elec       q    Type
DOCKED: REMARK                         _______ _______ _______ _____ _____    ______ ____
DOCKED: USER                              x       y       z     vdW  Elec       q    Type
DOCKED: USER                           _______ _______ _______ _____ _____    ______ ____
DOCKED: ROOT
DOCKED: ATOM      1  C15 UNL     1       9.906  -7.077  -3.534 +0.00 +0.00    +0.106 C  
DOCKED: ENDROOT
DOCKED: BRANCH   1   4
DOCKED: ATOM      2  C14 UNL     1      11.827  -8.106  -2.302 +0.00 +0.00    +0.233 C  
DOCKED: ATOM      3  O4  UNL     1      12.385  -8.523  -3.312 +0.00 -0.00    -0.274 OA 
DOCKED: ATOM      4  N3  UNL     1      10.704  -7.318  -2.336 +0.00 -0.00    -0.308 N  
DOCKED: ATOM      5  H26 UNL     1      10.323  -6.927  -1.480 +0.00 +0.00    +0.149 HD 
DOCKED: BRANCH   2   6
DOCKED: ATOM      6  C12 UNL     1      12.352  -8.383  -0.878 +0.00 +0.00    +0.156 C  
DOCKED: ATOM      7  C13 UNL     1      12.881  -9.811  -0.795 +0.00 +0.00    +0.038 C  
DOCKED: BRANCH   6  10
DOCKED: ATOM      8  C11 UNL     1      11.604  -8.082   1.434 +0.00 +0.00    +0.234 C  
DOCKED: ATOM      9  O3  UNL     1      12.758  -8.262   1.829 +0.00 -0.00    -0.274 OA 
DOCKED: ATOM     10  N2  UNL     1      11.280  -8.173   0.091 +0.00 -0.00    -0.303 N  
DOCKED: ATOM     11  H21 UNL     1      10.547  -7.552  -0.229 +0.00 +0.00    +0.149 HD 
DOCKED: BRANCH   8  12
DOCKED: ATOM     12  C5  UNL     1      10.426  -7.833   2.416 +0.00 +0.00    +0.162 C  
DOCKED: BRANCH  12  13
DOCKED: ATOM     13  N1  UNL     1       9.726  -6.636   1.952 +0.00 -0.00    -0.270 N  
DOCKED: ATOM     14  C6  UNL     1       8.970  -6.599   0.824 +0.00 +0.00    +0.401 C  
DOCKED: ATOM     15  O1  UNL     1       8.869  -7.510   0.015 +0.00 -0.00    -0.226 OA 
DOCKED: ATOM     16  H11 UNL     1       9.581  -5.867   2.597 +0.00 +0.00    +0.153 HD 
DOCKED: BRANCH  14  17
DOCKED: ATOM     17  O2  UNL     1       8.368  -5.390   0.748 +0.00 -0.00    -0.445 OA 
DOCKED: BRANCH  17  18
DOCKED: ATOM     18  C7  UNL     1       6.925  -5.298   0.641 +0.00 +0.00    +0.107 C  
DOCKED: ATOM     19  C8  UNL     1       6.242  -5.890   1.881 +0.00 +0.00    +0.055 C  
DOCKED: ATOM     20  C9  UNL     1       6.414  -5.932  -0.662 +0.00 +0.00    +0.055 C  
DOCKED: ATOM     21  C10 UNL     1       6.639  -3.790   0.589 +0.00 +0.00    +0.055 C  
DOCKED: ENDBRANCH  17  18
DOCKED: ENDBRANCH  14  17
DOCKED: ENDBRANCH  12  13
DOCKED: BRANCH  12  22
DOCKED: ATOM     22  C4  UNL     1       9.410  -8.979   2.559 +0.00 +0.00    +0.035 C  
DOCKED: BRANCH  22  24
DOCKED: ATOM     23  C1  UNL     1       6.900  -9.447   2.620 +0.00 +0.00    +0.007 C  
DOCKED: ATOM     24  C2  UNL     1       8.037  -8.558   3.132 +0.00 -0.00    -0.015 C  
DOCKED: ATOM     25  C3  UNL     1       8.068  -8.616   4.665 +0.00 +0.00    +0.007 C  
DOCKED: ENDBRANCH  22  24
DOCKED: ENDBRANCH  12  22
DOCKED: ENDBRANCH   8  12
DOCKED: ENDBRANCH   6  10
DOCKED: ENDBRANCH   2   6
DOCKED: ENDBRANCH   1   4
DOCKED: BRANCH   1  26
DOCKED: ATOM     26  C16 UNL     1       9.133  -8.353  -3.953 +0.00 +0.00    +0.060 C  
DOCKED: BRANCH  26  27
DOCKED: ATOM     27  C17 UNL     1       8.515  -9.175  -2.846 +0.00 -0.00    -0.046 A  
DOCKED: ATOM     28  C18 UNL     1       7.248  -8.846  -2.338 +0.00 +0.00    +0.004 A  
DOCKED: ATOM     29  C19 UNL     1       6.681  -9.596  -1.308 +0.00 +0.00    +0.000 A  
DOCKED: ATOM     30  C20 UNL     1       7.365 -10.692  -0.784 +0.00 +0.00    +0.000 A  
DOCKED: ATOM     31  C21 UNL     1       8.614 -11.040  -1.294 +0.00 +0.00    +0.000 A  
DOCKED: ATOM     32  C22 UNL     1       9.192 -10.283  -2.317 +0.00 +0.00    +0.004 A  
DOCKED: ENDBRANCH  26  27
DOCKED: ENDBRANCH   1  26
DOCKED: BRANCH   1  33
DOCKED: ATOM     33  C23 UNL     1       8.986  -5.845  -3.339 +0.00 +0.00    +0.136 C  
DOCKED: BRANCH  33  34
DOCKED: ATOM     34  O5  UNL     1       9.195  -5.288  -2.032 +0.00 -0.00    -0.390 OA 
DOCKED: ATOM     35  H36 UNL     1       8.765  -5.876  -1.390 +0.00 +0.00    +0.210 HD 
DOCKED: ENDBRANCH  33  34
DOCKED: BRANCH  33  36
DOCKED: ATOM     36  C24 UNL     1       9.251  -4.730  -4.366 +0.00 +0.00    +0.045 C  
DOCKED: BRANCH  36  37
DOCKED: ATOM     37  C25 UNL     1      10.701  -4.608  -4.887 +0.00 +0.00    +0.074 C  
DOCKED: ATOM     38  C26 UNL     1      10.790  -3.976  -6.280 +0.00 +0.00    +0.017 C  
DOCKED: BRANCH  37  39
DOCKED: ATOM     39  C27 UNL     1      11.517  -3.785  -3.894 +0.00 +0.00    +0.217 C  
DOCKED: ATOM     40  O6  UNL     1      12.073  -2.732  -4.196 +0.00 -0.00    -0.276 OA 
DOCKED: ATOM     41  N4  UNL     1      11.535  -4.295  -2.618 +0.00 -0.00    -0.304 N  
DOCKED: ATOM     42  H43 UNL     1      11.173  -5.225  -2.427 +0.00 +0.00    +0.149 HD 
DOCKED: BRANCH  41  43
DOCKED: ATOM     43  C28 UNL     1      12.220  -3.616  -1.518 +0.00 +0.00    +0.161 C  
DOCKED: BRANCH  43  44
DOCKED: ATOM     44  C29 UNL     1      12.296  -4.607  -0.332 +0.00 +0.00    +0.234 C  
DOCKED: ATOM     45  O7  UNL     1      11.599  -5.621  -0.287 +0.00 -0.00    -0.274 OA 
DOCKED: ATOM     46  N5  UNL     1      13.180  -4.250   0.663 +0.00 -0.00    -0.310 N  
DOCKED: ATOM     47  H45 UNL     1      13.660  -3.361   0.602 +0.00 +0.00    +0.149 HD 
DOCKED: BRANCH  46  48
DOCKED: ATOM     48  C30 UNL     1      13.231  -4.948   1.929 +0.00 +0.00    +0.139 C  
DOCKED: BRANCH  48  49
DOCKED: ATOM     49  C31 UNL     1      11.980  -4.686   2.723 +0.00 -0.00    -0.027 A  
DOCKED: ATOM     50  C32 UNL     1      11.750  -5.380   3.915 +0.00 +0.00    +0.025 A  
DOCKED: ATOM     51  C33 UNL     1      10.562  -5.162   4.597 +0.00 +0.00    +0.111 A  
DOCKED: ATOM     52  N6  UNL     1       9.600  -4.305   4.178 +0.00 -0.00    -0.263 NA 
DOCKED: ATOM     53  C34 UNL     1       9.836  -3.654   3.018 +0.00 +0.00    +0.111 A  
DOCKED: ATOM     54  C35 UNL     1      10.992  -3.808   2.265 +0.00 +0.00    +0.025 A  
DOCKED: ENDBRANCH  48  49
DOCKED: ENDBRANCH  46  48
DOCKED: ENDBRANCH  43  44
DOCKED: BRANCH  43  55
DOCKED: ATOM     55  C36 UNL     1      11.522  -2.276  -1.171 +0.00 +0.00    +0.012 C  
DOCKED: ATOM     56  C37 UNL     1      10.078  -2.461  -0.693 +0.00 +0.00    +0.009 C  
DOCKED: ATOM     57  C38 UNL     1      12.321  -1.436  -0.170 +0.00 +0.00    +0.009 C  
DOCKED: ENDBRANCH  43  55
DOCKED: ENDBRANCH  41  43
DOCKED: ENDBRANCH  37  39
DOCKED: ENDBRANCH  36  37
DOCKED: ENDBRANCH  33  36
DOCKED: ENDBRANCH   1  33
DOCKED: TORSDOF 21
DOCKED: TER
DOCKED: ENDMDL
________________________________________________________________________________


    FINAL DOCKED STATE:
    ________________________


Run:   2 / 20
Time taken for this run:   1.486s

DOCKED: MODEL        2
DOCKED: USER    Run = 2
DOCKED: USER
DOCKED: USER    Estimated Free Energy of Binding    =  +6.26 kcal/mol  [=(1)+(2)+(3)-(4)]
DOCKED: USER
DOCKED: USER    (1) Final Intermolecular Energy     =  +0.00 kcal/mol
DOCKED: USER        vdW + Hbond + desolv Energy     =  +0.00 kcal/mol
DOCKED: USER        Electrostatic Energy            =  +0.00 kcal/mol
DOCKED: USER        Moving Ligand-Fixed Receptor    =  +0.00 kcal/mol
DOCKED: USER        Moving Ligand-Moving Receptor   =  +0.00 kcal/mol
DOCKED: USER    (2) Final Total Internal Energy     = -15.04 kcal/mol
DOCKED: USER    (3) Torsional Free Energy           =  +6.26 kcal/mol
DOCKED: USER    (4) Unbound System's Energy         = -15.04 kcal/mol
DOCKED: USER
DOCKED: USER
DOCKED: REMARK  Name = ligands/ligand_20.pdb
DOCKED: REMARK  30 active torsions:
DOCKED: REMARK  status: ('A' for Active; 'I' for Inactive)
DOCKED: REMARK    1  A    between atoms: C1_1  and  C2_2
DOCKED: REMARK    2  A    between atoms: C2_2  and  C3_3
DOCKED: REMARK    3  A    between atoms: C2_2  and  C4_4
DOCKED: REMARK    4  A    between atoms: C4_4  and  C5_5
DOCKED: REMARK    5  A    between atoms: C5_5  and  N1_6
DOCKED: REMARK    6  A    between atoms: C5_5  and  C11_14
DOCKED: REMARK    7  A    between atoms: C6_7  and  O2_9
DOCKED: REMARK    8  A    between atoms: O2_9  and  C7_10
DOCKED: REMARK    9  A    between atoms: C7_10  and  C8_11
DOCKED: REMARK   10  A    between atoms: C7_10  and  C9_12
DOCKED: REMARK   11  A    between atoms: C7_10  and  C10_13
DOCKED: REMARK   12  A    between atoms: N2_16  and  C12_17
DOCKED: REMARK   13  A    between atoms: C12_17  and  C13_18
DOCKED: REMARK   14  A    between atoms: C12_17  and  C14_19
DOCKED: REMARK   15  A    between atoms: N3_21  and  C15_22
DOCKED: REMARK   16  A    between atoms: C15_22  and  C16_23
DOCKED: REMARK   17  A    between atoms: C15_22  and  C23_30
DOCKED: REMARK   18  A    between atoms: C16_23  and  C17_24
DOCKED: REMARK   19  A    between atoms: C23_30  and  O5_31
DOCKED: REMARK   20  A    between atoms: C23_30  and  C24_32
DOCKED: REMARK   21  A    between atoms: C24_32  and  C25_33
DOCKED: REMARK   22  A    between atoms: C25_33  and  C26_34
DOCKED: REMARK   23  A    between atoms: C25_33  and  C27_35
DOCKED: REMARK   24  A    between atoms: N4_37  and  C28_38
DOCKED: REMARK   25  A    between atoms: C28_38  and  C29_39
DOCKED: REMARK   26  A    between atoms: C28_38  and  C36_49
DOCKED: REMARK   27  A    between atoms: N5_41  and  C30_42
DOCKED: REMARK   28  A    between atoms: C30_42  and  C31_43
DOCKED: REMARK   29  A    between atoms: C36_49  and  C37_50
DOCKED: REMARK   30  A    between atoms: C36_49  and  C38_51
DOCKED: REMARK                            x       y       z     vdW  Elec       q    Type
DOCKED: REMARK                         _______ _______ _______ _____ _____    ______ ____
DOCKED: USER                              x       y       z     vdW  Elec       q    Type
DOCKED: USER                           _______ _______ _______ _____ _____    ______ ____
DOCKED: ROOT
DOCKED: ATOM      1  C15 UNL     1       6.559  -0.068  -1.012 +0.00 +0.00    +0.106 C  
DOCKED: ENDROOT
DOCKED: BRANCH   1   4
DOCKED: ATOM      2  C14 UNL     1       5.479  -0.649   1.171 +0.00 +0.00    +0.233 C  
DOCKED: ATOM      3  O4  UNL     1       4.367  -0.837   0.687 +0.00 -0.00    -0.274 OA 
DOCKED: ATOM      4  N3  UNL     1       6.592  -0.387   0.412 +0.00 -0.00    -0.308 N  
DOCKED: ATOM      5  H26 UNL     1       7.507  -0.319   0.847 +0.00 +0.00    +0.149 HD 
DOCKED: BRANCH   2   6
DOCKED: ATOM      6  C12 UNL     1       5.761  -0.730   2.685 +0.00 +0.00    +0.156 C  
DOCKED: ATOM      7  C13 UNL     1       4.507  -0.342   3.461 +0.00 +0.00    +0.038 C  
DOCKED: BRANCH   6  10
DOCKED: ATOM      8  C11 UNL     1       7.759  -0.242   4.015 +0.00 +0.00    +0.234 C  
DOCKED: ATOM      9  O3  UNL     1       7.574  -1.274   4.665 +0.00 -0.00    -0.274 OA 
DOCKED: ATOM     10  N2  UNL     1       6.873   0.153   3.026 +0.00 -0.00    -0.303 N  
DOCKED: ATOM     11  H21 UNL     1       7.282   0.631   2.233 +0.00 +0.00    +0.149 HD 
DOCKED: BRANCH   8  12
DOCKED: ATOM     12  C5  UNL     1       8.935   0.725   4.318 +0.00 +0.00    +0.162 C  
DOCKED: BRANCH  12  13
DOCKED: ATOM     13  N1  UNL     1       9.977   0.457   3.327 +0.00 -0.00    -0.270 N  
DOCKED: ATOM     14  C6  UNL     1       9.842   0.731   2.004 +0.00 +0.00    +0.401 C  
DOCKED: ATOM     15  O1  UNL     1       8.818   1.127   1.469 +0.00 -0.00    -0.226 OA 
DOCKED: ATOM     16  H11 UNL     1      10.927   0.291   3.641 +0.00 +0.00    +0.153 HD 
DOCKED: BRANCH  14  17
DOCKED: ATOM     17  O2  UNL     1      11.020   0.479   1.389 +0.00 -0.00    -0.445 OA 
DOCKED: BRANCH  17  18
DOCKED: ATOM     18  C7  UNL     1      11.756   1.554   0.751 +0.00 +0.00    +0.107 C  
DOCKED: ATOM     19  C8  UNL     1      11.681   2.841   1.582 +0.00 +0.00    +0.055 C  
DOCKED: ATOM     20  C9  UNL     1      11.294   1.770  -0.698 +0.00 +0.00    +0.055 C  
DOCKED: ATOM     21  C10 UNL     1      13.210   1.063   0.726 +0.00 +0.00    +0.055 C  
DOCKED: ENDBRANCH  17  18
DOCKED: ENDBRANCH  14  17
DOCKED: ENDBRANCH  12  13
DOCKED: BRANCH  12  22
DOCKED: ATOM     22  C4  UNL     1       8.602   2.226   4.294 +0.00 +0.00    +0.035 C  
DOCKED: BRANCH  22  24
DOCKED: ATOM     23  C1  UNL     1       9.435   4.633   4.487 +0.00 +0.00    +0.007 C  
DOCKED: ATOM     24  C2  UNL     1       9.832   3.163   4.329 +0.00 -0.00    -0.015 C  
DOCKED: ATOM     25  C3  UNL     1      10.762   2.767   5.483 +0.00 +0.00    +0.007 C  
DOCKED: ENDBRANCH  22  24
DOCKED: ENDBRANCH  12  22
DOCKED: ENDBRANCH   8  12
DOCKED: ENDBRANCH   6  10
DOCKED: ENDBRANCH   2   6
DOCKED: ENDBRANCH   1   4
DOCKED: BRANCH   1  26
DOCKED: ATOM     26  C16 UNL     1       6.135   1.405  -1.242 +0.00 +0.00    +0.060 C  
DOCKED: BRANCH  26  27
DOCKED: ATOM     27  C17 UNL     1       6.738   2.443  -0.324 +0.00 -0.00    -0.046 A  
DOCKED: ATOM     28  C18 UNL     1       7.920   3.111  -0.686 +0.00 +0.00    +0.004 A  
DOCKED: ATOM     29  C19 UNL     1       8.484   4.061   0.165 +0.00 +0.00    +0.000 A  
DOCKED: ATOM     30  C20 UNL     1       7.868   4.367   1.378 +0.00 +0.00    +0.000 A  
DOCKED: ATOM     31  C21 UNL     1       6.685   3.724   1.738 +0.00 +0.00    +0.000 A  
DOCKED: ATOM     32  C22 UNL     1       6.123   2.762   0.894 +0.00 +0.00    +0.004 A  
DOCKED: ENDBRANCH  26  27
DOCKED: ENDBRANCH   1  26
DOCKED: BRANCH   1  33
DOCKED: ATOM     33  C23 UNL     1       7.910  -0.424  -1.683 +0.00 +0.00    +0.136 C  
DOCKED: BRANCH  33  34
DOCKED: ATOM     34  O5  UNL     1       8.992  -0.087  -0.801 +0.00 -0.00    -0.390 OA 
DOCKED: ATOM     35  H36 UNL     1       8.764  -0.420   0.083 +0.00 +0.00    +0.210 HD 
DOCKED: ENDBRANCH  33  34
DOCKED: BRANCH  33  36
DOCKED: ATOM     36  C24 UNL     1       8.036  -1.920  -2.021 +0.00 +0.00    +0.045 C  
DOCKED: BRANCH  36  37
DOCKED: ATOM     37  C25 UNL     1       8.999  -2.743  -1.136 +0.00 +0.00    +0.074 C  
DOCKED: ATOM     38  C26 UNL     1      10.452  -2.265  -1.219 +0.00 +0.00    +0.017 C  
DOCKED: BRANCH  37  39
DOCKED: ATOM     39  C27 UNL     1       8.517  -2.682   0.311 +0.00 +0.00    +0.217 C  
DOCKED: ATOM     40  O6  UNL     1       8.901  -1.830   1.108 +0.00 -0.00    -0.276 OA 
DOCKED: ATOM     41  N4  UNL     1       7.577  -3.630   0.633 +0.00 -0.00    -0.304 N  
DOCKED: ATOM     42  H43 UNL     1       7.371  -4.394  -0.006 +0.00 +0.00    +0.149 HD 
DOCKED: BRANCH  41  43
DOCKED: ATOM     43  C28 UNL     1       6.958  -3.695   1.958 +0.00 +0.00    +0.161 C  
DOCKED: BRANCH  43  44
DOCKED: ATOM     44  C29 UNL     1       8.030  -4.205   2.950 +0.00 +0.00    +0.234 C  
DOCKED: ATOM     45  O7  UNL     1       8.080  -5.383   3.305 +0.00 -0.00    -0.274 OA 
DOCKED: ATOM     46  N5  UNL     1       8.894  -3.237   3.413 +0.00 -0.00    -0.310 N  
DOCKED: ATOM     47  H45 UNL     1       8.745  -2.271   3.145 +0.00 +0.00    +0.149 HD 
DOCKED: BRANCH  46  48
DOCKED: ATOM     48  C30 UNL     1       9.823  -3.491   4.492 +0.00 +0.00    +0.139 C  
DOCKED: BRANCH  48  49
DOCKED: ATOM     49  C31 UNL     1      10.884  -2.425   4.532 +0.00 -0.00    -0.027 A  
DOCKED: ATOM     50  C32 UNL     1      10.981  -1.576   5.639 +0.00 +0.00    +0.025 A  
DOCKED: ATOM     51  C33 UNL     1      11.931  -0.565   5.625 +0.00 +0.00    +0.111 A  
DOCKED: ATOM     52  N6  UNL     1      12.784  -0.348   4.596 +0.00 -0.00    -0.263 NA 
DOCKED: ATOM     53  C34 UNL     1      12.667  -1.171   3.531 +0.00 +0.00    +0.111 A  
DOCKED: ATOM     54  C35 UNL     1      11.746  -2.208   3.452 +0.00 +0.00    +0.025 A  
DOCKED: ENDBRANCH  48  49
DOCKED: ENDBRANCH  46  48
DOCKED: ENDBRANCH  43  44
DOCKED: BRANCH  43  55
DOCKED: ATOM     55  C36 UNL     1       5.671  -4.558   1.927 +0.00 +0.00    +0.012 C  
DOCKED: ATOM     56  C37 UNL     1       4.748  -4.297   3.124 +0.00 +0.00    +0.009 C  
DOCKED: ATOM     57  C38 UNL     1       4.901  -4.423   0.610 +0.00 +0.00    +0.009 C  
DOCKED: ENDBRANCH  43  55
DOCKED: ENDBRANCH  41  43
DOCKED: ENDBRANCH  37  39
DOCKED: ENDBRANCH  36  37
DOCKED: ENDBRANCH  33  36
DOCKED: ENDBRANCH   1  33
DOCKED: TORSDOF 21
DOCKED: TER
DOCKED: ENDMDL
________________________________________________________________________________


    FINAL DOCKED STATE:
    ________________________


Run:   3 / 20
Time taken for this run:   1.486s

DOCKED: MODEL        3
DOCKED: USER    Run = 3
DOCKED: USER
DOCKED: USER    Estimated Free Energy of Binding    =  +6.26 kcal/mol  [=(1)+(2)+(3)-(4)]
DOCKED: USER
DOCKED: USER    (1) Final Intermolecular Energy     =  +0.00 kcal/mol
DOCKED: USER        vdW + Hbond + desolv Energy     =  +0.00 kcal/mol
DOCKED: USER        Electrostatic Energy            =  +0.00 kcal/mol
DOCKED: USER        Moving Ligand-Fixed Receptor    =  +0.00 kcal/mol
DOCKED: USER        Moving Ligand-Moving Receptor   =  +0.00 kcal/mol
DOCKED: USER    (2) Final Total Internal Energy     = -14.81 kcal/mol
DOCKED: USER    (3) Torsional Free Energy           =  +6.26 kcal/mol
DOCKED: USER    (4) Unbound System's Energy         = -14.81 kcal/mol
DOCKED: USER
DOCKED: USER
DOCKED: REMARK  Name = ligands/ligand_20.pdb
DOCKED: REMARK  30 active torsions:
DOCKED: REMARK  status: ('A' for Active; 'I' for Inactive)
DOCKED: REMARK    1  A    between atoms: C1_1  and  C2_2
DOCKED: REMARK    2  A    between atoms: C2_2  and  C3_3
DOCKED: REMARK    3  A    between atoms: C2_2  and  C4_4
DOCKED: REMARK    4  A    between atoms: C4_4  and  C5_5
DOCKED: REMARK    5  A    between atoms: C5_5  and  N1_6
DOCKED: REMARK    6  A    between atoms: C5_5  and  C11_14
DOCKED: REMARK    7  A    between atoms: C6_7  and  O2_9
DOCKED: REMARK    8  A    between atoms: O2_9  and  C7_10
DOCKED: REMARK    9  A    between atoms: C7_10  and  C8_11
DOCKED: REMARK   10  A    between atoms: C7_10  and  C9_12
DOCKED: REMARK   11  A    between atoms: C7_10  and  C10_13
DOCKED: REMARK   12  A    between atoms: N2_16  and  C12_17
DOCKED: REMARK   13  A    between atoms: C12_17  and  C13_18
DOCKED: REMARK   14  A    between atoms: C12_17  and  C14_19
DOCKED: REMARK   15  A    between atoms: N3_21  and  C15_22
DOCKED: REMARK   16  A    between atoms: C15_22  and  C16_23
DOCKED: REMARK   17  A    between atoms: C15_22  and  C23_30
DOCKED: REMARK   18  A    between atoms: C16_23  and  C17_24
DOCKED: REMARK   19  A    between atoms: C23_30  and  O5_31
DOCKED: REMARK   20  A    between atoms: C23_30  and  C24_32
DOCKED: REMARK   21  A    between atoms: C24_32  and  C25_33
DOCKED: REMARK   22  A    between atoms: C25_33  and  C26_34
DOCKED: REMARK   23  A    between atoms: C25_33  and  C27_35
DOCKED: REMARK   24  A    between atoms: N4_37  and  C28_38
DOCKED: REMARK   25  A    between atoms: C28_38  and  C29_39
DOCKED: REMARK   26  A    between atoms: C28_38  and  C36_49
DOCKED: REMARK   27  A    between atoms: N5_41  and  C30_42
DOCKED: REMARK   28  A    between atoms: C30_42  and  C31_43
DOCKED: REMARK   29  A    between atoms: C36_49  and  C37_50
DOCKED: REMARK   30  A    between atoms: C36_49  and  C38_51
DOCKED: REMARK                            x       y       z     vdW  Elec       q    Type
DOCKED: REMARK                         _______ _______ _______ _____ _____    ______ ____
DOCKED: USER                              x       y       z     vdW  Elec       q    Type
DOCKED: USER                           _______ _______ _______ _____ _____    ______ ____
DOCKED: ROOT
DOCKED: ATOM      1  C15 UNL     1      12.595  -5.960   0.432 +0.00 +0.00    +0.106 C  
DOCKED: ENDROOT
DOCKED: BRANCH   1   4
DOCKED: ATOM      2  C14 UNL     1      11.630  -3.653   0.559 +0.00 +0.00    +0.233 C  
DOCKED: ATOM      3  O4  UNL     1      11.216  -3.652  -0.597 +0.00 -0.00    -0.274 OA 
DOCKED: ATOM      4  N3  UNL     1      12.198  -4.753   1.151 +0.00 -0.00    -0.308 N  
DOCKED: ATOM      5  H26 UNL     1      12.451  -4.735   2.133 +0.00 +0.00    +0.149 HD 
DOCKED: BRANCH   2   6
DOCKED: ATOM      6  C12 UNL     1      11.517  -2.430   1.492 +0.00 +0.00    +0.156 C  
DOCKED: ATOM      7  C13 UNL     1      11.341  -1.165   0.659 +0.00 +0.00    +0.038 C  
DOCKED: BRANCH   6  10
DOCKED: ATOM      8  C11 UNL     1      12.595  -2.579   3.685 +0.00 +0.00    +0.234 C  
DOCKED: ATOM      9  O3  UNL     1      11.497  -2.783   4.208 +0.00 -0.00    -0.274 OA 
DOCKED: ATOM     10  N2  UNL     1      12.711  -2.337   2.327 +0.00 -0.00    -0.303 N  
DOCKED: ATOM     11  H21 UNL     1      13.554  -2.686   1.887 +0.00 +0.00    +0.149 HD 
DOCKED: BRANCH   8  12
DOCKED: ATOM     12  C5  UNL     1      13.902  -2.490   4.520 +0.00 +0.00    +0.162 C  
DOCKED: BRANCH  12  13
DOCKED: ATOM     13  N1  UNL     1      14.365  -3.860   4.739 +0.00 -0.00    -0.270 N  
DOCKED: ATOM     14  C6  UNL     1      14.678  -4.716   3.733 +0.00 +0.00    +0.401 C  
DOCKED: ATOM     15  O1  UNL     1      14.514  -4.493   2.543 +0.00 -0.00    -0.226 OA 
DOCKED: ATOM     16  H11 UNL     1      14.706  -4.125   5.657 +0.00 +0.00    +0.153 HD 
DOCKED: BRANCH  14  17
DOCKED: ATOM     17  O2  UNL     1      15.184  -5.848   4.272 +0.00 -0.00    -0.445 OA 
DOCKED: BRANCH  17  18
DOCKED: ATOM     18  C7  UNL     1      16.618  -6.057   4.323 +0.00 +0.00    +0.107 C  
DOCKED: ATOM     19  C8  UNL     1      16.975  -7.509   3.980 +0.00 +0.00    +0.055 C  
DOCKED: ATOM     20  C9  UNL     1      17.205  -5.618   5.673 +0.00 +0.00    +0.055 C  
DOCKED: ATOM     21  C10 UNL     1      17.180  -5.136   3.231 +0.00 +0.00    +0.055 C  
DOCKED: ENDBRANCH  17  18
DOCKED: ENDBRANCH  14  17
DOCKED: ENDBRANCH  12  13
DOCKED: BRANCH  12  22
DOCKED: ATOM     22  C4  UNL     1      15.047  -1.672   3.899 +0.00 +0.00    +0.035 C  
DOCKED: BRANCH  22  24
DOCKED: ATOM     23  C1  UNL     1      17.551  -1.597   3.398 +0.00 +0.00    +0.007 C  
DOCKED: ATOM     24  C2  UNL     1      16.464  -2.092   4.356 +0.00 -0.00    -0.015 C  
DOCKED: ATOM     25  C3  UNL     1      16.746  -1.544   5.761 +0.00 +0.00    +0.007 C  
DOCKED: ENDBRANCH  22  24
DOCKED: ENDBRANCH  12  22
DOCKED: ENDBRANCH   8  12
DOCKED: ENDBRANCH   6  10
DOCKED: ENDBRANCH   2   6
DOCKED: ENDBRANCH   1   4
DOCKED: BRANCH   1  26
DOCKED: ATOM     26  C16 UNL     1      13.448  -5.610  -0.813 +0.00 +0.00    +0.060 C  
DOCKED: BRANCH  26  27
DOCKED: ATOM     27  C17 UNL     1      14.764  -4.909  -0.567 +0.00 -0.00    -0.046 A  
DOCKED: ATOM     28  C18 UNL     1      15.947  -5.650  -0.414 +0.00 +0.00    +0.004 A  
DOCKED: ATOM     29  C19 UNL     1      17.160  -5.005  -0.175 +0.00 +0.00    +0.000 A  
DOCKED: ATOM     30  C20 UNL     1      17.210  -3.613  -0.103 +0.00 +0.00    +0.000 A  
DOCKED: ATOM     31  C21 UNL     1      16.045  -2.868  -0.273 +0.00 +0.00    +0.000 A  
DOCKED: ATOM     32  C22 UNL     1      14.825  -3.510  -0.499 +0.00 +0.00    +0.004 A  
DOCKED: ENDBRANCH  26  27
DOCKED: ENDBRANCH   1  26
DOCKED: BRANCH   1  33
DOCKED: ATOM     33  C23 UNL     1      13.293  -6.960   1.388 +0.00 +0.00    +0.136 C  
DOCKED: BRANCH  33  34
DOCKED: ATOM     34  O5  UNL     1      13.010  -6.605   2.750 +0.00 -0.00    -0.390 OA 
DOCKED: ATOM     35  H36 UNL     1      13.861  -6.498   3.209 +0.00 +0.00    +0.210 HD 
DOCKED: ENDBRANCH  33  34
DOCKED: BRANCH  33  36
DOCKED: ATOM     36  C24 UNL     1      12.829  -8.412   1.181 +0.00 +0.00    +0.045 C  
DOCKED: BRANCH  36  37
DOCKED: ATOM     37  C25 UNL     1      13.648  -9.503   1.907 +0.00 +0.00    +0.074 C  
DOCKED: ATOM     38  C26 UNL     1      15.160  -9.267   1.839 +0.00 +0.00    +0.017 C  
DOCKED: BRANCH  37  39
DOCKED: ATOM     39  C27 UNL     1      13.202  -9.572   3.365 +0.00 +0.00    +0.217 C  
DOCKED: ATOM     40  O6  UNL     1      12.416 -10.417   3.785 +0.00 -0.00    -0.276 OA 
DOCKED: ATOM     41  N4  UNL     1      13.795  -8.639   4.181 +0.00 -0.00    -0.304 N  
DOCKED: ATOM     42  H43 UNL     1      14.343  -7.880   3.786 +0.00 +0.00    +0.149 HD 
DOCKED: BRANCH  41  43
DOCKED: ATOM     43  C28 UNL     1      13.533  -8.584   5.620 +0.00 +0.00    +0.161 C  
DOCKED: BRANCH  43  44
DOCKED: ATOM     44  C29 UNL     1      12.262  -7.730   5.831 +0.00 +0.00    +0.234 C  
DOCKED: ATOM     45  O7  UNL     1      11.292  -8.151   6.464 +0.00 -0.00    -0.274 OA 
DOCKED: ATOM     46  N5  UNL     1      12.297  -6.485   5.241 +0.00 -0.00    -0.310 N  
DOCKED: ATOM     47  H45 UNL     1      13.092  -6.234   4.664 +0.00 +0.00    +0.149 HD 
DOCKED: BRANCH  46  48
DOCKED: ATOM     48  C30 UNL     1      11.127  -5.639   5.165 +0.00 +0.00    +0.139 C  
DOCKED: BRANCH  48  49
DOCKED: ATOM     49  C31 UNL     1      10.351  -5.930   3.909 +0.00 -0.00    -0.027 A  
DOCKED: ATOM     50  C32 UNL     1       9.684  -4.896   3.243 +0.00 +0.00    +0.025 A  
DOCKED: ATOM     51  C33 UNL     1       8.928  -5.202   2.121 +0.00 +0.00    +0.111 A  
DOCKED: ATOM     52  N6  UNL     1       8.797  -6.454   1.620 +0.00 -0.00    -0.263 NA 
DOCKED: ATOM     53  C34 UNL     1       9.439  -7.440   2.284 +0.00 +0.00    +0.111 A  
DOCKED: ATOM     54  C35 UNL     1      10.216  -7.232   3.416 +0.00 +0.00    +0.025 A  
DOCKED: ENDBRANCH  48  49
DOCKED: ENDBRANCH  46  48
DOCKED: ENDBRANCH  43  44
DOCKED: BRANCH  43  55
DOCKED: ATOM     55  C36 UNL     1      14.774  -8.063   6.390 +0.00 +0.00    +0.012 C  
DOCKED: ATOM     56  C37 UNL     1      14.411  -7.095   7.523 +0.00 +0.00    +0.009 C  
DOCKED: ATOM     57  C38 UNL     1      15.665  -9.195   6.909 +0.00 +0.00    +0.009 C  
DOCKED: ENDBRANCH  43  55
DOCKED: ENDBRANCH  41  43
DOCKED: ENDBRANCH  37  39
DOCKED: ENDBRANCH  36  37
DOCKED: ENDBRANCH  33  36
DOCKED: ENDBRANCH   1  33
DOCKED: TORSDOF 21
DOCKED: TER
DOCKED: ENDMDL
________________________________________________________________________________


    FINAL DOCKED STATE:
    ________________________


Run:   4 / 20
Time taken for this run:   1.486s

DOCKED: MODEL        4
DOCKED: USER    Run = 4
DOCKED: USER
DOCKED: USER    Estimated Free Energy of Binding    =  +6.26 kcal/mol  [=(1)+(2)+(3)-(4)]
DOCKED: USER
DOCKED: USER    (1) Final Intermolecular Energy     =  +0.00 kcal/mol
DOCKED: USER        vdW + Hbond + desolv Energy     =  +0.00 kcal/mol
DOCKED: USER        Electrostatic Energy            =  +0.00 kcal/mol
DOCKED: USER        Moving Ligand-Fixed Receptor    =  +0.00 kcal/mol
DOCKED: USER        Moving Ligand-Moving Receptor   =  +0.00 kcal/mol
DOCKED: USER    (2) Final Total Internal Energy     = -14.34 kcal/mol
DOCKED: USER    (3) Torsional Free Energy           =  +6.26 kcal/mol
DOCKED: USER    (4) Unbound System's Energy         = -14.34 kcal/mol
DOCKED: USER
DOCKED: USER
DOCKED: REMARK  Name = ligands/ligand_20.pdb
DOCKED: REMARK  30 active torsions:
DOCKED: REMARK  status: ('A' for Active; 'I' for Inactive)
DOCKED: REMARK    1  A    between atoms: C1_1  and  C2_2
DOCKED: REMARK    2  A    between atoms: C2_2  and  C3_3
DOCKED: REMARK    3  A    between atoms: C2_2  and  C4_4
DOCKED: REMARK    4  A    between atoms: C4_4  and  C5_5
DOCKED: REMARK    5  A    between atoms: C5_5  and  N1_6
DOCKED: REMARK    6  A    between atoms: C5_5  and  C11_14
DOCKED: REMARK    7  A    between atoms: C6_7  and  O2_9
DOCKED: REMARK    8  A    between atoms: O2_9  and  C7_10
DOCKED: REMARK    9  A    between atoms: C7_10  and  C8_11
DOCKED: REMARK   10  A    between atoms: C7_10  and  C9_12
DOCKED: REMARK   11  A    between atoms: C7_10  and  C10_13
DOCKED: REMARK   12  A    between atoms: N2_16  and  C12_17
DOCKED: REMARK   13  A    between atoms: C12_17  and  C13_18
DOCKED: REMARK   14  A    between atoms: C12_17  and  C14_19
DOCKED: REMARK   15  A    between atoms: N3_21  and  C15_22
DOCKED: REMARK   16  A    between atoms: C15_22  and  C16_23
DOCKED: REMARK   17  A    between atoms: C15_22  and  C23_30
DOCKED: REMARK   18  A    between atoms: C16_23  and  C17_24
DOCKED: REMARK   19  A    between atoms: C23_30  and  O5_31
DOCKED: REMARK   20  A    between atoms: C23_30  and  C24_32
DOCKED: REMARK   21  A    between atoms: C24_32  and  C25_33
DOCKED: REMARK   22  A    between atoms: C25_33  and  C26_34
DOCKED: REMARK   23  A    between atoms: C25_33  and  C27_35
DOCKED: REMARK   24  A    between atoms: N4_37  and  C28_38
DOCKED: REMARK   25  A    between atoms: C28_38  and  C29_39
DOCKED: REMARK   26  A    between atoms: C28_38  and  C36_49
DOCKED: REMARK   27  A    between atoms: N5_41  and  C30_42
DOCKED: REMARK   28  A    between atoms: C30_42  and  C31_43
DOCKED: REMARK   29  A    between atoms: C36_49  and  C37_50
DOCKED: REMARK   30  A    between atoms: C36_49  and  C38_51
DOCKED: REMARK                            x       y       z     vdW  Elec       q    Type
DOCKED: REMARK                         _______ _______ _______ _____ _____    ______ ____
DOCKED: USER                              x       y       z     vdW  Elec       q    Type
DOCKED: USER                           _______ _______ _______ _____ _____    ______ ____
DOCKED: ROOT
DOCKED: ATOM      1  C15 UNL     1       9.210  -0.266   2.854 +0.00 +0.00    +0.106 C  
DOCKED: ENDROOT
DOCKED: BRANCH   1   4
DOCKED: ATOM      2  C14 UNL     1      11.216  -0.603   4.313 +0.00 +0.00    +0.233 C  
DOCKED: ATOM      3  O4  UNL     1      11.140  -1.828   4.310 +0.00 -0.00    -0.274 OA 
DOCKED: ATOM      4  N3  UNL     1      10.400   0.201   3.557 +0.00 -0.00    -0.308 N  
DOCKED: ATOM      5  H26 UNL     1      10.552   1.204   3.526 +0.00 +0.00    +0.149 HD 
DOCKED: BRANCH   2   6
DOCKED: ATOM      6  C12 UNL     1      12.269   0.171   5.133 +0.00 +0.00    +0.156 C  
DOCKED: ATOM      7  C13 UNL     1      12.523  -0.550   6.452 +0.00 +0.00    +0.038 C  
DOCKED: BRANCH   6  10
DOCKED: ATOM      8  C11 UNL     1      12.737   2.549   5.486 +0.00 +0.00    +0.234 C  
DOCKED: ATOM      9  O3  UNL     1      13.947   2.309   5.479 +0.00 -0.00    -0.274 OA 
DOCKED: ATOM     10  N2  UNL     1      11.802   1.534   5.371 +0.00 -0.00    -0.303 N  
DOCKED: ATOM     11  H21 UNL     1      10.951   1.773   4.878 +0.00 +0.00    +0.149 HD 
DOCKED: BRANCH   8  12
DOCKED: ATOM     12  C5  UNL     1      12.182   3.981   5.714 +0.00 +0.00    +0.162 C  
DOCKED: BRANCH  12  13
DOCKED: ATOM     13  N1  UNL     1      10.847   4.023   5.119 +0.00 -0.00    -0.270 N  
DOCKED: ATOM     14  C6  UNL     1      10.551   3.500   3.902 +0.00 +0.00    +0.401 C  
DOCKED: ATOM     15  O1  UNL     1      11.367   3.033   3.120 +0.00 -0.00    -0.226 OA 
DOCKED: ATOM     16  H11 UNL     1      10.048   4.224   5.711 +0.00 +0.00    +0.153 HD 
DOCKED: BRANCH  14  17
DOCKED: ATOM     17  O2  UNL     1       9.217   3.596   3.703 +0.00 -0.00    -0.445 OA 
DOCKED: BRANCH  17  18
DOCKED: ATOM     18  C7  UNL     1       8.656   4.766   3.057 +0.00 +0.00    +0.107 C  
DOCKED: ATOM     19  C8  UNL     1       7.720   4.366   1.909 +0.00 +0.00    +0.055 C  
DOCKED: ATOM     20  C9  UNL     1       9.755   5.738   2.597 +0.00 +0.00    +0.055 C  
DOCKED: ATOM     21  C10 UNL     1       7.832   5.454   4.154 +0.00 +0.00    +0.055 C  
DOCKED: ENDBRANCH  17  18
DOCKED: ENDBRANCH  14  17
DOCKED: ENDBRANCH  12  13
DOCKED: BRANCH  12  22
DOCKED: ATOM     22  C4  UNL     1      12.088   4.446   7.177 +0.00 +0.00    +0.035 C  
DOCKED: BRANCH  22  24
DOCKED: ATOM     23  C1  UNL     1      11.817   2.526   8.840 +0.00 +0.00    +0.007 C  
DOCKED: ATOM     24  C2  UNL     1      11.108   3.632   8.054 +0.00 -0.00    -0.015 C  
DOCKED: ATOM     25  C3  UNL     1      10.386   4.563   9.036 +0.00 +0.00    +0.007 C  
DOCKED: ENDBRANCH  22  24
DOCKED: ENDBRANCH  12  22
DOCKED: ENDBRANCH   8  12
DOCKED: ENDBRANCH   6  10
DOCKED: ENDBRANCH   2   6
DOCKED: ENDBRANCH   1   4
DOCKED: BRANCH   1  26
DOCKED: ATOM     26  C16 UNL     1       7.976  -0.267   3.791 +0.00 +0.00    +0.060 C  
DOCKED: BRANCH  26  27
DOCKED: ATOM     27  C17 UNL     1       8.000   0.694   4.957 +0.00 -0.00    -0.046 A  
DOCKED: ATOM     28  C18 UNL     1       7.249   1.880   4.917 +0.00 +0.00    +0.004 A  
DOCKED: ATOM     29  C19 UNL     1       7.279   2.774   5.987 +0.00 +0.00    +0.000 A  
DOCKED: ATOM     30  C20 UNL     1       8.046   2.487   7.116 +0.00 +0.00    +0.000 A  
DOCKED: ATOM     31  C21 UNL     1       8.780   1.303   7.174 +0.00 +0.00    +0.000 A  
DOCKED: ATOM     32  C22 UNL     1       8.762   0.411   6.099 +0.00 +0.00    +0.004 A  
DOCKED: ENDBRANCH  26  27
DOCKED: ENDBRANCH   1  26
DOCKED: BRANCH   1  33
DOCKED: ATOM     33  C23 UNL     1       8.987   0.548   1.554 +0.00 +0.00    +0.136 C  
DOCKED: BRANCH  33  34
DOCKED: ATOM     34  O5  UNL     1       9.476   1.887   1.734 +0.00 -0.00    -0.390 OA 
DOCKED: ATOM     35  H36 UNL     1       9.451   2.084   2.685 +0.00 +0.00    +0.210 HD 
DOCKED: ENDBRANCH  33  34
DOCKED: BRANCH  33  36
DOCKED: ATOM     36  C24 UNL     1       9.713  -0.051   0.338 +0.00 +0.00    +0.045 C  
DOCKED: BRANCH  36  37
DOCKED: ATOM     37  C25 UNL     1      11.143  -0.581   0.586 +0.00 +0.00    +0.074 C  
DOCKED: ATOM     38  C26 UNL     1      11.427  -1.907  -0.128 +0.00 +0.00    +0.017 C  
DOCKED: BRANCH  37  39
DOCKED: ATOM     39  C27 UNL     1      12.149   0.474   0.134 +0.00 +0.00    +0.217 C  
DOCKED: ATOM     40  O6  UNL     1      13.095   0.221  -0.609 +0.00 -0.00    -0.276 OA 
DOCKED: ATOM     41  N4  UNL     1      11.877   1.743   0.585 +0.00 -0.00    -0.304 N  
DOCKED: ATOM     42  H43 UNL     1      11.165   1.899   1.292 +0.00 +0.00    +0.149 HD 
DOCKED: BRANCH  41  43
DOCKED: ATOM     43  C28 UNL     1      12.699   2.895   0.211 +0.00 +0.00    +0.161 C  
DOCKED: BRANCH  43  44
DOCKED: ATOM     44  C29 UNL     1      14.082   2.719   0.880 +0.00 +0.00    +0.234 C  
DOCKED: ATOM     45  O7  UNL     1      15.131   2.900   0.261 +0.00 -0.00    -0.274 OA 
DOCKED: ATOM     46  N5  UNL     1      14.039   2.327   2.200 +0.00 -0.00    -0.310 N  
DOCKED: ATOM     47  H45 UNL     1      13.145   2.115   2.624 +0.00 +0.00    +0.149 HD 
DOCKED: BRANCH  46  48
DOCKED: ATOM     48  C30 UNL     1      15.228   1.922   2.918 +0.00 +0.00    +0.139 C  
DOCKED: BRANCH  48  49
DOCKED: ATOM     49  C31 UNL     1      15.153   0.462   3.275 +0.00 -0.00    -0.027 A  
DOCKED: ATOM     50  C32 UNL     1      14.403  -0.414   2.484 +0.00 +0.00    +0.025 A  
DOCKED: ATOM     51  C33 UNL     1      14.303  -1.742   2.868 +0.00 +0.00    +0.111 A  
DOCKED: ATOM     52  N6  UNL     1      14.898  -2.253   3.973 +0.00 -0.00    -0.263 NA 
DOCKED: ATOM     53  C34 UNL     1      15.608  -1.389   4.731 +0.00 +0.00    +0.111 A  
DOCKED: ATOM     54  C35 UNL     1      15.763  -0.042   4.429 +0.00 +0.00    +0.025 A  
DOCKED: ENDBRANCH  48  49
DOCKED: ENDBRANCH  46  48
DOCKED: ENDBRANCH  43  44
DOCKED: BRANCH  43  55
DOCKED: ATOM     55  C36 UNL     1      11.989   4.224   0.577 +0.00 +0.00    +0.012 C  
DOCKED: ATOM     56  C37 UNL     1      12.946   5.272   1.158 +0.00 +0.00    +0.009 C  
DOCKED: ATOM     57  C38 UNL     1      11.191   4.808  -0.592 +0.00 +0.00    +0.009 C  
DOCKED: ENDBRANCH  43  55
DOCKED: ENDBRANCH  41  43
DOCKED: ENDBRANCH  37  39
DOCKED: ENDBRANCH  36  37
DOCKED: ENDBRANCH  33  36
DOCKED: ENDBRANCH   1  33
DOCKED: TORSDOF 21
DOCKED: TER
DOCKED: ENDMDL
________________________________________________________________________________


    FINAL DOCKED STATE:
    ________________________


Run:   5 / 20
Time taken for this run:   1.486s

DOCKED: MODEL        5
DOCKED: USER    Run = 5
DOCKED: USER
DOCKED: USER    Estimated Free Energy of Binding    =  +6.26 kcal/mol  [=(1)+(2)+(3)-(4)]
DOCKED: USER
DOCKED: USER    (1) Final Intermolecular Energy     =  +0.00 kcal/mol
DOCKED: USER        vdW + Hbond + desolv Energy     =  +0.00 kcal/mol
DOCKED: USER        Electrostatic Energy            =  +0.00 kcal/mol
DOCKED: USER        Moving Ligand-Fixed Receptor    =  +0.00 kcal/mol
DOCKED: USER        Moving Ligand-Moving Receptor   =  +0.00 kcal/mol
DOCKED: USER    (2) Final Total Internal Energy     = -15.03 kcal/mol
DOCKED: USER    (3) Torsional Free Energy           =  +6.26 kcal/mol
DOCKED: USER    (4) Unbound System's Energy         = -15.03 kcal/mol
DOCKED: USER
DOCKED: USER
DOCKED: REMARK  Name = ligands/ligand_20.pdb
DOCKED: REMARK  30 active torsions:
DOCKED: REMARK  status: ('A' for Active; 'I' for Inactive)
DOCKED: REMARK    1  A    between atoms: C1_1  and  C2_2
DOCKED: REMARK    2  A    between atoms: C2_2  and  C3_3
DOCKED: REMARK    3  A    between atoms: C2_2  and  C4_4
DOCKED: REMARK    4  A    between atoms: C4_4  and  C5_5
DOCKED: REMARK    5  A    between atoms: C5_5  and  N1_6
DOCKED: REMARK    6  A    between atoms: C5_5  and  C11_14
DOCKED: REMARK    7  A    between atoms: C6_7  and  O2_9
DOCKED: REMARK    8  A    between atoms: O2_9  and  C7_10
DOCKED: REMARK    9  A    between atoms: C7_10  and  C8_11
DOCKED: REMARK   10  A    between atoms: C7_10  and  C9_12
DOCKED: REMARK   11  A    between atoms: C7_10  and  C10_13
DOCKED: REMARK   12  A    between atoms: N2_16  and  C12_17
DOCKED: REMARK   13  A    between atoms: C12_17  and  C13_18
DOCKED: REMARK   14  A    between atoms: C12_17  and  C14_19
DOCKED: REMARK   15  A    between atoms: N3_21  and  C15_22
DOCKED: REMARK   16  A    between atoms: C15_22  and  C16_23
DOCKED: REMARK   17  A    between atoms: C15_22  and  C23_30
DOCKED: REMARK   18  A    between atoms: C16_23  and  C17_24
DOCKED: REMARK   19  A    between atoms: C23_30  and  O5_31
DOCKED: REMARK   20  A    between atoms: C23_30  and  C24_32
DOCKED: REMARK   21  A    between atoms: C24_32  and  C25_33
DOCKED: REMARK   22  A    between atoms: C25_33  and  C26_34
DOCKED: REMARK   23  A    between atoms: C25_33  and  C27_35
DOCKED: REMARK   24  A    between atoms: N4_37  and  C28_38
DOCKED: REMARK   25  A    between atoms: C28_38  and  C29_39
DOCKED: REMARK   26  A    between atoms: C28_38  and  C36_49
DOCKED: REMARK   27  A    between atoms: N5_41  and  C30_42
DOCKED: REMARK   28  A    between atoms: C30_42  and  C31_43
DOCKED: REMARK   29  A    between atoms: C36_49  and  C37_50
DOCKED: REMARK   30  A    between atoms: C36_49  and  C38_51
DOCKED: REMARK                            x       y       z     vdW  Elec       q    Type
DOCKED: REMARK                         _______ _______ _______ _____ _____    ______ ____
DOCKED: USER                              x       y       z     vdW  Elec       q    Type
DOCKED: USER                           _______ _______ _______ _____ _____    ______ ____
DOCKED: ROOT
DOCKED: ATOM      1  C15 UNL     1       8.115  -4.978   1.879 +0.00 +0.00    +0.106 C  
DOCKED: ENDROOT
DOCKED: BRANCH   1   4
DOCKED: ATOM      2  C14 UNL     1       9.209  -6.224   0.003 +0.00 +0.00    +0.233 C  
DOCKED: ATOM      3  O4  UNL     1       8.675  -7.297   0.269 +0.00 -0.00    -0.274 OA 
DOCKED: ATOM      4  N3  UNL     1       8.908  -5.055   0.657 +0.00 -0.00    -0.308 N  
DOCKED: ATOM      5  H26 UNL     1       9.312  -4.176   0.350 +0.00 +0.00    +0.149 HD 
DOCKED: BRANCH   2   6
DOCKED: ATOM      6  C12 UNL     1      10.245  -6.059  -1.127 +0.00 +0.00    +0.156 C  
DOCKED: ATOM      7  C13 UNL     1      11.031  -7.355  -1.295 +0.00 +0.00    +0.038 C  
DOCKED: BRANCH   6  10
DOCKED: ATOM      8  C11 UNL     1      11.582  -4.137  -1.845 +0.00 +0.00    +0.234 C  
DOCKED: ATOM      9  O3  UNL     1      11.303  -4.386  -3.020 +0.00 -0.00    -0.274 OA 
DOCKED: ATOM     10  N2  UNL     1      11.142  -4.949  -0.814 +0.00 -0.00    -0.303 N  
DOCKED: ATOM     11  H21 UNL     1      10.932  -4.481   0.059 +0.00 +0.00    +0.149 HD 
DOCKED: BRANCH   8  12
DOCKED: ATOM     12  C5  UNL     1      12.512  -2.958  -1.450 +0.00 +0.00    +0.162 C  
DOCKED: BRANCH  12  13
DOCKED: ATOM     13  N1  UNL     1      11.653  -1.868  -0.989 +0.00 -0.00    -0.270 N  
DOCKED: ATOM     14  C6  UNL     1      10.920  -1.921   0.152 +0.00 +0.00    +0.401 C  
DOCKED: ATOM     15  O1  UNL     1      10.805  -2.905   0.869 +0.00 -0.00    -0.226 OA 
DOCKED: ATOM     16  H11 UNL     1      11.776  -0.942  -1.383 +0.00 +0.00    +0.153 HD 
DOCKED: BRANCH  14  17
DOCKED: ATOM     17  O2  UNL     1      10.339  -0.716   0.349 +0.00 -0.00    -0.445 OA 
DOCKED: BRANCH  17  18
DOCKED: ATOM     18  C7  UNL     1      10.682   0.081   1.510 +0.00 +0.00    +0.107 C  
DOCKED: ATOM     19  C8  UNL     1      12.184  -0.004   1.812 +0.00 +0.00    +0.055 C  
DOCKED: ATOM     20  C9  UNL     1       9.823  -0.296   2.727 +0.00 +0.00    +0.055 C  
DOCKED: ATOM     21  C10 UNL     1      10.337   1.521   1.104 +0.00 +0.00    +0.055 C  
DOCKED: ENDBRANCH  17  18
DOCKED: ENDBRANCH  14  17
DOCKED: ENDBRANCH  12  13
DOCKED: BRANCH  12  22
DOCKED: ATOM     22  C4  UNL     1      13.560  -3.257  -0.363 +0.00 +0.00    +0.035 C  
DOCKED: BRANCH  22  24
DOCKED: ATOM     23  C1  UNL     1      15.397  -2.382   1.181 +0.00 +0.00    +0.007 C  
DOCKED: ATOM     24  C2  UNL     1      14.282  -2.010   0.200 +0.00 -0.00    -0.015 C  
DOCKED: ATOM     25  C3  UNL     1      14.877  -1.186  -0.948 +0.00 +0.00    +0.007 C  
DOCKED: ENDBRANCH  22  24
DOCKED: ENDBRANCH  12  22
DOCKED: ENDBRANCH   8  12
DOCKED: ENDBRANCH   6  10
DOCKED: ENDBRANCH   2   6
DOCKED: ENDBRANCH   1   4
DOCKED: BRANCH   1  26
DOCKED: ATOM     26  C16 UNL     1       8.968  -5.347   3.119 +0.00 +0.00    +0.060 C  
DOCKED: BRANCH  26  27
DOCKED: ATOM     27  C17 UNL     1      10.375  -4.796   3.172 +0.00 -0.00    -0.046 A  
DOCKED: ATOM     28  C18 UNL     1      10.640  -3.587   3.837 +0.00 +0.00    +0.004 A  
DOCKED: ATOM     29  C19 UNL     1      11.936  -3.071   3.876 +0.00 +0.00    +0.000 A  
DOCKED: ATOM     30  C20 UNL     1      12.982  -3.763   3.267 +0.00 +0.00    +0.000 A  
DOCKED: ATOM     31  C21 UNL     1      12.733  -4.973   2.622 +0.00 +0.00    +0.000 A  
DOCKED: ATOM     32  C22 UNL     1      11.435  -5.487   2.569 +0.00 +0.00    +0.004 A  
DOCKED: ENDBRANCH  26  27
DOCKED: ENDBRANCH   1  26
DOCKED: BRANCH   1  33
DOCKED: ATOM     33  C23 UNL     1       7.431  -3.593   2.001 +0.00 +0.00    +0.136 C  
DOCKED: BRANCH  33  34
DOCKED: ATOM     34  O5  UNL     1       8.329  -2.570   1.543 +0.00 -0.00    -0.390 OA 
DOCKED: ATOM     35  H36 UNL     1       8.722  -2.876   0.709 +0.00 +0.00    +0.210 HD 
DOCKED: ENDBRANCH  33  34
DOCKED: BRANCH  33  36
DOCKED: ATOM     36  C24 UNL     1       6.142  -3.485   1.169 +0.00 +0.00    +0.045 C  
DOCKED: BRANCH  36  37
DOCKED: ATOM     37  C25 UNL     1       6.216  -2.606  -0.100 +0.00 +0.00    +0.074 C  
DOCKED: ATOM     38  C26 UNL     1       6.540  -1.139   0.201 +0.00 +0.00    +0.017 C  
DOCKED: BRANCH  37  39
DOCKED: ATOM     39  C27 UNL     1       7.269  -3.184  -1.042 +0.00 +0.00    +0.217 C  
DOCKED: ATOM     40  O6  UNL     1       8.452  -2.856  -1.004 +0.00 -0.00    -0.276 OA 
DOCKED: ATOM     41  N4  UNL     1       6.792  -4.141  -1.903 +0.00 -0.00    -0.304 N  
DOCKED: ATOM     42  H43 UNL     1       5.792  -4.303  -1.996 +0.00 +0.00    +0.149 HD 
DOCKED: BRANCH  41  43
DOCKED: ATOM     43  C28 UNL     1       7.662  -4.848  -2.844 +0.00 +0.00    +0.161 C  
DOCKED: BRANCH  43  44
DOCKED: ATOM     44  C29 UNL     1       8.059  -3.847  -3.955 +0.00 +0.00    +0.234 C  
DOCKED: ATOM     45  O7  UNL     1       7.497  -3.833  -5.050 +0.00 -0.00    -0.274 OA 
DOCKED: ATOM     46  N5  UNL     1       9.096  -3.001  -3.625 +0.00 -0.00    -0.310 N  
DOCKED: ATOM     47  H45 UNL     1       9.570  -3.122  -2.738 +0.00 +0.00    +0.149 HD 
DOCKED: BRANCH  46  48
DOCKED: ATOM     48  C30 UNL     1       9.728  -2.145  -4.605 +0.00 +0.00    +0.139 C  
DOCKED: BRANCH  48  49
DOCKED: ATOM     49  C31 UNL     1      10.523  -1.065  -3.922 +0.00 -0.00    -0.027 A  
DOCKED: ATOM     50  C32 UNL     1      11.910  -1.003  -4.093 +0.00 +0.00    +0.025 A  
DOCKED: ATOM     51  C33 UNL     1      12.625  -0.033  -3.406 +0.00 +0.00    +0.111 A  
DOCKED: ATOM     52  N6  UNL     1      12.057   0.872  -2.574 +0.00 -0.00    -0.263 NA 
DOCKED: ATOM     53  C34 UNL     1      10.719   0.789  -2.413 +0.00 +0.00    +0.111 A  
DOCKED: ATOM     54  C35 UNL     1       9.920  -0.148  -3.055 +0.00 +0.00    +0.025 A  
DOCKED: ENDBRANCH  48  49
DOCKED: ENDBRANCH  46  48
DOCKED: ENDBRANCH  43  44
DOCKED: BRANCH  43  55
DOCKED: ATOM     55  C36 UNL     1       6.979  -6.134  -3.374 +0.00 +0.00    +0.012 C  
DOCKED: ATOM     56  C37 UNL     1       7.946  -7.059  -4.122 +0.00 +0.00    +0.009 C  
DOCKED: ATOM     57  C38 UNL     1       6.234  -6.901  -2.278 +0.00 +0.00    +0.009 C  
DOCKED: ENDBRANCH  43  55
DOCKED: ENDBRANCH  41  43
DOCKED: ENDBRANCH  37  39
DOCKED: ENDBRANCH  36  37
DOCKED: ENDBRANCH  33  36
DOCKED: ENDBRANCH   1  33
DOCKED: TORSDOF 21
DOCKED: TER
DOCKED: ENDMDL
________________________________________________________________________________


    FINAL DOCKED STATE:
    ________________________


Run:   6 / 20
Time taken for this run:   1.486s

DOCKED: MODEL        6
DOCKED: USER    Run = 6
DOCKED: USER
DOCKED: USER    Estimated Free Energy of Binding    =  +6.26 kcal/mol  [=(1)+(2)+(3)-(4)]
DOCKED: USER
DOCKED: USER    (1) Final Intermolecular Energy     =  +0.00 kcal/mol
DOCKED: USER        vdW + Hbond + desolv Energy     =  +0.00 kcal/mol
DOCKED: USER        Electrostatic Energy            =  +0.00 kcal/mol
DOCKED: USER        Moving Ligand-Fixed Receptor    =  +0.00 kcal/mol
DOCKED: USER        Moving Ligand-Moving Receptor   =  +0.00 kcal/mol
DOCKED: USER    (2) Final Total Internal Energy     = -14.80 kcal/mol
DOCKED: USER    (3) Torsional Free Energy           =  +6.26 kcal/mol
DOCKED: USER    (4) Unbound System's Energy         = -14.80 kcal/mol
DOCKED: USER
DOCKED: USER
DOCKED: REMARK  Name = ligands/ligand_20.pdb
DOCKED: REMARK  30 active torsions:
DOCKED: REMARK  status: ('A' for Active; 'I' for Inactive)
DOCKED: REMARK    1  A    between atoms: C1_1  and  C2_2
DOCKED: REMARK    2  A    between atoms: C2_2  and  C3_3
DOCKED: REMARK    3  A    between atoms: C2_2  and  C4_4
DOCKED: REMARK    4  A    between atoms: C4_4  and  C5_5
DOCKED: REMARK    5  A    between atoms: C5_5  and  N1_6
DOCKED: REMARK    6  A    between atoms: C5_5  and  C11_14
DOCKED: REMARK    7  A    between atoms: C6_7  and  O2_9
DOCKED: REMARK    8  A    between atoms: O2_9  and  C7_10
DOCKED: REMARK    9  A    between atoms: C7_10  and  C8_11
DOCKED: REMARK   10  A    between atoms: C7_10  and  C9_12
DOCKED: REMARK   11  A    between atoms: C7_10  and  C10_13
DOCKED: REMARK   12  A    between atoms: N2_16  and  C12_17
DOCKED: REMARK   13  A    between atoms: C12_17  and  C13_18
DOCKED: REMARK   14  A    between atoms: C12_17  and  C14_19
DOCKED: REMARK   15  A    between atoms: N3_21  and  C15_22
DOCKED: REMARK   16  A    between atoms: C15_22  and  C16_23
DOCKED: REMARK   17  A    between atoms: C15_22  and  C23_30
DOCKED: REMARK   18  A    between atoms: C16_23  and  C17_24
DOCKED: REMARK   19  A    between atoms: C23_30  and  O5_31
DOCKED: REMARK   20  A    between atoms: C23_30  and  C24_32
DOCKED: REMARK   21  A    between atoms: C24_32  and  C25_33
DOCKED: REMARK   22  A    between atoms: C25_33  and  C26_34
DOCKED: REMARK   23  A    between atoms: C25_33  and  C27_35
DOCKED: REMARK   24  A    between atoms: N4_37  and  C28_38
DOCKED: REMARK   25  A    between atoms: C28_38  and  C29_39
DOCKED: REMARK   26  A    between atoms: C28_38  and  C36_49
DOCKED: REMARK   27  A    between atoms: N5_41  and  C30_42
DOCKED: REMARK   28  A    between atoms: C30_42  and  C31_43
DOCKED: REMARK   29  A    between atoms: C36_49  and  C37_50
DOCKED: REMARK   30  A    between atoms: C36_49  and  C38_51
DOCKED: REMARK                            x       y       z     vdW  Elec       q    Type
DOCKED: REMARK                         _______ _______ _______ _____ _____    ______ ____
DOCKED: USER                              x       y       z     vdW  Elec       q    Type
DOCKED: USER                           _______ _______ _______ _____ _____    ______ ____
DOCKED: ROOT
DOCKED: ATOM      1  C15 UNL     1       8.598  -2.750  -1.869 +0.00 +0.00    +0.106 C  
DOCKED: ENDROOT
DOCKED: BRANCH   1   4
DOCKED: ATOM      2  C14 UNL     1       8.528  -2.139   0.557 +0.00 +0.00    +0.233 C  
DOCKED: ATOM      3  O4  UNL     1       7.879  -3.125   0.893 +0.00 -0.00    -0.274 OA 
DOCKED: ATOM      4  N3  UNL     1       8.998  -1.948  -0.718 +0.00 -0.00    -0.308 N  
DOCKED: ATOM      5  H26 UNL     1       9.600  -1.160  -0.931 +0.00 +0.00    +0.149 HD 
DOCKED: BRANCH   2   6
DOCKED: ATOM      6  C12 UNL     1       8.926  -1.022   1.544 +0.00 +0.00    +0.156 C  
DOCKED: ATOM      7  C13 UNL     1       7.780  -0.762   2.515 +0.00 +0.00    +0.038 C  
DOCKED: BRANCH   6  10
DOCKED: ATOM      8  C11 UNL     1       9.936   1.208   1.458 +0.00 +0.00    +0.234 C  
DOCKED: ATOM      9  O3  UNL     1      10.178   1.142   2.666 +0.00 -0.00    -0.274 OA 
DOCKED: ATOM     10  N2  UNL     1       9.262   0.192   0.803 +0.00 -0.00    -0.303 N  
DOCKED: ATOM     11  H21 UNL     1       9.535   0.029  -0.158 +0.00 +0.00    +0.149 HD 
DOCKED: BRANCH   8  12
DOCKED: ATOM     12  C5  UNL     1      10.287   2.463   0.615 +0.00 +0.00    +0.162 C  
DOCKED: BRANCH  12  13
DOCKED: ATOM     13  N1  UNL     1      11.050   2.002  -0.545 +0.00 -0.00    -0.270 N  
DOCKED: ATOM     14  C6  UNL     1      10.504   1.296  -1.569 +0.00 +0.00    +0.401 C  
DOCKED: ATOM     15  O1  UNL     1       9.357   0.875  -1.600 +0.00 -0.00    -0.226 OA 
DOCKED: ATOM     16  H11 UNL     1      11.956   2.414  -0.737 +0.00 +0.00    +0.153 HD 
DOCKED: BRANCH  14  17
DOCKED: ATOM     17  O2  UNL     1      11.443   1.134  -2.529 +0.00 -0.00    -0.445 OA 
DOCKED: BRANCH  17  18
DOCKED: ATOM     18  C7  UNL     1      11.315   1.819  -3.800 +0.00 +0.00    +0.107 C  
DOCKED: ATOM     19  C8  UNL     1      11.651   3.310  -3.658 +0.00 +0.00    +0.055 C  
DOCKED: ATOM     20  C9  UNL     1       9.930   1.594  -4.426 +0.00 +0.00    +0.055 C  
DOCKED: ATOM     21  C10 UNL     1      12.366   1.157  -4.702 +0.00 +0.00    +0.055 C  
DOCKED: ENDBRANCH  17  18
DOCKED: ENDBRANCH  14  17
DOCKED: ENDBRANCH  12  13
DOCKED: BRANCH  12  22
DOCKED: ATOM     22  C4  UNL     1       9.097   3.304   0.123 +0.00 +0.00    +0.035 C  
DOCKED: BRANCH  22  24
DOCKED: ATOM     23  C1  UNL     1       8.124   4.792  -1.711 +0.00 +0.00    +0.007 C  
DOCKED: ATOM     24  C2  UNL     1       9.398   4.198  -1.103 +0.00 -0.00    -0.015 C  
DOCKED: ATOM     25  C3  UNL     1      10.342   5.338  -0.701 +0.00 +0.00    +0.007 C  
DOCKED: ENDBRANCH  22  24
DOCKED: ENDBRANCH  12  22
DOCKED: ENDBRANCH   8  12
DOCKED: ENDBRANCH   6  10
DOCKED: ENDBRANCH   2   6
DOCKED: ENDBRANCH   1   4
DOCKED: BRANCH   1  26
DOCKED: ATOM     26  C16 UNL     1       7.131  -2.453  -2.270 +0.00 +0.00    +0.060 C  
DOCKED: BRANCH  26  27
DOCKED: ATOM     27  C17 UNL     1       6.694  -1.006  -2.250 +0.00 -0.00    -0.046 A  
DOCKED: ATOM     28  C18 UNL     1       6.895  -0.188  -3.374 +0.00 +0.00    +0.004 A  
DOCKED: ATOM     29  C19 UNL     1       6.504   1.151  -3.353 +0.00 +0.00    +0.000 A  
DOCKED: ATOM     30  C20 UNL     1       5.893   1.683  -2.218 +0.00 +0.00    +0.000 A  
DOCKED: ATOM     31  C21 UNL     1       5.672   0.874  -1.105 +0.00 +0.00    +0.000 A  
DOCKED: ATOM     32  C22 UNL     1       6.074  -0.464  -1.116 +0.00 +0.00    +0.004 A  
DOCKED: ENDBRANCH  26  27
DOCKED: ENDBRANCH   1  26
DOCKED: BRANCH   1  33
DOCKED: ATOM     33  C23 UNL     1       9.598  -2.565  -3.039 +0.00 +0.00    +0.136 C  
DOCKED: BRANCH  33  34
DOCKED: ATOM     34  O5  UNL     1      10.633  -1.649  -2.648 +0.00 -0.00    -0.390 OA 
DOCKED: ATOM     35  H36 UNL     1      10.256  -0.754  -2.670 +0.00 +0.00    +0.210 HD 
DOCKED: ENDBRANCH  33  34
DOCKED: BRANCH  33  36
DOCKED: ATOM     36  C24 UNL     1      10.277  -3.879  -3.461 +0.00 +0.00    +0.045 C  
DOCKED: BRANCH  36  37
DOCKED: ATOM     37  C25 UNL     1      10.480  -4.934  -2.350 +0.00 +0.00    +0.074 C  
DOCKED: ATOM     38  C26 UNL     1      10.543  -6.368  -2.884 +0.00 +0.00    +0.017 C  
DOCKED: BRANCH  37  39
DOCKED: ATOM     39  C27 UNL     1      11.763  -4.611  -1.588 +0.00 +0.00    +0.217 C  
DOCKED: ATOM     40  O6  UNL     1      12.716  -5.384  -1.525 +0.00 -0.00    -0.276 OA 
DOCKED: ATOM     41  N4  UNL     1      11.784  -3.360  -1.021 +0.00 -0.00    -0.304 N  
DOCKED: ATOM     42  H43 UNL     1      10.940  -2.794  -0.985 +0.00 +0.00    +0.149 HD 
DOCKED: BRANCH  41  43
DOCKED: ATOM     43  C28 UNL     1      12.949  -2.851  -0.297 +0.00 +0.00    +0.161 C  
DOCKED: BRANCH  43  44
DOCKED: ATOM     44  C29 UNL     1      12.515  -1.564   0.443 +0.00 +0.00    +0.234 C  
DOCKED: ATOM     45  O7  UNL     1      11.480  -0.964   0.150 +0.00 -0.00    -0.274 OA 
DOCKED: ATOM     46  N5  UNL     1      13.384  -1.142   1.425 +0.00 -0.00    -0.310 N  
DOCKED: ATOM     47  H45 UNL     1      14.258  -1.636   1.557 +0.00 +0.00    +0.149 HD 
DOCKED: BRANCH  46  48
DOCKED: ATOM     48  C30 UNL     1      13.241   0.142   2.075 +0.00 +0.00    +0.139 C  
DOCKED: BRANCH  48  49
DOCKED: ATOM     49  C31 UNL     1      13.536   1.255   1.106 +0.00 -0.00    -0.027 A  
DOCKED: ATOM     50  C32 UNL     1      13.315   2.585   1.480 +0.00 +0.00    +0.025 A  
DOCKED: ATOM     51  C33 UNL     1      13.541   3.587   0.549 +0.00 +0.00    +0.111 A  
DOCKED: ATOM     52  N6  UNL     1      13.971   3.357  -0.715 +0.00 -0.00    -0.263 NA 
DOCKED: ATOM     53  C34 UNL     1      14.166   2.066  -1.061 +0.00 +0.00    +0.111 A  
DOCKED: ATOM     54  C35 UNL     1      13.966   0.996  -0.199 +0.00 +0.00    +0.025 A  
DOCKED: ENDBRANCH  48  49
DOCKED: ENDBRANCH  46  48
DOCKED: ENDBRANCH  43  44
DOCKED: BRANCH  43  55
DOCKED: ATOM     55  C36 UNL     1      14.152  -2.649  -1.254 +0.00 +0.00    +0.012 C  
DOCKED: ATOM     56  C37 UNL     1      13.872  -1.623  -2.357 +0.00 +0.00    +0.009 C  
DOCKED: ATOM     57  C38 UNL     1      15.446  -2.306  -0.510 +0.00 +0.00    +0.009 C  
DOCKED: ENDBRANCH  43  55
DOCKED: ENDBRANCH  41  43
DOCKED: ENDBRANCH  37  39
DOCKED: ENDBRANCH  36  37
DOCKED: ENDBRANCH  33  36
DOCKED: ENDBRANCH   1  33
DOCKED: TORSDOF 21
DOCKED: TER
DOCKED: ENDMDL
________________________________________________________________________________


    FINAL DOCKED STATE:
    ________________________


Run:   7 / 20
Time taken for this run:   1.486s

DOCKED: MODEL        7
DOCKED: USER    Run = 7
DOCKED: USER
DOCKED: USER    Estimated Free Energy of Binding    =  +6.26 kcal/mol  [=(1)+(2)+(3)-(4)]
DOCKED: USER
DOCKED: USER    (1) Final Intermolecular Energy     =  +0.00 kcal/mol
DOCKED: USER        vdW + Hbond + desolv Energy     =  +0.00 kcal/mol
DOCKED: USER        Electrostatic Energy            =  +0.00 kcal/mol
DOCKED: USER        Moving Ligand-Fixed Receptor    =  +0.00 kcal/mol
DOCKED: USER        Moving Ligand-Moving Receptor   =  +0.00 kcal/mol
DOCKED: USER    (2) Final Total Internal Energy     = -14.73 kcal/mol
DOCKED: USER    (3) Torsional Free Energy           =  +6.26 kcal/mol
DOCKED: USER    (4) Unbound System's Energy         = -14.73 kcal/mol
DOCKED: USER
DOCKED: USER
DOCKED: REMARK  Name = ligands/ligand_20.pdb
DOCKED: REMARK  30 active torsions:
DOCKED: REMARK  status: ('A' for Active; 'I' for Inactive)
DOCKED: REMARK    1  A    between atoms: C1_1  and  C2_2
DOCKED: REMARK    2  A    between atoms: C2_2  and  C3_3
DOCKED: REMARK    3  A    between atoms: C2_2  and  C4_4
DOCKED: REMARK    4  A    between atoms: C4_4  and  C5_5
DOCKED: REMARK    5  A    between atoms: C5_5  and  N1_6
DOCKED: REMARK    6  A    between atoms: C5_5  and  C11_14
DOCKED: REMARK    7  A    between atoms: C6_7  and  O2_9
DOCKED: REMARK    8  A    between atoms: O2_9  and  C7_10
DOCKED: REMARK    9  A    between atoms: C7_10  and  C8_11
DOCKED: REMARK   10  A    between atoms: C7_10  and  C9_12
DOCKED: REMARK   11  A    between atoms: C7_10  and  C10_13
DOCKED: REMARK   12  A    between atoms: N2_16  and  C12_17
DOCKED: REMARK   13  A    between atoms: C12_17  and  C13_18
DOCKED: REMARK   14  A    between atoms: C12_17  and  C14_19
DOCKED: REMARK   15  A    between atoms: N3_21  and  C15_22
DOCKED: REMARK   16  A    between atoms: C15_22  and  C16_23
DOCKED: REMARK   17  A    between atoms: C15_22  and  C23_30
DOCKED: REMARK   18  A    between atoms: C16_23  and  C17_24
DOCKED: REMARK   19  A    between atoms: C23_30  and  O5_31
DOCKED: REMARK   20  A    between atoms: C23_30  and  C24_32
DOCKED: REMARK   21  A    between atoms: C24_32  and  C25_33
DOCKED: REMARK   22  A    between atoms: C25_33  and  C26_34
DOCKED: REMARK   23  A    between atoms: C25_33  and  C27_35
DOCKED: REMARK   24  A    between atoms: N4_37  and  C28_38
DOCKED: REMARK   25  A    between atoms: C28_38  and  C29_39
DOCKED: REMARK   26  A    between atoms: C28_38  and  C36_49
DOCKED: REMARK   27  A    between atoms: N5_41  and  C30_42
DOCKED: REMARK   28  A    between atoms: C30_42  and  C31_43
DOCKED: REMARK   29  A    between atoms: C36_49  and  C37_50
DOCKED: REMARK   30  A    between atoms: C36_49  and  C38_51
DOCKED: REMARK                            x       y       z     vdW  Elec       q    Type
DOCKED: REMARK                         _______ _______ _______ _____ _____    ______ ____
DOCKED: USER                              x       y       z     vdW  Elec       q    Type
DOCKED: USER                           _______ _______ _______ _____ _____    ______ ____
DOCKED: ROOT
DOCKED: ATOM      1  C15 UNL     1       6.183   0.287   3.057 +0.00 +0.00    +0.106 C  
DOCKED: ENDROOT
DOCKED: BRANCH   1   4
DOCKED: ATOM      2  C14 UNL     1       3.710   0.007   2.786 +0.00 +0.00    +0.233 C  
DOCKED: ATOM      3  O4  UNL     1       3.600   0.887   1.937 +0.00 -0.00    -0.274 OA 
DOCKED: ATOM      4  N3  UNL     1       4.920  -0.407   3.284 +0.00 -0.00    -0.308 N  
DOCKED: ATOM      5  H26 UNL     1       4.971  -1.194   3.923 +0.00 +0.00    +0.149 HD 
DOCKED: BRANCH   2   6
DOCKED: ATOM      6  C12 UNL     1       2.503  -0.765   3.356 +0.00 +0.00    +0.156 C  
DOCKED: ATOM      7  C13 UNL     1       1.222  -0.285   2.681 +0.00 +0.00    +0.038 C  
DOCKED: BRANCH   6  10
DOCKED: ATOM      8  C11 UNL     1       3.320  -1.251   5.612 +0.00 +0.00    +0.234 C  
DOCKED: ATOM      9  O3  UNL     1       4.105  -2.081   5.146 +0.00 -0.00    -0.274 OA 
DOCKED: ATOM     10  N2  UNL     1       2.431  -0.568   4.801 +0.00 -0.00    -0.303 N  
DOCKED: ATOM     11  H21 UNL     1       2.219   0.382   5.080 +0.00 +0.00    +0.149 HD 
DOCKED: BRANCH   8  12
DOCKED: ATOM     12  C5  UNL     1       3.213  -0.984   7.138 +0.00 +0.00    +0.162 C  
DOCKED: BRANCH  12  13
DOCKED: ATOM     13  N1  UNL     1       4.377  -0.182   7.516 +0.00 -0.00    -0.270 N  
DOCKED: ATOM     14  C6  UNL     1       5.655  -0.635   7.447 +0.00 +0.00    +0.401 C  
DOCKED: ATOM     15  O1  UNL     1       5.981  -1.780   7.170 +0.00 -0.00    -0.226 OA 
DOCKED: ATOM     16  H11 UNL     1       4.277   0.824   7.601 +0.00 +0.00    +0.153 HD 
DOCKED: BRANCH  14  17
DOCKED: ATOM     17  O2  UNL     1       6.491   0.384   7.748 +0.00 -0.00    -0.445 OA 
DOCKED: BRANCH  17  18
DOCKED: ATOM     18  C7  UNL     1       7.229   0.381   8.996 +0.00 +0.00    +0.107 C  
DOCKED: ATOM     19  C8  UNL     1       6.480  -0.411  10.076 +0.00 +0.00    +0.055 C  
DOCKED: ATOM     20  C9  UNL     1       7.568   1.808   9.454 +0.00 +0.00    +0.055 C  
DOCKED: ATOM     21  C10 UNL     1       8.540  -0.345   8.667 +0.00 +0.00    +0.055 C  
DOCKED: ENDBRANCH  17  18
DOCKED: ENDBRANCH  14  17
DOCKED: ENDBRANCH  12  13
DOCKED: BRANCH  12  22
DOCKED: ATOM     22  C4  UNL     1       1.939  -0.263   7.612 +0.00 +0.00    +0.035 C  
DOCKED: BRANCH  22  24
DOCKED: ATOM     23  C1  UNL     1       0.670   1.803   6.813 +0.00 +0.00    +0.007 C  
DOCKED: ATOM     24  C2  UNL     1       1.962   1.273   7.439 +0.00 -0.00    -0.015 C  
DOCKED: ATOM     25  C3  UNL     1       2.176   1.951   8.799 +0.00 +0.00    +0.007 C  
DOCKED: ENDBRANCH  22  24
DOCKED: ENDBRANCH  12  22
DOCKED: ENDBRANCH   8  12
DOCKED: ENDBRANCH   6  10
DOCKED: ENDBRANCH   2   6
DOCKED: ENDBRANCH   1   4
DOCKED: BRANCH   1  26
DOCKED: ATOM     26  C16 UNL     1       5.979   1.823   3.048 +0.00 +0.00    +0.060 C  
DOCKED: BRANCH  26  27
DOCKED: ATOM     27  C17 UNL     1       5.467   2.454   4.323 +0.00 -0.00    -0.046 A  
DOCKED: ATOM     28  C18 UNL     1       6.322   2.625   5.424 +0.00 +0.00    +0.004 A  
DOCKED: ATOM     29  C19 UNL     1       5.848   3.196   6.606 +0.00 +0.00    +0.000 A  
DOCKED: ATOM     30  C20 UNL     1       4.521   3.617   6.695 +0.00 +0.00    +0.000 A  
DOCKED: ATOM     31  C21 UNL     1       3.671   3.470   5.602 +0.00 +0.00    +0.000 A  
DOCKED: ATOM     32  C22 UNL     1       4.138   2.886   4.421 +0.00 +0.00    +0.004 A  
DOCKED: ENDBRANCH  26  27
DOCKED: ENDBRANCH   1  26
DOCKED: BRANCH   1  33
DOCKED: ATOM     33  C23 UNL     1       7.254  -0.179   4.076 +0.00 +0.00    +0.136 C  
DOCKED: BRANCH  33  34
DOCKED: ATOM     34  O5  UNL     1       6.705  -1.205   4.918 +0.00 -0.00    -0.390 OA 
DOCKED: ATOM     35  H36 UNL     1       5.877  -0.864   5.294 +0.00 +0.00    +0.210 HD 
DOCKED: ENDBRANCH  33  34
DOCKED: BRANCH  33  36
DOCKED: ATOM     36  C24 UNL     1       8.512  -0.755   3.403 +0.00 +0.00    +0.045 C  
DOCKED: BRANCH  36  37
DOCKED: ATOM     37  C25 UNL     1       9.665  -1.167   4.346 +0.00 +0.00    +0.074 C  
DOCKED: ATOM     38  C26 UNL     1       9.807  -0.248   5.563 +0.00 +0.00    +0.017 C  
DOCKED: BRANCH  37  39
DOCKED: ATOM     39  C27 UNL     1       9.438  -2.604   4.808 +0.00 +0.00    +0.217 C  
DOCKED: ATOM     40  O6  UNL     1      10.055  -3.561   4.346 +0.00 -0.00    -0.276 OA 
DOCKED: ATOM     41  N4  UNL     1       8.522  -2.732   5.824 +0.00 -0.00    -0.304 N  
DOCKED: ATOM     42  H43 UNL     1       7.942  -1.945   6.100 +0.00 +0.00    +0.149 HD 
DOCKED: BRANCH  41  43
DOCKED: ATOM     43  C28 UNL     1       8.212  -4.025   6.435 +0.00 +0.00    +0.161 C  
DOCKED: BRANCH  43  44
DOCKED: ATOM     44  C29 UNL     1       7.238  -4.767   5.490 +0.00 +0.00    +0.234 C  
DOCKED: ATOM     45  O7  UNL     1       7.485  -5.892   5.054 +0.00 -0.00    -0.274 OA 
DOCKED: ATOM     46  N5  UNL     1       6.100  -4.062   5.164 +0.00 -0.00    -0.310 N  
DOCKED: ATOM     47  H45 UNL     1       5.999  -3.108   5.490 +0.00 +0.00    +0.149 HD 
DOCKED: BRANCH  46  48
DOCKED: ATOM     48  C30 UNL     1       5.184  -4.515   4.141 +0.00 +0.00    +0.139 C  
DOCKED: BRANCH  48  49
DOCKED: ATOM     49  C31 UNL     1       5.376  -3.720   2.877 +0.00 -0.00    -0.027 A  
DOCKED: ATOM     50  C32 UNL     1       4.274  -3.401   2.078 +0.00 +0.00    +0.025 A  
DOCKED: ATOM     51  C33 UNL     1       4.485  -2.718   0.890 +0.00 +0.00    +0.111 A  
DOCKED: ATOM     52  N6  UNL     1       5.708  -2.331   0.451 +0.00 -0.00    -0.263 NA 
DOCKED: ATOM     53  C34 UNL     1       6.761  -2.660   1.231 +0.00 +0.00    +0.111 A  
DOCKED: ATOM     54  C35 UNL     1       6.648  -3.343   2.434 +0.00 +0.00    +0.025 A  
DOCKED: ENDBRANCH  48  49
DOCKED: ENDBRANCH  46  48
DOCKED: ENDBRANCH  43  44
DOCKED: BRANCH  43  55
DOCKED: ATOM     55  C36 UNL     1       7.670  -3.842   7.876 +0.00 +0.00    +0.012 C  
DOCKED: ATOM     56  C37 UNL     1       6.560  -4.839   8.227 +0.00 +0.00    +0.009 C  
DOCKED: ATOM     57  C38 UNL     1       8.779  -3.872   8.932 +0.00 +0.00    +0.009 C  
DOCKED: ENDBRANCH  43  55
DOCKED: ENDBRANCH  41  43
DOCKED: ENDBRANCH  37  39
DOCKED: ENDBRANCH  36  37
DOCKED: ENDBRANCH  33  36
DOCKED: ENDBRANCH   1  33
DOCKED: TORSDOF 21
DOCKED: TER
DOCKED: ENDMDL
________________________________________________________________________________


    FINAL DOCKED STATE:
    ________________________


Run:   8 / 20
Time taken for this run:   1.486s

DOCKED: MODEL        8
DOCKED: USER    Run = 8
DOCKED: USER
DOCKED: USER    Estimated Free Energy of Binding    =  +6.26 kcal/mol  [=(1)+(2)+(3)-(4)]
DOCKED: USER
DOCKED: USER    (1) Final Intermolecular Energy     =  +0.00 kcal/mol
DOCKED: USER        vdW + Hbond + desolv Energy     =  +0.00 kcal/mol
DOCKED: USER        Electrostatic Energy            =  +0.00 kcal/mol
DOCKED: USER        Moving Ligand-Fixed Receptor    =  +0.00 kcal/mol
DOCKED: USER        Moving Ligand-Moving Receptor   =  +0.00 kcal/mol
DOCKED: USER    (2) Final Total Internal Energy     = -14.70 kcal/mol
DOCKED: USER    (3) Torsional Free Energy           =  +6.26 kcal/mol
DOCKED: USER    (4) Unbound System's Energy         = -14.70 kcal/mol
DOCKED: USER
DOCKED: USER
DOCKED: REMARK  Name = ligands/ligand_20.pdb
DOCKED: REMARK  30 active torsions:
DOCKED: REMARK  status: ('A' for Active; 'I' for Inactive)
DOCKED: REMARK    1  A    between atoms: C1_1  and  C2_2
DOCKED: REMARK    2  A    between atoms: C2_2  and  C3_3
DOCKED: REMARK    3  A    between atoms: C2_2  and  C4_4
DOCKED: REMARK    4  A    between atoms: C4_4  and  C5_5
DOCKED: REMARK    5  A    between atoms: C5_5  and  N1_6
DOCKED: REMARK    6  A    between atoms: C5_5  and  C11_14
DOCKED: REMARK    7  A    between atoms: C6_7  and  O2_9
DOCKED: REMARK    8  A    between atoms: O2_9  and  C7_10
DOCKED: REMARK    9  A    between atoms: C7_10  and  C8_11
DOCKED: REMARK   10  A    between atoms: C7_10  and  C9_12
DOCKED: REMARK   11  A    between atoms: C7_10  and  C10_13
DOCKED: REMARK   12  A    between atoms: N2_16  and  C12_17
DOCKED: REMARK   13  A    between atoms: C12_17  and  C13_18
DOCKED: REMARK   14  A    between atoms: C12_17  and  C14_19
DOCKED: REMARK   15  A    between atoms: N3_21  and  C15_22
DOCKED: REMARK   16  A    between atoms: C15_22  and  C16_23
DOCKED: REMARK   17  A    between atoms: C15_22  and  C23_30
DOCKED: REMARK   18  A    between atoms: C16_23  and  C17_24
DOCKED: REMARK   19  A    between atoms: C23_30  and  O5_31
DOCKED: REMARK   20  A    between atoms: C23_30  and  C24_32
DOCKED: REMARK   21  A    between atoms: C24_32  and  C25_33
DOCKED: REMARK   22  A    between atoms: C25_33  and  C26_34
DOCKED: REMARK   23  A    between atoms: C25_33  and  C27_35
DOCKED: REMARK   24  A    between atoms: N4_37  and  C28_38
DOCKED: REMARK   25  A    between atoms: C28_38  and  C29_39
DOCKED: REMARK   26  A    between atoms: C28_38  and  C36_49
DOCKED: REMARK   27  A    between atoms: N5_41  and  C30_42
DOCKED: REMARK   28  A    between atoms: C30_42  and  C31_43
DOCKED: REMARK   29  A    between atoms: C36_49  and  C37_50
DOCKED: REMARK   30  A    between atoms: C36_49  and  C38_51
DOCKED: REMARK                            x       y       z     vdW  Elec       q    Type
DOCKED: REMARK                         _______ _______ _______ _____ _____    ______ ____
DOCKED: USER                              x       y       z     vdW  Elec       q    Type
DOCKED: USER                           _______ _______ _______ _____ _____    ______ ____
DOCKED: ROOT
DOCKED: ATOM      1  C15 UNL     1      14.019  -5.554   4.192 +0.00 +0.00    +0.106 C  
DOCKED: ENDROOT
DOCKED: BRANCH   1   4
DOCKED: ATOM      2  C14 UNL     1      11.833  -4.335   4.222 +0.00 +0.00    +0.233 C  
DOCKED: ATOM      3  O4  UNL     1      12.290  -3.318   4.736 +0.00 -0.00    -0.274 OA 
DOCKED: ATOM      4  N3  UNL     1      12.613  -5.396   3.836 +0.00 -0.00    -0.308 N  
DOCKED: ATOM      5  H26 UNL     1      12.203  -6.181   3.340 +0.00 +0.00    +0.149 HD 
DOCKED: BRANCH   2   6
DOCKED: ATOM      6  C12 UNL     1      10.333  -4.516   3.912 +0.00 +0.00    +0.156 C  
DOCKED: ATOM      7  C13 UNL     1       9.573  -3.250   4.291 +0.00 +0.00    +0.038 C  
DOCKED: BRANCH   6  10
DOCKED: ATOM      8  C11 UNL     1      10.122  -6.940   4.193 +0.00 +0.00    +0.234 C  
DOCKED: ATOM      9  O3  UNL     1      10.744  -7.113   3.142 +0.00 -0.00    -0.274 OA 
DOCKED: ATOM     10  N2  UNL     1       9.815  -5.668   4.646 +0.00 -0.00    -0.303 N  
DOCKED: ATOM     11  H21 UNL     1       9.803  -5.548   5.651 +0.00 +0.00    +0.149 HD 
DOCKED: BRANCH   8  12
DOCKED: ATOM     12  C5  UNL     1       9.565  -8.126   5.026 +0.00 +0.00    +0.162 C  
DOCKED: BRANCH  12  13
DOCKED: ATOM     13  N1  UNL     1      10.700  -8.732   5.722 +0.00 -0.00    -0.270 N  
DOCKED: ATOM     14  C6  UNL     1      11.725  -9.354   5.085 +0.00 +0.00    +0.401 C  
DOCKED: ATOM     15  O1  UNL     1      11.776  -9.576   3.884 +0.00 -0.00    -0.226 OA 
DOCKED: ATOM     16  H11 UNL     1      10.877  -8.483   6.688 +0.00 +0.00    +0.153 HD 
DOCKED: BRANCH  14  17
DOCKED: ATOM     17  O2  UNL     1      12.661  -9.692   6.001 +0.00 -0.00    -0.445 OA 
DOCKED: BRANCH  17  18
DOCKED: ATOM     18  C7  UNL     1      12.982 -11.086   6.238 +0.00 +0.00    +0.107 C  
DOCKED: ATOM     19  C8  UNL     1      13.517 -11.292   7.661 +0.00 +0.00    +0.055 C  
DOCKED: ATOM     20  C9  UNL     1      13.944 -11.632   5.172 +0.00 +0.00    +0.055 C  
DOCKED: ATOM     21  C10 UNL     1      11.641 -11.819   6.100 +0.00 +0.00    +0.055 C  
DOCKED: ENDBRANCH  17  18
DOCKED: ENDBRANCH  14  17
DOCKED: ENDBRANCH  12  13
DOCKED: BRANCH  12  22
DOCKED: ATOM     22  C4  UNL     1       8.479  -7.778   6.058 +0.00 +0.00    +0.035 C  
DOCKED: BRANCH  22  24
DOCKED: ATOM     23  C1  UNL     1       8.278  -5.917   7.796 +0.00 +0.00    +0.007 C  
DOCKED: ATOM     24  C2  UNL     1       9.012  -7.198   7.388 +0.00 -0.00    -0.015 C  
DOCKED: ATOM     25  C3  UNL     1       8.869  -8.237   8.508 +0.00 +0.00    +0.007 C  
DOCKED: ENDBRANCH  22  24
DOCKED: ENDBRANCH  12  22
DOCKED: ENDBRANCH   8  12
DOCKED: ENDBRANCH   6  10
DOCKED: ENDBRANCH   2   6
DOCKED: ENDBRANCH   1   4
DOCKED: BRANCH   1  26
DOCKED: ATOM     26  C16 UNL     1      14.290  -5.036   5.627 +0.00 +0.00    +0.060 C  
DOCKED: BRANCH  26  27
DOCKED: ATOM     27  C17 UNL     1      13.576  -5.741   6.757 +0.00 -0.00    -0.046 A  
DOCKED: ATOM     28  C18 UNL     1      12.487  -5.129   7.401 +0.00 +0.00    +0.004 A  
DOCKED: ATOM     29  C19 UNL     1      11.835  -5.773   8.452 +0.00 +0.00    +0.000 A  
DOCKED: ATOM     30  C20 UNL     1      12.249  -7.040   8.861 +0.00 +0.00    +0.000 A  
DOCKED: ATOM     31  C21 UNL     1      13.315  -7.664   8.216 +0.00 +0.00    +0.000 A  
DOCKED: ATOM     32  C22 UNL     1      13.981  -7.017   7.171 +0.00 +0.00    +0.004 A  
DOCKED: ENDBRANCH  26  27
DOCKED: ENDBRANCH   1  26
DOCKED: BRANCH   1  33
DOCKED: ATOM     33  C23 UNL     1      14.475  -7.019   3.977 +0.00 +0.00    +0.136 C  
DOCKED: BRANCH  33  34
DOCKED: ATOM     34  O5  UNL     1      13.381  -7.796   3.463 +0.00 -0.00    -0.390 OA 
DOCKED: ATOM     35  H36 UNL     1      12.618  -7.649   4.047 +0.00 +0.00    +0.210 HD 
DOCKED: ENDBRANCH  33  34
DOCKED: BRANCH  33  36
DOCKED: ATOM     36  C24 UNL     1      15.641  -7.145   2.981 +0.00 +0.00    +0.045 C  
DOCKED: BRANCH  36  37
DOCKED: ATOM     37  C25 UNL     1      16.199  -8.568   2.756 +0.00 +0.00    +0.074 C  
DOCKED: ATOM     38  C26 UNL     1      16.174  -9.433   4.020 +0.00 +0.00    +0.017 C  
DOCKED: BRANCH  37  39
DOCKED: ATOM     39  C27 UNL     1      15.395  -9.248   1.650 +0.00 +0.00    +0.217 C  
DOCKED: ATOM     40  O6  UNL     1      15.796  -9.341   0.493 +0.00 -0.00    -0.276 OA 
DOCKED: ATOM     41  N4  UNL     1      14.206  -9.792   2.071 +0.00 -0.00    -0.304 N  
DOCKED: ATOM     42  H43 UNL     1      13.845  -9.593   3.000 +0.00 +0.00    +0.149 HD 
DOCKED: BRANCH  41  43
DOCKED: ATOM     43  C28 UNL     1      13.323 -10.530   1.166 +0.00 +0.00    +0.161 C  
DOCKED: BRANCH  43  44
DOCKED: ATOM     44  C29 UNL     1      12.565  -9.494   0.303 +0.00 +0.00    +0.234 C  
DOCKED: ATOM     45  O7  UNL     1      12.578  -9.537  -0.927 +0.00 -0.00    -0.274 OA 
DOCKED: ATOM     46  N5  UNL     1      11.905  -8.520   1.020 +0.00 -0.00    -0.310 N  
DOCKED: ATOM     47  H45 UNL     1      12.005  -8.493   2.027 +0.00 +0.00    +0.149 HD 
DOCKED: BRANCH  46  48
DOCKED: ATOM     48  C30 UNL     1      11.318  -7.363   0.380 +0.00 +0.00    +0.139 C  
DOCKED: BRANCH  48  49
DOCKED: ATOM     49  C31 UNL     1      12.194  -6.155   0.575 +0.00 -0.00    -0.027 A  
DOCKED: ATOM     50  C32 UNL     1      11.617  -4.892   0.743 +0.00 +0.00    +0.025 A  
DOCKED: ATOM     51  C33 UNL     1      12.448  -3.788   0.863 +0.00 +0.00    +0.111 A  
DOCKED: ATOM     52  N6  UNL     1      13.801  -3.857   0.831 +0.00 -0.00    -0.263 NA 
DOCKED: ATOM     53  C34 UNL     1      14.338  -5.084   0.656 +0.00 +0.00    +0.111 A  
DOCKED: ATOM     54  C35 UNL     1      13.589  -6.246   0.525 +0.00 +0.00    +0.025 A  
DOCKED: ENDBRANCH  48  49
DOCKED: ENDBRANCH  46  48
DOCKED: ENDBRANCH  43  44
DOCKED: BRANCH  43  55
DOCKED: ATOM     55  C36 UNL     1      12.395 -11.488   1.955 +0.00 +0.00    +0.012 C  
DOCKED: ATOM     56  C37 UNL     1      10.953 -11.487   1.434 +0.00 +0.00    +0.009 C  
DOCKED: ATOM     57  C38 UNL     1      12.944 -12.916   2.027 +0.00 +0.00    +0.009 C  
DOCKED: ENDBRANCH  43  55
DOCKED: ENDBRANCH  41  43
DOCKED: ENDBRANCH  37  39
DOCKED: ENDBRANCH  36  37
DOCKED: ENDBRANCH  33  36
DOCKED: ENDBRANCH   1  33
DOCKED: TORSDOF 21
DOCKED: TER
DOCKED: ENDMDL
________________________________________________________________________________


    FINAL DOCKED STATE:
    ________________________


Run:   9 / 20
Time taken for this run:   1.486s

DOCKED: MODEL        9
DOCKED: USER    Run = 9
DOCKED: USER
DOCKED: USER    Estimated Free Energy of Binding    =  +6.26 kcal/mol  [=(1)+(2)+(3)-(4)]
DOCKED: USER
DOCKED: USER    (1) Final Intermolecular Energy     =  +0.00 kcal/mol
DOCKED: USER        vdW + Hbond + desolv Energy     =  +0.00 kcal/mol
DOCKED: USER        Electrostatic Energy            =  +0.00 kcal/mol
DOCKED: USER        Moving Ligand-Fixed Receptor    =  +0.00 kcal/mol
DOCKED: USER        Moving Ligand-Moving Receptor   =  +0.00 kcal/mol
DOCKED: USER    (2) Final Total Internal Energy     = -15.03 kcal/mol
DOCKED: USER    (3) Torsional Free Energy           =  +6.26 kcal/mol
DOCKED: USER    (4) Unbound System's Energy         = -15.03 kcal/mol
DOCKED: USER
DOCKED: USER
DOCKED: REMARK  Name = ligands/ligand_20.pdb
DOCKED: REMARK  30 active torsions:
DOCKED: REMARK  status: ('A' for Active; 'I' for Inactive)
DOCKED: REMARK    1  A    between atoms: C1_1  and  C2_2
DOCKED: REMARK    2  A    between atoms: C2_2  and  C3_3
DOCKED: REMARK    3  A    between atoms: C2_2  and  C4_4
DOCKED: REMARK    4  A    between atoms: C4_4  and  C5_5
DOCKED: REMARK    5  A    between atoms: C5_5  and  N1_6
DOCKED: REMARK    6  A    between atoms: C5_5  and  C11_14
DOCKED: REMARK    7  A    between atoms: C6_7  and  O2_9
DOCKED: REMARK    8  A    between atoms: O2_9  and  C7_10
DOCKED: REMARK    9  A    between atoms: C7_10  and  C8_11
DOCKED: REMARK   10  A    between atoms: C7_10  and  C9_12
DOCKED: REMARK   11  A    between atoms: C7_10  and  C10_13
DOCKED: REMARK   12  A    between atoms: N2_16  and  C12_17
DOCKED: REMARK   13  A    between atoms: C12_17  and  C13_18
DOCKED: REMARK   14  A    between atoms: C12_17  and  C14_19
DOCKED: REMARK   15  A    between atoms: N3_21  and  C15_22
DOCKED: REMARK   16  A    between atoms: C15_22  and  C16_23
DOCKED: REMARK   17  A    between atoms: C15_22  and  C23_30
DOCKED: REMARK   18  A    between atoms: C16_23  and  C17_24
DOCKED: REMARK   19  A    between atoms: C23_30  and  O5_31
DOCKED: REMARK   20  A    between atoms: C23_30  and  C24_32
DOCKED: REMARK   21  A    between atoms: C24_32  and  C25_33
DOCKED: REMARK   22  A    between atoms: C25_33  and  C26_34
DOCKED: REMARK   23  A    between atoms: C25_33  and  C27_35
DOCKED: REMARK   24  A    between atoms: N4_37  and  C28_38
DOCKED: REMARK   25  A    between atoms: C28_38  and  C29_39
DOCKED: REMARK   26  A    between atoms: C28_38  and  C36_49
DOCKED: REMARK   27  A    between atoms: N5_41  and  C30_42
DOCKED: REMARK   28  A    between atoms: C30_42  and  C31_43
DOCKED: REMARK   29  A    between atoms: C36_49  and  C37_50
DOCKED: REMARK   30  A    between atoms: C36_49  and  C38_51
DOCKED: REMARK                            x       y       z     vdW  Elec       q    Type
DOCKED: REMARK                         _______ _______ _______ _____ _____    ______ ____
DOCKED: USER                              x       y       z     vdW  Elec       q    Type
DOCKED: USER                           _______ _______ _______ _____ _____    ______ ____
DOCKED: ROOT
DOCKED: ATOM      1  C15 UNL     1       3.126  -5.398   7.721 +0.00 +0.00    +0.106 C  
DOCKED: ENDROOT
DOCKED: BRANCH   1   4
DOCKED: ATOM      2  C14 UNL     1       3.509  -5.966   5.313 +0.00 +0.00    +0.233 C  
DOCKED: ATOM      3  O4  UNL     1       2.340  -5.796   4.981 +0.00 -0.00    -0.274 OA 
DOCKED: ATOM      4  N3  UNL     1       3.978  -5.691   6.574 +0.00 -0.00    -0.308 N  
DOCKED: ATOM      5  H26 UNL     1       4.969  -5.768   6.781 +0.00 +0.00    +0.149 HD 
DOCKED: BRANCH   2   6
DOCKED: ATOM      6  C12 UNL     1       4.595  -6.465   4.338 +0.00 +0.00    +0.156 C  
DOCKED: ATOM      7  C13 UNL     1       3.955  -7.333   3.260 +0.00 +0.00    +0.038 C  
DOCKED: BRANCH   6  10
DOCKED: ATOM      8  C11 UNL     1       6.920  -7.174   4.632 +0.00 +0.00    +0.234 C  
DOCKED: ATOM      9  O3  UNL     1       7.227  -6.590   3.590 +0.00 -0.00    -0.274 OA 
DOCKED: ATOM     10  N2  UNL     1       5.608  -7.217   5.073 +0.00 -0.00    -0.303 N  
DOCKED: ATOM     11  H21 UNL     1       5.479  -7.214   6.077 +0.00 +0.00    +0.149 HD 
DOCKED: BRANCH   8  12
DOCKED: ATOM     12  C5  UNL     1       7.958  -7.973   5.467 +0.00 +0.00    +0.162 C  
DOCKED: BRANCH  12  13
DOCKED: ATOM     13  N1  UNL     1       8.292  -7.155   6.632 +0.00 -0.00    -0.270 N  
DOCKED: ATOM     14  C6  UNL     1       7.421  -6.892   7.639 +0.00 +0.00    +0.401 C  
DOCKED: ATOM     15  O1  UNL     1       6.240  -7.209   7.649 +0.00 -0.00    -0.226 OA 
DOCKED: ATOM     16  H11 UNL     1       9.267  -6.969   6.842 +0.00 +0.00    +0.153 HD 
DOCKED: BRANCH  14  17
DOCKED: ATOM     17  O2  UNL     1       8.075  -6.217   8.612 +0.00 -0.00    -0.445 OA 
DOCKED: BRANCH  17  18
DOCKED: ATOM     18  C7  UNL     1       8.253  -6.812   9.922 +0.00 +0.00    +0.107 C  
DOCKED: ATOM     19  C8  UNL     1       8.845  -8.223   9.810 +0.00 +0.00    +0.055 C  
DOCKED: ATOM     20  C9  UNL     1       6.948  -6.792  10.732 +0.00 +0.00    +0.055 C  
DOCKED: ATOM     21  C10 UNL     1       9.270  -5.900  10.623 +0.00 +0.00    +0.055 C  
DOCKED: ENDBRANCH  17  18
DOCKED: ENDBRANCH  14  17
DOCKED: ENDBRANCH  12  13
DOCKED: BRANCH  12  22
DOCKED: ATOM     22  C4  UNL     1       7.514  -9.365   5.948 +0.00 +0.00    +0.035 C  
DOCKED: BRANCH  22  24
DOCKED: ATOM     23  C1  UNL     1       7.999 -11.425   7.378 +0.00 +0.00    +0.007 C  
DOCKED: ATOM     24  C2  UNL     1       8.417  -9.993   7.035 +0.00 -0.00    -0.015 C  
DOCKED: ATOM     25  C3  UNL     1       9.878  -9.995   6.566 +0.00 +0.00    +0.007 C  
DOCKED: ENDBRANCH  22  24
DOCKED: ENDBRANCH  12  22
DOCKED: ENDBRANCH   8  12
DOCKED: ENDBRANCH   6  10
DOCKED: ENDBRANCH   2   6
DOCKED: ENDBRANCH   1   4
DOCKED: BRANCH   1  26
DOCKED: ATOM     26  C16 UNL     1       2.463  -6.688   8.266 +0.00 +0.00    +0.060 C  
DOCKED: BRANCH  26  27
DOCKED: ATOM     27  C17 UNL     1       3.333  -7.921   8.354 +0.00 -0.00    -0.046 A  
DOCKED: ATOM     28  C18 UNL     1       4.008  -8.231   9.546 +0.00 +0.00    +0.004 A  
DOCKED: ATOM     29  C19 UNL     1       4.821  -9.362   9.625 +0.00 +0.00    +0.000 A  
DOCKED: ATOM     30  C20 UNL     1       4.956 -10.204   8.522 +0.00 +0.00    +0.000 A  
DOCKED: ATOM     31  C21 UNL     1       4.276  -9.916   7.341 +0.00 +0.00    +0.000 A  
DOCKED: ATOM     32  C22 UNL     1       3.471  -8.777   7.253 +0.00 +0.00    +0.004 A  
DOCKED: ENDBRANCH  26  27
DOCKED: ENDBRANCH   1  26
DOCKED: BRANCH   1  33
DOCKED: ATOM     33  C23 UNL     1       3.915  -4.616   8.802 +0.00 +0.00    +0.136 C  
DOCKED: BRANCH  33  34
DOCKED: ATOM     34  O5  UNL     1       5.253  -5.132   8.891 +0.00 -0.00    -0.390 OA 
DOCKED: ATOM     35  H36 UNL     1       5.598  -5.209   7.986 +0.00 +0.00    +0.210 HD 
DOCKED: ENDBRANCH  33  34
DOCKED: BRANCH  33  36
DOCKED: ATOM     36  C24 UNL     1       4.017  -3.111   8.500 +0.00 +0.00    +0.045 C  
DOCKED: BRANCH  36  37
DOCKED: ATOM     37  C25 UNL     1       5.401  -2.596   8.043 +0.00 +0.00    +0.074 C  
DOCKED: ATOM     38  C26 UNL     1       6.498  -2.803   9.092 +0.00 +0.00    +0.017 C  
DOCKED: BRANCH  37  39
DOCKED: ATOM     39  C27 UNL     1       5.789  -3.301   6.745 +0.00 +0.00    +0.217 C  
DOCKED: ATOM     40  O6  UNL     1       6.454  -4.334   6.718 +0.00 -0.00    -0.276 OA 
DOCKED: ATOM     41  N4  UNL     1       5.286  -2.712   5.611 +0.00 -0.00    -0.304 N  
DOCKED: ATOM     42  H43 UNL     1       4.846  -1.796   5.655 +0.00 +0.00    +0.149 HD 
DOCKED: BRANCH  41  43
DOCKED: ATOM     43  C28 UNL     1       5.506  -3.274   4.278 +0.00 +0.00    +0.161 C  
DOCKED: BRANCH  43  44
DOCKED: ATOM     44  C29 UNL     1       7.003  -3.091   3.935 +0.00 +0.00    +0.234 C  
DOCKED: ATOM     45  O7  UNL     1       7.405  -2.142   3.261 +0.00 -0.00    -0.274 OA 
DOCKED: ATOM     46  N5  UNL     1       7.831  -4.080   4.420 +0.00 -0.00    -0.310 N  
DOCKED: ATOM     47  H45 UNL     1       7.424  -4.877   4.895 +0.00 +0.00    +0.149 HD 
DOCKED: BRANCH  46  48
DOCKED: ATOM     48  C30 UNL     1       9.219  -4.178   4.027 +0.00 +0.00    +0.139 C  
DOCKED: BRANCH  48  49
DOCKED: ATOM     49  C31 UNL     1      10.004  -4.941   5.061 +0.00 -0.00    -0.027 A  
DOCKED: ATOM     50  C32 UNL     1      10.649  -6.132   4.712 +0.00 +0.00    +0.025 A  
DOCKED: ATOM     51  C33 UNL     1      11.316  -6.844   5.697 +0.00 +0.00    +0.111 A  
DOCKED: ATOM     52  N6  UNL     1      11.387  -6.452   6.992 +0.00 -0.00    -0.263 NA 
DOCKED: ATOM     53  C34 UNL     1      10.747  -5.305   7.312 +0.00 +0.00    +0.111 A  
DOCKED: ATOM     54  C35 UNL     1      10.053  -4.527   6.396 +0.00 +0.00    +0.025 A  
DOCKED: ENDBRANCH  48  49
DOCKED: ENDBRANCH  46  48
DOCKED: ENDBRANCH  43  44
DOCKED: BRANCH  43  55
DOCKED: ATOM     55  C36 UNL     1       4.543  -2.639   3.242 +0.00 +0.00    +0.012 C  
DOCKED: ATOM     56  C37 UNL     1       4.432  -3.456   1.950 +0.00 +0.00    +0.009 C  
DOCKED: ATOM     57  C38 UNL     1       3.155  -2.354   3.824 +0.00 +0.00    +0.009 C  
DOCKED: ENDBRANCH  43  55
DOCKED: ENDBRANCH  41  43
DOCKED: ENDBRANCH  37  39
DOCKED: ENDBRANCH  36  37
DOCKED: ENDBRANCH  33  36
DOCKED: ENDBRANCH   1  33
DOCKED: TORSDOF 21
DOCKED: TER
DOCKED: ENDMDL
________________________________________________________________________________


    FINAL DOCKED STATE:
    ________________________


Run:   10 / 20
Time taken for this run:   1.486s

DOCKED: MODEL        10
DOCKED: USER    Run = 10
DOCKED: USER
DOCKED: USER    Estimated Free Energy of Binding    =  +6.26 kcal/mol  [=(1)+(2)+(3)-(4)]
DOCKED: USER
DOCKED: USER    (1) Final Intermolecular Energy     =  +0.00 kcal/mol
DOCKED: USER        vdW + Hbond + desolv Energy     =  +0.00 kcal/mol
DOCKED: USER        Electrostatic Energy            =  +0.00 kcal/mol
DOCKED: USER        Moving Ligand-Fixed Receptor    =  +0.00 kcal/mol
DOCKED: USER        Moving Ligand-Moving Receptor   =  +0.00 kcal/mol
DOCKED: USER    (2) Final Total Internal Energy     = -15.03 kcal/mol
DOCKED: USER    (3) Torsional Free Energy           =  +6.26 kcal/mol
DOCKED: USER    (4) Unbound System's Energy         = -15.03 kcal/mol
DOCKED: USER
DOCKED: USER
DOCKED: REMARK  Name = ligands/ligand_20.pdb
DOCKED: REMARK  30 active torsions:
DOCKED: REMARK  status: ('A' for Active; 'I' for Inactive)
DOCKED: REMARK    1  A    between atoms: C1_1  and  C2_2
DOCKED: REMARK    2  A    between atoms: C2_2  and  C3_3
DOCKED: REMARK    3  A    between atoms: C2_2  and  C4_4
DOCKED: REMARK    4  A    between atoms: C4_4  and  C5_5
DOCKED: REMARK    5  A    between atoms: C5_5  and  N1_6
DOCKED: REMARK    6  A    between atoms: C5_5  and  C11_14
DOCKED: REMARK    7  A    between atoms: C6_7  and  O2_9
DOCKED: REMARK    8  A    between atoms: O2_9  and  C7_10
DOCKED: REMARK    9  A    between atoms: C7_10  and  C8_11
DOCKED: REMARK   10  A    between atoms: C7_10  and  C9_12
DOCKED: REMARK   11  A    between atoms: C7_10  and  C10_13
DOCKED: REMARK   12  A    between atoms: N2_16  and  C12_17
DOCKED: REMARK   13  A    between atoms: C12_17  and  C13_18
DOCKED: REMARK   14  A    between atoms: C12_17  and  C14_19
DOCKED: REMARK   15  A    between atoms: N3_21  and  C15_22
DOCKED: REMARK   16  A    between atoms: C15_22  and  C16_23
DOCKED: REMARK   17  A    between atoms: C15_22  and  C23_30
DOCKED: REMARK   18  A    between atoms: C16_23  and  C17_24
DOCKED: REMARK   19  A    between atoms: C23_30  and  O5_31
DOCKED: REMARK   20  A    between atoms: C23_30  and  C24_32
DOCKED: REMARK   21  A    between atoms: C24_32  and  C25_33
DOCKED: REMARK   22  A    between atoms: C25_33  and  C26_34
DOCKED: REMARK   23  A    between atoms: C25_33  and  C27_35
DOCKED: REMARK   24  A    between atoms: N4_37  and  C28_38
DOCKED: REMARK   25  A    between atoms: C28_38  and  C29_39
DOCKED: REMARK   26  A    between atoms: C28_38  and  C36_49
DOCKED: REMARK   27  A    between atoms: N5_41  and  C30_42
DOCKED: REMARK   28  A    between atoms: C30_42  and  C31_43
DOCKED: REMARK   29  A    between atoms: C36_49  and  C37_50
DOCKED: REMARK   30  A    between atoms: C36_49  and  C38_51
DOCKED: REMARK                            x       y       z     vdW  Elec       q    Type
DOCKED: REMARK                         _______ _______ _______ _____ _____    ______ ____
DOCKED: USER                              x       y       z     vdW  Elec       q    Type
DOCKED: USER                           _______ _______ _______ _____ _____    ______ ____
DOCKED: ROOT
DOCKED: ATOM      1  C15 UNL     1      10.257  -6.229  -0.287 +0.00 +0.00    +0.106 C  
DOCKED: ENDROOT
DOCKED: BRANCH   1   4
DOCKED: ATOM      2  C14 UNL     1      10.173  -3.783   0.240 +0.00 +0.00    +0.233 C  
DOCKED: ATOM      3  O4  UNL     1       9.410  -3.910   1.194 +0.00 -0.00    -0.274 OA 
DOCKED: ATOM      4  N3  UNL     1      10.703  -4.848  -0.444 +0.00 -0.00    -0.308 N  
DOCKED: ATOM      5  H26 UNL     1      11.393  -4.699  -1.173 +0.00 +0.00    +0.149 HD 
DOCKED: BRANCH   2   6
DOCKED: ATOM      6  C12 UNL     1      10.656  -2.410  -0.270 +0.00 +0.00    +0.156 C  
DOCKED: ATOM      7  C13 UNL     1       9.587  -1.357  -0.002 +0.00 +0.00    +0.038 C  
DOCKED: BRANCH   6  10
DOCKED: ATOM      8  C11 UNL     1      11.986  -1.725  -2.209 +0.00 +0.00    +0.234 C  
DOCKED: ATOM      9  O3  UNL     1      12.593  -0.916  -1.504 +0.00 -0.00    -0.274 OA 
DOCKED: ATOM     10  N2  UNL     1      10.953  -2.493  -1.698 +0.00 -0.00    -0.303 N  
DOCKED: ATOM     11  H21 UNL     1      10.859  -3.422  -2.088 +0.00 +0.00    +0.149 HD 
DOCKED: BRANCH   8  12
DOCKED: ATOM     12  C5  UNL     1      12.272  -1.872  -3.729 +0.00 +0.00    +0.162 C  
DOCKED: BRANCH  12  13
DOCKED: ATOM     13  N1  UNL     1      13.054  -3.096  -3.902 +0.00 -0.00    -0.270 N  
DOCKED: ATOM     14  C6  UNL     1      12.558  -4.340  -3.684 +0.00 +0.00    +0.401 C  
DOCKED: ATOM     15  O1  UNL     1      11.453  -4.586  -3.222 +0.00 -0.00    -0.226 OA 
DOCKED: ATOM     16  H11 UNL     1      13.917  -3.059  -4.433 +0.00 +0.00    +0.153 HD 
DOCKED: BRANCH  14  17
DOCKED: ATOM     17  O2  UNL     1      13.492  -5.248  -4.049 +0.00 -0.00    -0.445 OA 
DOCKED: BRANCH  17  18
DOCKED: ATOM     18  C7  UNL     1      13.238  -6.155  -5.151 +0.00 +0.00    +0.107 C  
DOCKED: ATOM     19  C8  UNL     1      12.598  -5.418  -6.335 +0.00 +0.00    +0.055 C  
DOCKED: ATOM     20  C9  UNL     1      12.406  -7.367  -4.704 +0.00 +0.00    +0.055 C  
DOCKED: ATOM     21  C10 UNL     1      14.629  -6.652  -5.568 +0.00 +0.00    +0.055 C  
DOCKED: ENDBRANCH  17  18
DOCKED: ENDBRANCH  14  17
DOCKED: ENDBRANCH  12  13
DOCKED: BRANCH  12  22
DOCKED: ATOM     22  C4  UNL     1      11.040  -1.937  -4.647 +0.00 +0.00    +0.035 C  
DOCKED: BRANCH  22  24
DOCKED: ATOM     23  C1  UNL     1      10.113  -2.224  -7.010 +0.00 +0.00    +0.007 C  
DOCKED: ATOM     24  C2  UNL     1      11.339  -2.361  -6.103 +0.00 -0.00    -0.015 C  
DOCKED: ATOM     25  C3  UNL     1      12.482  -1.511  -6.673 +0.00 +0.00    +0.007 C  
DOCKED: ENDBRANCH  22  24
DOCKED: ENDBRANCH  12  22
DOCKED: ENDBRANCH   8  12
DOCKED: ENDBRANCH   6  10
DOCKED: ENDBRANCH   2   6
DOCKED: ENDBRANCH   1   4
DOCKED: BRANCH   1  26
DOCKED: ATOM     26  C16 UNL     1       8.937  -6.478  -1.061 +0.00 +0.00    +0.060 C  
DOCKED: BRANCH  26  27
DOCKED: ATOM     27  C17 UNL     1       8.822  -5.861  -2.436 +0.00 -0.00    -0.046 A  
DOCKED: ATOM     28  C18 UNL     1       8.363  -4.543  -2.588 +0.00 +0.00    +0.004 A  
DOCKED: ATOM     29  C19 UNL     1       8.244  -3.977  -3.858 +0.00 +0.00    +0.000 A  
DOCKED: ATOM     30  C20 UNL     1       8.598  -4.714  -4.987 +0.00 +0.00    +0.000 A  
DOCKED: ATOM     31  C21 UNL     1       9.073  -6.016  -4.846 +0.00 +0.00    +0.000 A  
DOCKED: ATOM     32  C22 UNL     1       9.181  -6.592  -3.577 +0.00 +0.00    +0.004 A  
DOCKED: ENDBRANCH  26  27
DOCKED: ENDBRANCH   1  26
DOCKED: BRANCH   1  33
DOCKED: ATOM     33  C23 UNL     1      11.387  -7.216  -0.677 +0.00 +0.00    +0.136 C  
DOCKED: BRANCH  33  34
DOCKED: ATOM     34  O5  UNL     1      12.098  -6.709  -1.817 +0.00 -0.00    -0.390 OA 
DOCKED: ATOM     35  H36 UNL     1      12.279  -5.768  -1.657 +0.00 +0.00    +0.210 HD 
DOCKED: ENDBRANCH  33  34
DOCKED: BRANCH  33  36
DOCKED: ATOM     36  C24 UNL     1      12.411  -7.431   0.450 +0.00 +0.00    +0.045 C  
DOCKED: BRANCH  36  37
DOCKED: ATOM     37  C25 UNL     1      13.803  -6.794   0.242 +0.00 +0.00    +0.074 C  
DOCKED: ATOM     38  C26 UNL     1      14.542  -7.345  -0.981 +0.00 +0.00    +0.017 C  
DOCKED: BRANCH  37  39
DOCKED: ATOM     39  C27 UNL     1      13.641  -5.282   0.108 +0.00 +0.00    +0.217 C  
DOCKED: ATOM     40  O6  UNL     1      13.519  -4.716  -0.976 +0.00 -0.00    -0.276 OA 
DOCKED: ATOM     41  N4  UNL     1      13.591  -4.611   1.305 +0.00 -0.00    -0.304 N  
DOCKED: ATOM     42  H43 UNL     1      13.816  -5.086   2.175 +0.00 +0.00    +0.149 HD 
DOCKED: BRANCH  41  43
DOCKED: ATOM     43  C28 UNL     1      13.386  -3.164   1.380 +0.00 +0.00    +0.161 C  
DOCKED: BRANCH  43  44
DOCKED: ATOM     44  C29 UNL     1      14.661  -2.482   0.830 +0.00 +0.00    +0.234 C  
DOCKED: ATOM     45  O7  UNL     1      15.561  -2.090   1.573 +0.00 -0.00    -0.274 OA 
DOCKED: ATOM     46  N5  UNL     1      14.690  -2.332  -0.539 +0.00 -0.00    -0.310 N  
DOCKED: ATOM     47  H45 UNL     1      13.879  -2.600  -1.084 +0.00 +0.00    +0.149 HD 
DOCKED: BRANCH  46  48
DOCKED: ATOM     48  C30 UNL     1      15.703  -1.541  -1.202 +0.00 +0.00    +0.139 C  
DOCKED: BRANCH  48  49
DOCKED: ATOM     49  C31 UNL     1      15.793  -1.916  -2.657 +0.00 -0.00    -0.027 A  
DOCKED: ATOM     50  C32 UNL     1      15.480  -0.975  -3.643 +0.00 +0.00    +0.025 A  
DOCKED: ATOM     51  C33 UNL     1      15.515  -1.365  -4.973 +0.00 +0.00    +0.111 A  
DOCKED: ATOM     52  N6  UNL     1      15.842  -2.614  -5.384 +0.00 -0.00    -0.263 NA 
DOCKED: ATOM     53  C34 UNL     1      16.129  -3.512  -4.416 +0.00 +0.00    +0.111 A  
DOCKED: ATOM     54  C35 UNL     1      16.118  -3.216  -3.059 +0.00 +0.00    +0.025 A  
DOCKED: ENDBRANCH  48  49
DOCKED: ENDBRANCH  46  48
DOCKED: ENDBRANCH  43  44
DOCKED: BRANCH  43  55
DOCKED: ATOM     55  C36 UNL     1      13.014  -2.729   2.821 +0.00 +0.00    +0.012 C  
DOCKED: ATOM     56  C37 UNL     1      12.438  -1.310   2.887 +0.00 +0.00    +0.009 C  
DOCKED: ATOM     57  C38 UNL     1      12.080  -3.725   3.515 +0.00 +0.00    +0.009 C  
DOCKED: ENDBRANCH  43  55
DOCKED: ENDBRANCH  41  43
DOCKED: ENDBRANCH  37  39
DOCKED: ENDBRANCH  36  37
DOCKED: ENDBRANCH  33  36
DOCKED: ENDBRANCH   1  33
DOCKED: TORSDOF 21
DOCKED: TER
DOCKED: ENDMDL
________________________________________________________________________________


    FINAL DOCKED STATE:
    ________________________


Run:   11 / 20
Time taken for this run:   1.486s

DOCKED: MODEL        11
DOCKED: USER    Run = 11
DOCKED: USER
DOCKED: USER    Estimated Free Energy of Binding    =  +6.26 kcal/mol  [=(1)+(2)+(3)-(4)]
DOCKED: USER
DOCKED: USER    (1) Final Intermolecular Energy     =  +0.00 kcal/mol
DOCKED: USER        vdW + Hbond + desolv Energy     =  +0.00 kcal/mol
DOCKED: USER        Electrostatic Energy            =  +0.00 kcal/mol
DOCKED: USER        Moving Ligand-Fixed Receptor    =  +0.00 kcal/mol
DOCKED: USER        Moving Ligand-Moving Receptor   =  +0.00 kcal/mol
DOCKED: USER    (2) Final Total Internal Energy     = -14.78 kcal/mol
DOCKED: USER    (3) Torsional Free Energy           =  +6.26 kcal/mol
DOCKED: USER    (4) Unbound System's Energy         = -14.78 kcal/mol
DOCKED: USER
DOCKED: USER
DOCKED: REMARK  Name = ligands/ligand_20.pdb
DOCKED: REMARK  30 active torsions:
DOCKED: REMARK  status: ('A' for Active; 'I' for Inactive)
DOCKED: REMARK    1  A    between atoms: C1_1  and  C2_2
DOCKED: REMARK    2  A    between atoms: C2_2  and  C3_3
DOCKED: REMARK    3  A    between atoms: C2_2  and  C4_4
DOCKED: REMARK    4  A    between atoms: C4_4  and  C5_5
DOCKED: REMARK    5  A    between atoms: C5_5  and  N1_6
DOCKED: REMARK    6  A    between atoms: C5_5  and  C11_14
DOCKED: REMARK    7  A    between atoms: C6_7  and  O2_9
DOCKED: REMARK    8  A    between atoms: O2_9  and  C7_10
DOCKED: REMARK    9  A    between atoms: C7_10  and  C8_11
DOCKED: REMARK   10  A    between atoms: C7_10  and  C9_12
DOCKED: REMARK   11  A    between atoms: C7_10  and  C10_13
DOCKED: REMARK   12  A    between atoms: N2_16  and  C12_17
DOCKED: REMARK   13  A    between atoms: C12_17  and  C13_18
DOCKED: REMARK   14  A    between atoms: C12_17  and  C14_19
DOCKED: REMARK   15  A    between atoms: N3_21  and  C15_22
DOCKED: REMARK   16  A    between atoms: C15_22  and  C16_23
DOCKED: REMARK   17  A    between atoms: C15_22  and  C23_30
DOCKED: REMARK   18  A    between atoms: C16_23  and  C17_24
DOCKED: REMARK   19  A    between atoms: C23_30  and  O5_31
DOCKED: REMARK   20  A    between atoms: C23_30  and  C24_32
DOCKED: REMARK   21  A    between atoms: C24_32  and  C25_33
DOCKED: REMARK   22  A    between atoms: C25_33  and  C26_34
DOCKED: REMARK   23  A    between atoms: C25_33  and  C27_35
DOCKED: REMARK   24  A    between atoms: N4_37  and  C28_38
DOCKED: REMARK   25  A    between atoms: C28_38  and  C29_39
DOCKED: REMARK   26  A    between atoms: C28_38  and  C36_49
DOCKED: REMARK   27  A    between atoms: N5_41  and  C30_42
DOCKED: REMARK   28  A    between atoms: C30_42  and  C31_43
DOCKED: REMARK   29  A    between atoms: C36_49  and  C37_50
DOCKED: REMARK   30  A    between atoms: C36_49  and  C38_51
DOCKED: REMARK                            x       y       z     vdW  Elec       q    Type
DOCKED: REMARK                         _______ _______ _______ _____ _____    ______ ____
DOCKED: USER                              x       y       z     vdW  Elec       q    Type
DOCKED: USER                           _______ _______ _______ _____ _____    ______ ____
DOCKED: ROOT
DOCKED: ATOM      1  C15 UNL     1      12.694  -1.870  -4.319 +0.00 +0.00    +0.106 C  
DOCKED: ENDROOT
DOCKED: BRANCH   1   4
DOCKED: ATOM      2  C14 UNL     1      11.138   0.062  -3.983 +0.00 +0.00    +0.233 C  
DOCKED: ATOM      3  O4  UNL     1      10.661   0.006  -5.113 +0.00 -0.00    -0.274 OA 
DOCKED: ATOM      4  N3  UNL     1      12.029  -0.863  -3.499 +0.00 -0.00    -0.308 N  
DOCKED: ATOM      5  H26 UNL     1      12.334  -0.826  -2.532 +0.00 +0.00    +0.149 HD 
DOCKED: BRANCH   2   6
DOCKED: ATOM      6  C12 UNL     1      10.754   1.153  -2.963 +0.00 +0.00    +0.156 C  
DOCKED: ATOM      7  C13 UNL     1      11.113   2.526  -3.522 +0.00 +0.00    +0.038 C  
DOCKED: BRANCH   6  10
DOCKED: ATOM      8  C11 UNL     1      10.734   1.010  -0.519 +0.00 +0.00    +0.234 C  
DOCKED: ATOM      9  O3  UNL     1       9.557   1.381  -0.510 +0.00 -0.00    -0.274 OA 
DOCKED: ATOM     10  N2  UNL     1      11.448   0.912  -1.701 +0.00 -0.00    -0.303 N  
DOCKED: ATOM     11  H21 UNL     1      12.135   0.170  -1.741 +0.00 +0.00    +0.149 HD 
DOCKED: BRANCH   8  12
DOCKED: ATOM     12  C5  UNL     1      11.517   0.719   0.790 +0.00 +0.00    +0.162 C  
DOCKED: BRANCH  12  13
DOCKED: ATOM     13  N1  UNL     1      12.885   1.194   0.587 +0.00 -0.00    -0.270 N  
DOCKED: ATOM     14  C6  UNL     1      13.782   0.572  -0.221 +0.00 +0.00    +0.401 C  
DOCKED: ATOM     15  O1  UNL     1      13.600  -0.498  -0.782 +0.00 -0.00    -0.226 OA 
DOCKED: ATOM     16  H11 UNL     1      13.123   2.144   0.848 +0.00 +0.00    +0.153 HD 
DOCKED: BRANCH  14  17
DOCKED: ATOM     17  O2  UNL     1      14.903   1.327  -0.283 +0.00 -0.00    -0.445 OA 
DOCKED: BRANCH  17  18
DOCKED: ATOM     18  C7  UNL     1      15.914   1.223   0.752 +0.00 +0.00    +0.107 C  
DOCKED: ATOM     19  C8  UNL     1      17.278   0.855   0.153 +0.00 +0.00    +0.055 C  
DOCKED: ATOM     20  C9  UNL     1      15.486   0.251   1.862 +0.00 +0.00    +0.055 C  
DOCKED: ATOM     21  C10 UNL     1      15.997   2.633   1.351 +0.00 +0.00    +0.055 C  
DOCKED: ENDBRANCH  17  18
DOCKED: ENDBRANCH  14  17
DOCKED: ENDBRANCH  12  13
DOCKED: BRANCH  12  22
DOCKED: ATOM     22  C4  UNL     1      10.956   1.359   2.072 +0.00 +0.00    +0.035 C  
DOCKED: BRANCH  22  24
DOCKED: ATOM     23  C1  UNL     1       9.741  -0.551   3.256 +0.00 +0.00    +0.007 C  
DOCKED: ATOM     24  C2  UNL     1      10.923   0.421   3.302 +0.00 -0.00    -0.015 C  
DOCKED: ATOM     25  C3  UNL     1      12.229  -0.379   3.387 +0.00 +0.00    +0.007 C  
DOCKED: ENDBRANCH  22  24
DOCKED: ENDBRANCH  12  22
DOCKED: ENDBRANCH   8  12
DOCKED: ENDBRANCH   6  10
DOCKED: ENDBRANCH   2   6
DOCKED: ENDBRANCH   1   4
DOCKED: BRANCH   1  26
DOCKED: ATOM     26  C16 UNL     1      13.847  -1.244  -5.143 +0.00 +0.00    +0.060 C  
DOCKED: BRANCH  26  27
DOCKED: ATOM     27  C17 UNL     1      14.757  -0.275  -4.422 +0.00 -0.00    -0.046 A  
DOCKED: ATOM     28  C18 UNL     1      16.022  -0.689  -3.974 +0.00 +0.00    +0.004 A  
DOCKED: ATOM     29  C19 UNL     1      16.858   0.200  -3.298 +0.00 +0.00    +0.000 A  
DOCKED: ATOM     30  C20 UNL     1      16.448   1.514  -3.076 +0.00 +0.00    +0.000 A  
DOCKED: ATOM     31  C21 UNL     1      15.203   1.940  -3.534 +0.00 +0.00    +0.000 A  
DOCKED: ATOM     32  C22 UNL     1      14.356   1.049  -4.200 +0.00 +0.00    +0.004 A  
DOCKED: ENDBRANCH  26  27
DOCKED: ENDBRANCH   1  26
DOCKED: BRANCH   1  33
DOCKED: ATOM     33  C23 UNL     1      13.149  -3.070  -3.449 +0.00 +0.00    +0.136 C  
DOCKED: BRANCH  33  34
DOCKED: ATOM     34  O5  UNL     1      13.589  -2.597  -2.167 +0.00 -0.00    -0.390 OA 
DOCKED: ATOM     35  H36 UNL     1      12.954  -1.925  -1.868 +0.00 +0.00    +0.210 HD 
DOCKED: ENDBRANCH  33  34
DOCKED: BRANCH  33  36
DOCKED: ATOM     36  C24 UNL     1      12.028  -4.094  -3.206 +0.00 +0.00    +0.045 C  
DOCKED: BRANCH  36  37
DOCKED: ATOM     37  C25 UNL     1      10.677  -3.528  -2.714 +0.00 +0.00    +0.074 C  
DOCKED: ATOM     38  C26 UNL     1       9.575  -4.589  -2.624 +0.00 +0.00    +0.017 C  
DOCKED: BRANCH  37  39
DOCKED: ATOM     39  C27 UNL     1      10.879  -2.877  -1.348 +0.00 +0.00    +0.217 C  
DOCKED: ATOM     40  O6  UNL     1      11.152  -1.687  -1.209 +0.00 -0.00    -0.276 OA 
DOCKED: ATOM     41  N4  UNL     1      10.678  -3.722  -0.285 +0.00 -0.00    -0.304 N  
DOCKED: ATOM     42  H43 UNL     1      10.575  -4.723  -0.431 +0.00 +0.00    +0.149 HD 
DOCKED: BRANCH  41  43
DOCKED: ATOM     43  C28 UNL     1      10.774  -3.266   1.102 +0.00 +0.00    +0.161 C  
DOCKED: BRANCH  43  44
DOCKED: ATOM     44  C29 UNL     1      12.242  -3.448   1.554 +0.00 +0.00    +0.234 C  
DOCKED: ATOM     45  O7  UNL     1      12.533  -4.001   2.615 +0.00 -0.00    -0.274 OA 
DOCKED: ATOM     46  N5  UNL     1      13.181  -2.926   0.690 +0.00 -0.00    -0.310 N  
DOCKED: ATOM     47  H45 UNL     1      12.870  -2.410  -0.124 +0.00 +0.00    +0.149 HD 
DOCKED: BRANCH  46  48
DOCKED: ATOM     48  C30 UNL     1      14.579  -2.827   1.046 +0.00 +0.00    +0.139 C  
DOCKED: BRANCH  48  49
DOCKED: ATOM     49  C31 UNL     1      15.444  -3.283  -0.097 +0.00 -0.00    -0.027 A  
DOCKED: ATOM     50  C32 UNL     1      16.390  -2.414  -0.649 +0.00 +0.00    +0.025 A  
DOCKED: ATOM     51  C33 UNL     1      17.134  -2.840  -1.739 +0.00 +0.00    +0.111 A  
DOCKED: ATOM     52  N6  UNL     1      17.004  -4.063  -2.307 +0.00 -0.00    -0.263 NA 
DOCKED: ATOM     53  C34 UNL     1      16.077  -4.884  -1.767 +0.00 +0.00    +0.111 A  
DOCKED: ATOM     54  C35 UNL     1      15.284  -4.546  -0.679 +0.00 +0.00    +0.025 A  
DOCKED: ENDBRANCH  48  49
DOCKED: ENDBRANCH  46  48
DOCKED: ENDBRANCH  43  44
DOCKED: BRANCH  43  55
DOCKED: ATOM     55  C36 UNL     1       9.746  -4.000   2.001 +0.00 +0.00    +0.012 C  
DOCKED: ATOM     56  C37 UNL     1       8.311  -3.499   1.798 +0.00 +0.00    +0.009 C  
DOCKED: ATOM     57  C38 UNL     1       9.814  -5.523   1.853 +0.00 +0.00    +0.009 C  
DOCKED: ENDBRANCH  43  55
DOCKED: ENDBRANCH  41  43
DOCKED: ENDBRANCH  37  39
DOCKED: ENDBRANCH  36  37
DOCKED: ENDBRANCH  33  36
DOCKED: ENDBRANCH   1  33
DOCKED: TORSDOF 21
DOCKED: TER
DOCKED: ENDMDL
________________________________________________________________________________


    FINAL DOCKED STATE:
    ________________________


Run:   12 / 20
Time taken for this run:   1.486s

DOCKED: MODEL        12
DOCKED: USER    Run = 12
DOCKED: USER
DOCKED: USER    Estimated Free Energy of Binding    =  +6.26 kcal/mol  [=(1)+(2)+(3)-(4)]
DOCKED: USER
DOCKED: USER    (1) Final Intermolecular Energy     =  +0.00 kcal/mol
DOCKED: USER        vdW + Hbond + desolv Energy     =  +0.00 kcal/mol
DOCKED: USER        Electrostatic Energy            =  +0.00 kcal/mol
DOCKED: USER        Moving Ligand-Fixed Receptor    =  +0.00 kcal/mol
DOCKED: USER        Moving Ligand-Moving Receptor   =  +0.00 kcal/mol
DOCKED: USER    (2) Final Total Internal Energy     = -14.81 kcal/mol
DOCKED: USER    (3) Torsional Free Energy           =  +6.26 kcal/mol
DOCKED: USER    (4) Unbound System's Energy         = -14.81 kcal/mol
DOCKED: USER
DOCKED: USER
DOCKED: REMARK  Name = ligands/ligand_20.pdb
DOCKED: REMARK  30 active torsions:
DOCKED: REMARK  status: ('A' for Active; 'I' for Inactive)
DOCKED: REMARK    1  A    between atoms: C1_1  and  C2_2
DOCKED: REMARK    2  A    between atoms: C2_2  and  C3_3
DOCKED: REMARK    3  A    between atoms: C2_2  and  C4_4
DOCKED: REMARK    4  A    between atoms: C4_4  and  C5_5
DOCKED: REMARK    5  A    between atoms: C5_5  and  N1_6
DOCKED: REMARK    6  A    between atoms: C5_5  and  C11_14
DOCKED: REMARK    7  A    between atoms: C6_7  and  O2_9
DOCKED: REMARK    8  A    between atoms: O2_9  and  C7_10
DOCKED: REMARK    9  A    between atoms: C7_10  and  C8_11
DOCKED: REMARK   10  A    between atoms: C7_10  and  C9_12
DOCKED: REMARK   11  A    between atoms: C7_10  and  C10_13
DOCKED: REMARK   12  A    between atoms: N2_16  and  C12_17
DOCKED: REMARK   13  A    between atoms: C12_17  and  C13_18
DOCKED: REMARK   14  A    between atoms: C12_17  and  C14_19
DOCKED: REMARK   15  A    between atoms: N3_21  and  C15_22
DOCKED: REMARK   16  A    between atoms: C15_22  and  C16_23
DOCKED: REMARK   17  A    between atoms: C15_22  and  C23_30
DOCKED: REMARK   18  A    between atoms: C16_23  and  C17_24
DOCKED: REMARK   19  A    between atoms: C23_30  and  O5_31
DOCKED: REMARK   20  A    between atoms: C23_30  and  C24_32
DOCKED: REMARK   21  A    between atoms: C24_32  and  C25_33
DOCKED: REMARK   22  A    between atoms: C25_33  and  C26_34
DOCKED: REMARK   23  A    between atoms: C25_33  and  C27_35
DOCKED: REMARK   24  A    between atoms: N4_37  and  C28_38
DOCKED: REMARK   25  A    between atoms: C28_38  and  C29_39
DOCKED: REMARK   26  A    between atoms: C28_38  and  C36_49
DOCKED: REMARK   27  A    between atoms: N5_41  and  C30_42
DOCKED: REMARK   28  A    between atoms: C30_42  and  C31_43
DOCKED: REMARK   29  A    between atoms: C36_49  and  C37_50
DOCKED: REMARK   30  A    between atoms: C36_49  and  C38_51
DOCKED: REMARK                            x       y       z     vdW  Elec       q    Type
DOCKED: REMARK                         _______ _______ _______ _____ _____    ______ ____
DOCKED: USER                              x       y       z     vdW  Elec       q    Type
DOCKED: USER                           _______ _______ _______ _____ _____    ______ ____
DOCKED: ROOT
DOCKED: ATOM      1  C15 UNL     1      10.643  -3.700  -2.907 +0.00 +0.00    +0.106 C  
DOCKED: ENDROOT
DOCKED: BRANCH   1   4
DOCKED: ATOM      2  C14 UNL     1       8.679  -2.444  -1.995 +0.00 +0.00    +0.233 C  
DOCKED: ATOM      3  O4  UNL     1       7.866  -3.328  -2.249 +0.00 -0.00    -0.274 OA 
DOCKED: ATOM      4  N3  UNL     1      10.031  -2.593  -2.180 +0.00 -0.00    -0.308 N  
DOCKED: ATOM      5  H26 UNL     1      10.674  -1.867  -1.880 +0.00 +0.00    +0.149 HD 
DOCKED: BRANCH   2   6
DOCKED: ATOM      6  C12 UNL     1       8.277  -1.080  -1.397 +0.00 +0.00    +0.156 C  
DOCKED: ATOM      7  C13 UNL     1       6.954  -0.625  -2.002 +0.00 +0.00    +0.038 C  
DOCKED: BRANCH   6  10
DOCKED: ATOM      8  C11 UNL     1       9.303   1.103  -0.971 +0.00 +0.00    +0.234 C  
DOCKED: ATOM      9  O3  UNL     1       8.368   1.392  -0.220 +0.00 -0.00    -0.274 OA 
DOCKED: ATOM     10  N2  UNL     1       9.328  -0.100  -1.657 +0.00 -0.00    -0.303 N  
DOCKED: ATOM     11  H21 UNL     1      10.245  -0.504  -1.805 +0.00 +0.00    +0.149 HD 
DOCKED: BRANCH   8  12
DOCKED: ATOM     12  C5  UNL     1      10.459   2.096  -1.270 +0.00 +0.00    +0.162 C  
DOCKED: BRANCH  12  13
DOCKED: ATOM     13  N1  UNL     1      11.712   1.379  -1.033 +0.00 -0.00    -0.270 N  
DOCKED: ATOM     14  C6  UNL     1      12.169   0.382  -1.834 +0.00 +0.00    +0.401 C  
DOCKED: ATOM     15  O1  UNL     1      11.554  -0.105  -2.771 +0.00 -0.00    -0.226 OA 
DOCKED: ATOM     16  H11 UNL     1      12.399   1.780  -0.404 +0.00 +0.00    +0.153 HD 
DOCKED: BRANCH  14  17
DOCKED: ATOM     17  O2  UNL     1      13.401   0.020  -1.411 +0.00 -0.00    -0.445 OA 
DOCKED: BRANCH  17  18
DOCKED: ATOM     18  C7  UNL     1      14.572   0.354  -2.197 +0.00 +0.00    +0.107 C  
DOCKED: ATOM     19  C8  UNL     1      14.950   1.831  -2.019 +0.00 +0.00    +0.055 C  
DOCKED: ATOM     20  C9  UNL     1      14.386  -0.023  -3.675 +0.00 +0.00    +0.055 C  
DOCKED: ATOM     21  C10 UNL     1      15.691  -0.519  -1.612 +0.00 +0.00    +0.055 C  
DOCKED: ENDBRANCH  17  18
DOCKED: ENDBRANCH  14  17
DOCKED: ENDBRANCH  12  13
DOCKED: BRANCH  12  22
DOCKED: ATOM     22  C4  UNL     1      10.489   2.694  -2.687 +0.00 +0.00    +0.035 C  
DOCKED: BRANCH  22  24
DOCKED: ATOM     23  C1  UNL     1      11.926   3.475  -4.649 +0.00 +0.00    +0.007 C  
DOCKED: ATOM     24  C2  UNL     1      11.873   3.212  -3.141 +0.00 -0.00    -0.015 C  
DOCKED: ATOM     25  C3  UNL     1      12.220   4.506  -2.393 +0.00 +0.00    +0.007 C  
DOCKED: ENDBRANCH  22  24
DOCKED: ENDBRANCH  12  22
DOCKED: ENDBRANCH   8  12
DOCKED: ENDBRANCH   6  10
DOCKED: ENDBRANCH   2   6
DOCKED: ENDBRANCH   1   4
DOCKED: BRANCH   1  26
DOCKED: ATOM     26  C16 UNL     1      10.327  -3.613  -4.422 +0.00 +0.00    +0.060 C  
DOCKED: BRANCH  26  27
DOCKED: ATOM     27  C17 UNL     1      10.402  -2.245  -5.060 +0.00 -0.00    -0.046 A  
DOCKED: ATOM     28  C18 UNL     1      11.636  -1.726  -5.486 +0.00 +0.00    +0.004 A  
DOCKED: ATOM     29  C19 UNL     1      11.709  -0.459  -6.064 +0.00 +0.00    +0.000 A  
DOCKED: ATOM     30  C20 UNL     1      10.551   0.297  -6.239 +0.00 +0.00    +0.000 A  
DOCKED: ATOM     31  C21 UNL     1       9.319  -0.217  -5.838 +0.00 +0.00    +0.000 A  
DOCKED: ATOM     32  C22 UNL     1       9.243  -1.480  -5.246 +0.00 +0.00    +0.004 A  
DOCKED: ENDBRANCH  26  27
DOCKED: ENDBRANCH   1  26
DOCKED: BRANCH   1  33
DOCKED: ATOM     33  C23 UNL     1      12.161  -3.779  -2.605 +0.00 +0.00    +0.136 C  
DOCKED: BRANCH  33  34
DOCKED: ATOM     34  O5  UNL     1      12.524  -2.742  -1.680 +0.00 -0.00    -0.390 OA 
DOCKED: ATOM     35  H36 UNL     1      12.583  -1.911  -2.178 +0.00 +0.00    +0.210 HD 
DOCKED: ENDBRANCH  33  34
DOCKED: BRANCH  33  36
DOCKED: ATOM     36  C24 UNL     1      12.581  -5.122  -1.985 +0.00 +0.00    +0.045 C  
DOCKED: BRANCH  36  37
DOCKED: ATOM     37  C25 UNL     1      11.529  -5.827  -1.100 +0.00 +0.00    +0.074 C  
DOCKED: ATOM     38  C26 UNL     1      11.720  -7.346  -1.029 +0.00 +0.00    +0.017 C  
DOCKED: BRANCH  37  39
DOCKED: ATOM     39  C27 UNL     1      11.585  -5.234   0.306 +0.00 +0.00    +0.217 C  
DOCKED: ATOM     40  O6  UNL     1      11.805  -5.910   1.308 +0.00 -0.00    -0.276 OA 
DOCKED: ATOM     41  N4  UNL     1      11.423  -3.871   0.350 +0.00 -0.00    -0.304 N  
DOCKED: ATOM     42  H43 UNL     1      11.123  -3.358  -0.475 +0.00 +0.00    +0.149 HD 
DOCKED: BRANCH  41  43
DOCKED: ATOM     43  C28 UNL     1      11.500  -3.117   1.602 +0.00 +0.00    +0.161 C  
DOCKED: BRANCH  43  44
DOCKED: ATOM     44  C29 UNL     1      10.899  -1.716   1.342 +0.00 +0.00    +0.234 C  
DOCKED: ATOM     45  O7  UNL     1      10.731  -1.282   0.202 +0.00 -0.00    -0.274 OA 
DOCKED: ATOM     46  N5  UNL     1      10.596  -0.998   2.478 +0.00 -0.00    -0.310 N  
DOCKED: ATOM     47  H45 UNL     1      10.838  -1.381   3.384 +0.00 +0.00    +0.149 HD 
DOCKED: BRANCH  46  48
DOCKED: ATOM     48  C30 UNL     1      10.220   0.398   2.425 +0.00 +0.00    +0.139 C  
DOCKED: BRANCH  48  49
DOCKED: ATOM     49  C31 UNL     1      11.398   1.244   2.027 +0.00 -0.00    -0.027 A  
DOCKED: ATOM     50  C32 UNL     1      11.224   2.606   1.760 +0.00 +0.00    +0.025 A  
DOCKED: ATOM     51  C33 UNL     1      12.316   3.350   1.340 +0.00 +0.00    +0.111 A  
DOCKED: ATOM     52  N6  UNL     1      13.558   2.835   1.173 +0.00 -0.00    -0.263 NA 
DOCKED: ATOM     53  C34 UNL     1      13.704   1.516   1.424 +0.00 +0.00    +0.111 A  
DOCKED: ATOM     54  C35 UNL     1      12.670   0.690   1.846 +0.00 +0.00    +0.025 A  
DOCKED: ENDBRANCH  48  49
DOCKED: ENDBRANCH  46  48
DOCKED: ENDBRANCH  43  44
DOCKED: BRANCH  43  55
DOCKED: ATOM     55  C36 UNL     1      12.952  -3.087   2.144 +0.00 +0.00    +0.012 C  
DOCKED: ATOM     56  C37 UNL     1      13.929  -2.384   1.194 +0.00 +0.00    +0.009 C  
DOCKED: ATOM     57  C38 UNL     1      13.044  -2.494   3.552 +0.00 +0.00    +0.009 C  
DOCKED: ENDBRANCH  43  55
DOCKED: ENDBRANCH  41  43
DOCKED: ENDBRANCH  37  39
DOCKED: ENDBRANCH  36  37
DOCKED: ENDBRANCH  33  36
DOCKED: ENDBRANCH   1  33
DOCKED: TORSDOF 21
DOCKED: TER
DOCKED: ENDMDL
________________________________________________________________________________


    FINAL DOCKED STATE:
    ________________________


Run:   13 / 20
Time taken for this run:   1.486s

DOCKED: MODEL        13
DOCKED: USER    Run = 13
DOCKED: USER
DOCKED: USER    Estimated Free Energy of Binding    =  +6.26 kcal/mol  [=(1)+(2)+(3)-(4)]
DOCKED: USER
DOCKED: USER    (1) Final Intermolecular Energy     =  +0.00 kcal/mol
DOCKED: USER        vdW + Hbond + desolv Energy     =  +0.00 kcal/mol
DOCKED: USER        Electrostatic Energy            =  +0.00 kcal/mol
DOCKED: USER        Moving Ligand-Fixed Receptor    =  +0.00 kcal/mol
DOCKED: USER        Moving Ligand-Moving Receptor   =  +0.00 kcal/mol
DOCKED: USER    (2) Final Total Internal Energy     = -15.02 kcal/mol
DOCKED: USER    (3) Torsional Free Energy           =  +6.26 kcal/mol
DOCKED: USER    (4) Unbound System's Energy         = -15.02 kcal/mol
DOCKED: USER
DOCKED: USER
DOCKED: REMARK  Name = ligands/ligand_20.pdb
DOCKED: REMARK  30 active torsions:
DOCKED: REMARK  status: ('A' for Active; 'I' for Inactive)
DOCKED: REMARK    1  A    between atoms: C1_1  and  C2_2
DOCKED: REMARK    2  A    between atoms: C2_2  and  C3_3
DOCKED: REMARK    3  A    between atoms: C2_2  and  C4_4
DOCKED: REMARK    4  A    between atoms: C4_4  and  C5_5
DOCKED: REMARK    5  A    between atoms: C5_5  and  N1_6
DOCKED: REMARK    6  A    between atoms: C5_5  and  C11_14
DOCKED: REMARK    7  A    between atoms: C6_7  and  O2_9
DOCKED: REMARK    8  A    between atoms: O2_9  and  C7_10
DOCKED: REMARK    9  A    between atoms: C7_10  and  C8_11
DOCKED: REMARK   10  A    between atoms: C7_10  and  C9_12
DOCKED: REMARK   11  A    between atoms: C7_10  and  C10_13
DOCKED: REMARK   12  A    between atoms: N2_16  and  C12_17
DOCKED: REMARK   13  A    between atoms: C12_17  and  C13_18
DOCKED: REMARK   14  A    between atoms: C12_17  and  C14_19
DOCKED: REMARK   15  A    between atoms: N3_21  and  C15_22
DOCKED: REMARK   16  A    between atoms: C15_22  and  C16_23
DOCKED: REMARK   17  A    between atoms: C15_22  and  C23_30
DOCKED: REMARK   18  A    between atoms: C16_23  and  C17_24
DOCKED: REMARK   19  A    between atoms: C23_30  and  O5_31
DOCKED: REMARK   20  A    between atoms: C23_30  and  C24_32
DOCKED: REMARK   21  A    between atoms: C24_32  and  C25_33
DOCKED: REMARK   22  A    between atoms: C25_33  and  C26_34
DOCKED: REMARK   23  A    between atoms: C25_33  and  C27_35
DOCKED: REMARK   24  A    between atoms: N4_37  and  C28_38
DOCKED: REMARK   25  A    between atoms: C28_38  and  C29_39
DOCKED: REMARK   26  A    between atoms: C28_38  and  C36_49
DOCKED: REMARK   27  A    between atoms: N5_41  and  C30_42
DOCKED: REMARK   28  A    between atoms: C30_42  and  C31_43
DOCKED: REMARK   29  A    between atoms: C36_49  and  C37_50
DOCKED: REMARK   30  A    between atoms: C36_49  and  C38_51
DOCKED: REMARK                            x       y       z     vdW  Elec       q    Type
DOCKED: REMARK                         _______ _______ _______ _____ _____    ______ ____
DOCKED: USER                              x       y       z     vdW  Elec       q    Type
DOCKED: USER                           _______ _______ _______ _____ _____    ______ ____
DOCKED: ROOT
DOCKED: ATOM      1  C15 UNL     1      11.970  -1.628   1.201 +0.00 +0.00    +0.106 C  
DOCKED: ENDROOT
DOCKED: BRANCH   1   4
DOCKED: ATOM      2  C14 UNL     1      13.748  -3.381   1.018 +0.00 +0.00    +0.233 C  
DOCKED: ATOM      3  O4  UNL     1      14.199  -2.959  -0.043 +0.00 -0.00    -0.274 OA 
DOCKED: ATOM      4  N3  UNL     1      12.761  -2.738   1.722 +0.00 -0.00    -0.308 N  
DOCKED: ATOM      5  H26 UNL     1      12.476  -3.078   2.635 +0.00 +0.00    +0.149 HD 
DOCKED: BRANCH   2   6
DOCKED: ATOM      6  C12 UNL     1      14.271  -4.660   1.702 +0.00 +0.00    +0.156 C  
DOCKED: ATOM      7  C13 UNL     1      14.865  -5.596   0.655 +0.00 +0.00    +0.038 C  
DOCKED: BRANCH   6  10
DOCKED: ATOM      8  C11 UNL     1      13.463  -5.967   3.609 +0.00 +0.00    +0.234 C  
DOCKED: ATOM      9  O3  UNL     1      14.621  -6.079   4.020 +0.00 -0.00    -0.274 OA 
DOCKED: ATOM     10  N2  UNL     1      13.181  -5.314   2.421 +0.00 -0.00    -0.303 N  
DOCKED: ATOM     11  H21 UNL     1      12.304  -4.810   2.392 +0.00 +0.00    +0.149 HD 
DOCKED: BRANCH   8  12
DOCKED: ATOM     12  C5  UNL     1      12.261  -6.624   4.342 +0.00 +0.00    +0.162 C  
DOCKED: BRANCH  12  13
DOCKED: ATOM     13  N1  UNL     1      11.613  -5.574   5.128 +0.00 -0.00    -0.270 N  
DOCKED: ATOM     14  C6  UNL     1      10.953  -4.524   4.577 +0.00 +0.00    +0.401 C  
DOCKED: ATOM     15  O1  UNL     1      10.909  -4.269   3.382 +0.00 -0.00    -0.226 OA 
DOCKED: ATOM     16  H11 UNL     1      11.423  -5.739   6.111 +0.00 +0.00    +0.153 HD 
DOCKED: BRANCH  14  17
DOCKED: ATOM     17  O2  UNL     1      10.371  -3.811   5.568 +0.00 -0.00    -0.445 OA 
DOCKED: BRANCH  17  18
DOCKED: ATOM     18  C7  UNL     1       8.928  -3.689   5.631 +0.00 +0.00    +0.107 C  
DOCKED: ATOM     19  C8  UNL     1       8.246  -5.000   5.216 +0.00 +0.00    +0.055 C  
DOCKED: ATOM     20  C9  UNL     1       8.427  -2.490   4.812 +0.00 +0.00    +0.055 C  
DOCKED: ATOM     21  C10 UNL     1       8.628  -3.421   7.112 +0.00 +0.00    +0.055 C  
DOCKED: ENDBRANCH  17  18
DOCKED: ENDBRANCH  14  17
DOCKED: ENDBRANCH  12  13
DOCKED: BRANCH  12  22
DOCKED: ATOM     22  C4  UNL     1      11.207  -7.296   3.446 +0.00 +0.00    +0.035 C  
DOCKED: BRANCH  22  24
DOCKED: ATOM     23  C1  UNL     1       8.953  -8.484   3.264 +0.00 +0.00    +0.007 C  
DOCKED: ATOM     24  C2  UNL     1       9.902  -7.697   4.172 +0.00 -0.00    -0.015 C  
DOCKED: ATOM     25  C3  UNL     1      10.229  -8.543   5.410 +0.00 +0.00    +0.007 C  
DOCKED: ENDBRANCH  22  24
DOCKED: ENDBRANCH  12  22
DOCKED: ENDBRANCH   8  12
DOCKED: ENDBRANCH   6  10
DOCKED: ENDBRANCH   2   6
DOCKED: ENDBRANCH   1   4
DOCKED: BRANCH   1  26
DOCKED: ATOM     26  C16 UNL     1      10.912  -2.128   0.185 +0.00 +0.00    +0.060 C  
DOCKED: BRANCH  26  27
DOCKED: ATOM     27  C17 UNL     1      10.132  -3.366   0.562 +0.00 -0.00    -0.046 A  
DOCKED: ATOM     28  C18 UNL     1       8.915  -3.256   1.255 +0.00 +0.00    +0.004 A  
DOCKED: ATOM     29  C19 UNL     1       8.200  -4.399   1.614 +0.00 +0.00    +0.000 A  
DOCKED: ATOM     30  C20 UNL     1       8.682  -5.662   1.271 +0.00 +0.00    +0.000 A  
DOCKED: ATOM     31  C21 UNL     1       9.878  -5.781   0.566 +0.00 +0.00    +0.000 A  
DOCKED: ATOM     32  C22 UNL     1      10.605  -4.639   0.216 +0.00 +0.00    +0.004 A  
DOCKED: ENDBRANCH  26  27
DOCKED: ENDBRANCH   1  26
DOCKED: BRANCH   1  33
DOCKED: ATOM     33  C23 UNL     1      11.359  -0.801   2.360 +0.00 +0.00    +0.136 C  
DOCKED: BRANCH  33  34
DOCKED: ATOM     34  O5  UNL     1      10.915  -1.684   3.402 +0.00 -0.00    -0.390 OA 
DOCKED: ATOM     35  H36 UNL     1      11.613  -2.344   3.544 +0.00 +0.00    +0.210 HD 
DOCKED: ENDBRANCH  33  34
DOCKED: BRANCH  33  36
DOCKED: ATOM     36  C24 UNL     1      12.358   0.188   2.985 +0.00 +0.00    +0.045 C  
DOCKED: BRANCH  36  37
DOCKED: ATOM     37  C25 UNL     1      12.865  -0.155   4.404 +0.00 +0.00    +0.074 C  
DOCKED: ATOM     38  C26 UNL     1      11.745  -0.206   5.448 +0.00 +0.00    +0.017 C  
DOCKED: BRANCH  37  39
DOCKED: ATOM     39  C27 UNL     1      13.592  -1.497   4.360 +0.00 +0.00    +0.217 C  
DOCKED: ATOM     40  O6  UNL     1      13.039  -2.565   4.611 +0.00 -0.00    -0.276 OA 
DOCKED: ATOM     41  N4  UNL     1      14.905  -1.415   3.965 +0.00 -0.00    -0.304 N  
DOCKED: ATOM     42  H43 UNL     1      15.366  -0.513   3.884 +0.00 +0.00    +0.149 HD 
DOCKED: BRANCH  41  43
DOCKED: ATOM     43  C28 UNL     1      15.748  -2.601   3.812 +0.00 +0.00    +0.161 C  
DOCKED: BRANCH  43  44
DOCKED: ATOM     44  C29 UNL     1      16.014  -3.171   5.225 +0.00 +0.00    +0.234 C  
DOCKED: ATOM     45  O7  UNL     1      17.039  -2.902   5.852 +0.00 -0.00    -0.274 OA 
DOCKED: ATOM     46  N5  UNL     1      15.032  -4.011   5.703 +0.00 -0.00    -0.310 N  
DOCKED: ATOM     47  H45 UNL     1      14.255  -4.257   5.101 +0.00 +0.00    +0.149 HD 
DOCKED: BRANCH  46  48
DOCKED: ATOM     48  C30 UNL     1      15.208  -4.788   6.910 +0.00 +0.00    +0.139 C  
DOCKED: BRANCH  48  49
DOCKED: ATOM     49  C31 UNL     1      13.880  -5.288   7.410 +0.00 -0.00    -0.027 A  
DOCKED: ATOM     50  C32 UNL     1      13.605  -6.660   7.413 +0.00 +0.00    +0.025 A  
DOCKED: ATOM     51  C33 UNL     1      12.352  -7.089   7.824 +0.00 +0.00    +0.111 A  
DOCKED: ATOM     52  N6  UNL     1      11.367  -6.254   8.233 +0.00 -0.00    -0.263 NA 
DOCKED: ATOM     53  C34 UNL     1      11.648  -4.933   8.212 +0.00 +0.00    +0.111 A  
DOCKED: ATOM     54  C35 UNL     1      12.871  -4.409   7.815 +0.00 +0.00    +0.025 A  
DOCKED: ENDBRANCH  48  49
DOCKED: ENDBRANCH  46  48
DOCKED: ENDBRANCH  43  44
DOCKED: BRANCH  43  55
DOCKED: ATOM     55  C36 UNL     1      17.036  -2.268   3.017 +0.00 +0.00    +0.012 C  
DOCKED: ATOM     56  C37 UNL     1      17.784  -3.518   2.539 +0.00 +0.00    +0.009 C  
DOCKED: ATOM     57  C38 UNL     1      16.777  -1.312   1.849 +0.00 +0.00    +0.009 C  
DOCKED: ENDBRANCH  43  55
DOCKED: ENDBRANCH  41  43
DOCKED: ENDBRANCH  37  39
DOCKED: ENDBRANCH  36  37
DOCKED: ENDBRANCH  33  36
DOCKED: ENDBRANCH   1  33
DOCKED: TORSDOF 21
DOCKED: TER
DOCKED: ENDMDL
________________________________________________________________________________


    FINAL DOCKED STATE:
    ________________________


Run:   14 / 20
Time taken for this run:   1.486s

DOCKED: MODEL        14
DOCKED: USER    Run = 14
DOCKED: USER
DOCKED: USER    Estimated Free Energy of Binding    =  +6.26 kcal/mol  [=(1)+(2)+(3)-(4)]
DOCKED: USER
DOCKED: USER    (1) Final Intermolecular Energy     =  +0.00 kcal/mol
DOCKED: USER        vdW + Hbond + desolv Energy     =  +0.00 kcal/mol
DOCKED: USER        Electrostatic Energy            =  +0.00 kcal/mol
DOCKED: USER        Moving Ligand-Fixed Receptor    =  +0.00 kcal/mol
DOCKED: USER        Moving Ligand-Moving Receptor   =  +0.00 kcal/mol
DOCKED: USER    (2) Final Total Internal Energy     = -14.82 kcal/mol
DOCKED: USER    (3) Torsional Free Energy           =  +6.26 kcal/mol
DOCKED: USER    (4) Unbound System's Energy         = -14.82 kcal/mol
DOCKED: USER
DOCKED: USER
DOCKED: REMARK  Name = ligands/ligand_20.pdb
DOCKED: REMARK  30 active torsions:
DOCKED: REMARK  status: ('A' for Active; 'I' for Inactive)
DOCKED: REMARK    1  A    between atoms: C1_1  and  C2_2
DOCKED: REMARK    2  A    between atoms: C2_2  and  C3_3
DOCKED: REMARK    3  A    between atoms: C2_2  and  C4_4
DOCKED: REMARK    4  A    between atoms: C4_4  and  C5_5
DOCKED: REMARK    5  A    between atoms: C5_5  and  N1_6
DOCKED: REMARK    6  A    between atoms: C5_5  and  C11_14
DOCKED: REMARK    7  A    between atoms: C6_7  and  O2_9
DOCKED: REMARK    8  A    between atoms: O2_9  and  C7_10
DOCKED: REMARK    9  A    between atoms: C7_10  and  C8_11
DOCKED: REMARK   10  A    between atoms: C7_10  and  C9_12
DOCKED: REMARK   11  A    between atoms: C7_10  and  C10_13
DOCKED: REMARK   12  A    between atoms: N2_16  and  C12_17
DOCKED: REMARK   13  A    between atoms: C12_17  and  C13_18
DOCKED: REMARK   14  A    between atoms: C12_17  and  C14_19
DOCKED: REMARK   15  A    between atoms: N3_21  and  C15_22
DOCKED: REMARK   16  A    between atoms: C15_22  and  C16_23
DOCKED: REMARK   17  A    between atoms: C15_22  and  C23_30
DOCKED: REMARK   18  A    between atoms: C16_23  and  C17_24
DOCKED: REMARK   19  A    between atoms: C23_30  and  O5_31
DOCKED: REMARK   20  A    between atoms: C23_30  and  C24_32
DOCKED: REMARK   21  A    between atoms: C24_32  and  C25_33
DOCKED: REMARK   22  A    between atoms: C25_33  and  C26_34
DOCKED: REMARK   23  A    between atoms: C25_33  and  C27_35
DOCKED: REMARK   24  A    between atoms: N4_37  and  C28_38
DOCKED: REMARK   25  A    between atoms: C28_38  and  C29_39
DOCKED: REMARK   26  A    between atoms: C28_38  and  C36_49
DOCKED: REMARK   27  A    between atoms: N5_41  and  C30_42
DOCKED: REMARK   28  A    between atoms: C30_42  and  C31_43
DOCKED: REMARK   29  A    between atoms: C36_49  and  C37_50
DOCKED: REMARK   30  A    between atoms: C36_49  and  C38_51
DOCKED: REMARK                            x       y       z     vdW  Elec       q    Type
DOCKED: REMARK                         _______ _______ _______ _____ _____    ______ ____
DOCKED: USER                              x       y       z     vdW  Elec       q    Type
DOCKED: USER                           _______ _______ _______ _____ _____    ______ ____
DOCKED: ROOT
DOCKED: ATOM      1  C15 UNL     1      11.096  -6.643  -0.453 +0.00 +0.00    +0.106 C  
DOCKED: ENDROOT
DOCKED: BRANCH   1   4
DOCKED: ATOM      2  C14 UNL     1       9.969  -5.304  -2.243 +0.00 +0.00    +0.233 C  
DOCKED: ATOM      3  O4  UNL     1      10.428  -5.965  -3.170 +0.00 -0.00    -0.274 OA 
DOCKED: ATOM      4  N3  UNL     1      10.155  -5.632  -0.924 +0.00 -0.00    -0.308 N  
DOCKED: ATOM      5  H26 UNL     1       9.689  -5.105  -0.192 +0.00 +0.00    +0.149 HD 
DOCKED: BRANCH   2   6
DOCKED: ATOM      6  C12 UNL     1       9.092  -4.053  -2.459 +0.00 +0.00    +0.156 C  
DOCKED: ATOM      7  C13 UNL     1       9.618  -3.256  -3.647 +0.00 +0.00    +0.038 C  
DOCKED: BRANCH   6  10
DOCKED: ATOM      8  C11 UNL     1       8.150  -2.232  -1.119 +0.00 +0.00    +0.234 C  
DOCKED: ATOM      9  O3  UNL     1       7.373  -1.962  -2.038 +0.00 -0.00    -0.274 OA 
DOCKED: ATOM     10  N2  UNL     1       9.094  -3.237  -1.248 +0.00 -0.00    -0.303 N  
DOCKED: ATOM     11  H21 UNL     1       9.311  -3.750  -0.402 +0.00 +0.00    +0.149 HD 
DOCKED: BRANCH   8  12
DOCKED: ATOM     12  C5  UNL     1       8.185  -1.413   0.200 +0.00 +0.00    +0.162 C  
DOCKED: BRANCH  12  13
DOCKED: ATOM     13  N1  UNL     1       8.101  -2.370   1.302 +0.00 -0.00    -0.270 N  
DOCKED: ATOM     14  C6  UNL     1       9.105  -3.220   1.636 +0.00 +0.00    +0.401 C  
DOCKED: ATOM     15  O1  UNL     1      10.142  -3.365   1.005 +0.00 -0.00    -0.226 OA 
DOCKED: ATOM     16  H11 UNL     1       7.382  -2.250   2.007 +0.00 +0.00    +0.153 HD 
DOCKED: BRANCH  14  17
DOCKED: ATOM     17  O2  UNL     1       8.757  -3.878   2.765 +0.00 -0.00    -0.445 OA 
DOCKED: BRANCH  17  18
DOCKED: ATOM     18  C7  UNL     1       9.377  -3.537   4.031 +0.00 +0.00    +0.107 C  
DOCKED: ATOM     19  C8  UNL     1       8.826  -2.212   4.573 +0.00 +0.00    +0.055 C  
DOCKED: ATOM     20  C9  UNL     1      10.909  -3.529   3.924 +0.00 +0.00    +0.055 C  
DOCKED: ATOM     21  C10 UNL     1       8.965  -4.672   4.979 +0.00 +0.00    +0.055 C  
DOCKED: ENDBRANCH  17  18
DOCKED: ENDBRANCH  14  17
DOCKED: ENDBRANCH  12  13
DOCKED: BRANCH  12  22
DOCKED: ATOM     22  C4  UNL     1       9.419  -0.520   0.411 +0.00 +0.00    +0.035 C  
DOCKED: BRANCH  22  24
DOCKED: ATOM     23  C1  UNL     1      11.066   0.524   2.061 +0.00 +0.00    +0.007 C  
DOCKED: ATOM     24  C2  UNL     1       9.694  -0.132   1.882 +0.00 -0.00    -0.015 C  
DOCKED: ATOM     25  C3  UNL     1       8.608   0.831   2.382 +0.00 +0.00    +0.007 C  
DOCKED: ENDBRANCH  22  24
DOCKED: ENDBRANCH  12  22
DOCKED: ENDBRANCH   8  12
DOCKED: ENDBRANCH   6  10
DOCKED: ENDBRANCH   2   6
DOCKED: ENDBRANCH   1   4
DOCKED: BRANCH   1  26
DOCKED: ATOM     26  C16 UNL     1      12.560  -6.168  -0.638 +0.00 +0.00    +0.060 C  
DOCKED: BRANCH  26  27
DOCKED: ATOM     27  C17 UNL     1      12.858  -4.723  -0.312 +0.00 -0.00    -0.046 A  
DOCKED: ATOM     28  C18 UNL     1      12.871  -3.753  -1.327 +0.00 +0.00    +0.004 A  
DOCKED: ATOM     29  C19 UNL     1      13.158  -2.421  -1.030 +0.00 +0.00    +0.000 A  
DOCKED: ATOM     30  C20 UNL     1      13.420  -2.039   0.286 +0.00 +0.00    +0.000 A  
DOCKED: ATOM     31  C21 UNL     1      13.391  -2.990   1.304 +0.00 +0.00    +0.000 A  
DOCKED: ATOM     32  C22 UNL     1      13.116  -4.329   1.008 +0.00 +0.00    +0.004 A  
DOCKED: ENDBRANCH  26  27
DOCKED: ENDBRANCH   1  26
DOCKED: BRANCH   1  33
DOCKED: ATOM     33  C23 UNL     1      10.770  -7.058   1.004 +0.00 +0.00    +0.136 C  
DOCKED: BRANCH  33  34
DOCKED: ATOM     34  O5  UNL     1       9.635  -6.313   1.475 +0.00 -0.00    -0.390 OA 
DOCKED: ATOM     35  H36 UNL     1       9.935  -5.408   1.661 +0.00 +0.00    +0.210 HD 
DOCKED: ENDBRANCH  33  34
DOCKED: BRANCH  33  36
DOCKED: ATOM     36  C24 UNL     1      10.433  -8.552   1.142 +0.00 +0.00    +0.045 C  
DOCKED: BRANCH  36  37
DOCKED: ATOM     37  C25 UNL     1       9.793  -9.227  -0.093 +0.00 +0.00    +0.074 C  
DOCKED: ATOM     38  C26 UNL     1      10.068 -10.732  -0.167 +0.00 +0.00    +0.017 C  
DOCKED: BRANCH  37  39
DOCKED: ATOM     39  C27 UNL     1       8.287  -8.978  -0.069 +0.00 +0.00    +0.217 C  
DOCKED: ATOM     40  O6  UNL     1       7.459  -9.886  -0.080 +0.00 -0.00    -0.276 OA 
DOCKED: ATOM     41  N4  UNL     1       7.936  -7.653   0.017 +0.00 -0.00    -0.304 N  
DOCKED: ATOM     42  H43 UNL     1       8.633  -6.923  -0.099 +0.00 +0.00    +0.149 HD 
DOCKED: BRANCH  41  43
DOCKED: ATOM     43  C28 UNL     1       6.540  -7.221   0.105 +0.00 +0.00    +0.161 C  
DOCKED: BRANCH  43  44
DOCKED: ATOM     44  C29 UNL     1       6.499  -5.706  -0.201 +0.00 +0.00    +0.234 C  
DOCKED: ATOM     45  O7  UNL     1       7.517  -5.013  -0.195 +0.00 -0.00    -0.274 OA 
DOCKED: ATOM     46  N5  UNL     1       5.242  -5.202  -0.455 +0.00 -0.00    -0.310 N  
DOCKED: ATOM     47  H45 UNL     1       4.437  -5.810  -0.362 +0.00 +0.00    +0.149 HD 
DOCKED: BRANCH  46  48
DOCKED: ATOM     48  C30 UNL     1       4.993  -3.781  -0.561 +0.00 +0.00    +0.139 C  
DOCKED: BRANCH  48  49
DOCKED: ATOM     49  C31 UNL     1       5.165  -3.118   0.779 +0.00 -0.00    -0.027 A  
DOCKED: ATOM     50  C32 UNL     1       5.121  -1.724   0.881 +0.00 +0.00    +0.025 A  
DOCKED: ATOM     51  C33 UNL     1       5.340  -1.137   2.118 +0.00 +0.00    +0.111 A  
DOCKED: ATOM     52  N6  UNL     1       5.593  -1.837   3.249 +0.00 -0.00    -0.263 NA 
DOCKED: ATOM     53  C34 UNL     1       5.644  -3.182   3.128 +0.00 +0.00    +0.111 A  
DOCKED: ATOM     54  C35 UNL     1       5.440  -3.859   1.933 +0.00 +0.00    +0.025 A  
DOCKED: ENDBRANCH  48  49
DOCKED: ENDBRANCH  46  48
DOCKED: ENDBRANCH  43  44
DOCKED: BRANCH  43  55
DOCKED: ATOM     55  C36 UNL     1       5.927  -7.600   1.478 +0.00 +0.00    +0.012 C  
DOCKED: ATOM     56  C37 UNL     1       6.640  -6.926   2.656 +0.00 +0.00    +0.009 C  
DOCKED: ATOM     57  C38 UNL     1       4.418  -7.347   1.541 +0.00 +0.00    +0.009 C  
DOCKED: ENDBRANCH  43  55
DOCKED: ENDBRANCH  41  43
DOCKED: ENDBRANCH  37  39
DOCKED: ENDBRANCH  36  37
DOCKED: ENDBRANCH  33  36
DOCKED: ENDBRANCH   1  33
DOCKED: TORSDOF 21
DOCKED: TER
DOCKED: ENDMDL
________________________________________________________________________________


    FINAL DOCKED STATE:
    ________________________


Run:   15 / 20
Time taken for this run:   1.486s

DOCKED: MODEL        15
DOCKED: USER    Run = 15
DOCKED: USER
DOCKED: USER    Estimated Free Energy of Binding    =  +6.26 kcal/mol  [=(1)+(2)+(3)-(4)]
DOCKED: USER
DOCKED: USER    (1) Final Intermolecular Energy     =  +0.00 kcal/mol
DOCKED: USER        vdW + Hbond + desolv Energy     =  +0.00 kcal/mol
DOCKED: USER        Electrostatic Energy            =  +0.00 kcal/mol
DOCKED: USER        Moving Ligand-Fixed Receptor    =  +0.00 kcal/mol
DOCKED: USER        Moving Ligand-Moving Receptor   =  +0.00 kcal/mol
DOCKED: USER    (2) Final Total Internal Energy     = -15.03 kcal/mol
DOCKED: USER    (3) Torsional Free Energy           =  +6.26 kcal/mol
DOCKED: USER    (4) Unbound System's Energy         = -15.03 kcal/mol
DOCKED: USER
DOCKED: USER
DOCKED: REMARK  Name = ligands/ligand_20.pdb
DOCKED: REMARK  30 active torsions:
DOCKED: REMARK  status: ('A' for Active; 'I' for Inactive)
DOCKED: REMARK    1  A    between atoms: C1_1  and  C2_2
DOCKED: REMARK    2  A    between atoms: C2_2  and  C3_3
DOCKED: REMARK    3  A    between atoms: C2_2  and  C4_4
DOCKED: REMARK    4  A    between atoms: C4_4  and  C5_5
DOCKED: REMARK    5  A    between atoms: C5_5  and  N1_6
DOCKED: REMARK    6  A    between atoms: C5_5  and  C11_14
DOCKED: REMARK    7  A    between atoms: C6_7  and  O2_9
DOCKED: REMARK    8  A    between atoms: O2_9  and  C7_10
DOCKED: REMARK    9  A    between atoms: C7_10  and  C8_11
DOCKED: REMARK   10  A    between atoms: C7_10  and  C9_12
DOCKED: REMARK   11  A    between atoms: C7_10  and  C10_13
DOCKED: REMARK   12  A    between atoms: N2_16  and  C12_17
DOCKED: REMARK   13  A    between atoms: C12_17  and  C13_18
DOCKED: REMARK   14  A    between atoms: C12_17  and  C14_19
DOCKED: REMARK   15  A    between atoms: N3_21  and  C15_22
DOCKED: REMARK   16  A    between atoms: C15_22  and  C16_23
DOCKED: REMARK   17  A    between atoms: C15_22  and  C23_30
DOCKED: REMARK   18  A    between atoms: C16_23  and  C17_24
DOCKED: REMARK   19  A    between atoms: C23_30  and  O5_31
DOCKED: REMARK   20  A    between atoms: C23_30  and  C24_32
DOCKED: REMARK   21  A    between atoms: C24_32  and  C25_33
DOCKED: REMARK   22  A    between atoms: C25_33  and  C26_34
DOCKED: REMARK   23  A    between atoms: C25_33  and  C27_35
DOCKED: REMARK   24  A    between atoms: N4_37  and  C28_38
DOCKED: REMARK   25  A    between atoms: C28_38  and  C29_39
DOCKED: REMARK   26  A    between atoms: C28_38  and  C36_49
DOCKED: REMARK   27  A    between atoms: N5_41  and  C30_42
DOCKED: REMARK   28  A    between atoms: C30_42  and  C31_43
DOCKED: REMARK   29  A    between atoms: C36_49  and  C37_50
DOCKED: REMARK   30  A    between atoms: C36_49  and  C38_51
DOCKED: REMARK                            x       y       z     vdW  Elec       q    Type
DOCKED: REMARK                         _______ _______ _______ _____ _____    ______ ____
DOCKED: USER                              x       y       z     vdW  Elec       q    Type
DOCKED: USER                           _______ _______ _______ _____ _____    ______ ____
DOCKED: ROOT
DOCKED: ATOM      1  C15 UNL     1       5.755  -6.034   2.519 +0.00 +0.00    +0.106 C  
DOCKED: ENDROOT
DOCKED: BRANCH   1   4
DOCKED: ATOM      2  C14 UNL     1       8.144  -6.388   1.862 +0.00 +0.00    +0.233 C  
DOCKED: ATOM      3  O4  UNL     1       8.479  -5.224   2.063 +0.00 -0.00    -0.274 OA 
DOCKED: ATOM      4  N3  UNL     1       6.895  -6.871   2.159 +0.00 -0.00    -0.308 N  
DOCKED: ATOM      5  H26 UNL     1       6.687  -7.859   2.054 +0.00 +0.00    +0.149 HD 
DOCKED: BRANCH   2   6
DOCKED: ATOM      6  C12 UNL     1       9.107  -7.452   1.295 +0.00 +0.00    +0.156 C  
DOCKED: ATOM      7  C13 UNL     1      10.109  -6.789   0.356 +0.00 +0.00    +0.038 C  
DOCKED: BRANCH   6  10
DOCKED: ATOM      8  C11 UNL     1       8.793  -9.789   0.633 +0.00 +0.00    +0.234 C  
DOCKED: ATOM      9  O3  UNL     1       9.862 -10.083   1.174 +0.00 -0.00    -0.274 OA 
DOCKED: ATOM     10  N2  UNL     1       8.343  -8.480   0.592 +0.00 -0.00    -0.303 N  
DOCKED: ATOM     11  H21 UNL     1       7.340  -8.356   0.639 +0.00 +0.00    +0.149 HD 
DOCKED: BRANCH   8  12
DOCKED: ATOM     12  C5  UNL     1       7.928 -10.843  -0.111 +0.00 +0.00    +0.162 C  
DOCKED: BRANCH  12  13
DOCKED: ATOM     13  N1  UNL     1       6.806 -11.174   0.767 +0.00 -0.00    -0.270 N  
DOCKED: ATOM     14  C6  UNL     1       5.808 -10.305   1.070 +0.00 +0.00    +0.401 C  
DOCKED: ATOM     15  O1  UNL     1       5.778  -9.128   0.742 +0.00 -0.00    -0.226 OA 
DOCKED: ATOM     16  H11 UNL     1       6.611 -12.148   0.973 +0.00 +0.00    +0.153 HD 
DOCKED: BRANCH  14  17
DOCKED: ATOM     17  O2  UNL     1       4.874 -10.957   1.798 +0.00 -0.00    -0.445 OA 
DOCKED: BRANCH  17  18
DOCKED: ATOM     18  C7  UNL     1       3.535 -11.142   1.273 +0.00 +0.00    +0.107 C  
DOCKED: ATOM     19  C8  UNL     1       3.577 -11.695  -0.157 +0.00 +0.00    +0.055 C  
DOCKED: ATOM     20  C9  UNL     1       2.707  -9.851   1.373 +0.00 +0.00    +0.055 C  
DOCKED: ATOM     21  C10 UNL     1       2.902 -12.193   2.195 +0.00 +0.00    +0.055 C  
DOCKED: ENDBRANCH  17  18
DOCKED: ENDBRANCH  14  17
DOCKED: ENDBRANCH  12  13
DOCKED: BRANCH  12  22
DOCKED: ATOM     22  C4  UNL     1       7.377 -10.420  -1.483 +0.00 +0.00    +0.035 C  
DOCKED: BRANCH  22  24
DOCKED: ATOM     23  C1  UNL     1       5.907 -10.983  -3.495 +0.00 +0.00    +0.007 C  
DOCKED: ATOM     24  C2  UNL     1       6.288 -11.355  -2.059 +0.00 -0.00    -0.015 C  
DOCKED: ATOM     25  C3  UNL     1       6.775 -12.809  -2.029 +0.00 +0.00    +0.007 C  
DOCKED: ENDBRANCH  22  24
DOCKED: ENDBRANCH  12  22
DOCKED: ENDBRANCH   8  12
DOCKED: ENDBRANCH   6  10
DOCKED: ENDBRANCH   2   6
DOCKED: ENDBRANCH   1   4
DOCKED: BRANCH   1  26
DOCKED: ATOM     26  C16 UNL     1       5.120  -5.390   1.260 +0.00 +0.00    +0.060 C  
DOCKED: BRANCH  26  27
DOCKED: ATOM     27  C17 UNL     1       5.010  -6.258   0.027 +0.00 -0.00    -0.046 A  
DOCKED: ATOM     28  C18 UNL     1       3.827  -6.967  -0.240 +0.00 +0.00    +0.004 A  
DOCKED: ATOM     29  C19 UNL     1       3.729  -7.778  -1.370 +0.00 +0.00    +0.000 A  
DOCKED: ATOM     30  C20 UNL     1       4.802  -7.878  -2.255 +0.00 +0.00    +0.000 A  
DOCKED: ATOM     31  C21 UNL     1       5.973  -7.163  -2.009 +0.00 +0.00    +0.000 A  
DOCKED: ATOM     32  C22 UNL     1       6.081  -6.360  -0.871 +0.00 +0.00    +0.004 A  
DOCKED: ENDBRANCH  26  27
DOCKED: ENDBRANCH   1  26
DOCKED: BRANCH   1  33
DOCKED: ATOM     33  C23 UNL     1       4.738  -6.832   3.373 +0.00 +0.00    +0.136 C  
DOCKED: BRANCH  33  34
DOCKED: ATOM     34  O5  UNL     1       4.659  -8.183   2.893 +0.00 -0.00    -0.390 OA 
DOCKED: ATOM     35  H36 UNL     1       5.567  -8.500   2.755 +0.00 +0.00    +0.210 HD 
DOCKED: ENDBRANCH  33  34
DOCKED: BRANCH  33  36
DOCKED: ATOM     36  C24 UNL     1       5.120  -6.891   4.862 +0.00 +0.00    +0.045 C  
DOCKED: BRANCH  36  37
DOCKED: ATOM     37  C25 UNL     1       5.642  -8.250   5.382 +0.00 +0.00    +0.074 C  
DOCKED: ATOM     38  C26 UNL     1       4.608  -9.375   5.272 +0.00 +0.00    +0.017 C  
DOCKED: BRANCH  37  39
DOCKED: ATOM     39  C27 UNL     1       6.901  -8.628   4.607 +0.00 +0.00    +0.217 C  
DOCKED: ATOM     40  O6  UNL     1       6.877  -9.318   3.590 +0.00 -0.00    -0.276 OA 
DOCKED: ATOM     41  N4  UNL     1       8.059  -8.089   5.112 +0.00 -0.00    -0.304 N  
DOCKED: ATOM     42  H43 UNL     1       8.063  -7.628   6.018 +0.00 +0.00    +0.149 HD 
DOCKED: BRANCH  41  43
DOCKED: ATOM     43  C28 UNL     1       9.359  -8.296   4.472 +0.00 +0.00    +0.161 C  
DOCKED: BRANCH  43  44
DOCKED: ATOM     44  C29 UNL     1       9.740  -9.783   4.658 +0.00 +0.00    +0.234 C  
DOCKED: ATOM     45  O7  UNL     1      10.492 -10.154   5.559 +0.00 -0.00    -0.274 OA 
DOCKED: ATOM     46  N5  UNL     1       9.191 -10.640   3.728 +0.00 -0.00    -0.310 N  
DOCKED: ATOM     47  H45 UNL     1       8.648 -10.258   2.963 +0.00 +0.00    +0.149 HD 
DOCKED: BRANCH  46  48
DOCKED: ATOM     48  C30 UNL     1       9.597 -12.024   3.628 +0.00 +0.00    +0.139 C  
DOCKED: BRANCH  48  49
DOCKED: ATOM     49  C31 UNL     1       8.535 -12.833   2.934 +0.00 -0.00    -0.027 A  
DOCKED: ATOM     50  C32 UNL     1       8.829 -13.495   1.738 +0.00 +0.00    +0.025 A  
DOCKED: ATOM     51  C33 UNL     1       7.817 -14.186   1.089 +0.00 +0.00    +0.111 A  
DOCKED: ATOM     52  N6  UNL     1       6.545 -14.264   1.549 +0.00 -0.00    -0.263 NA 
DOCKED: ATOM     53  C34 UNL     1       6.277 -13.608   2.700 +0.00 +0.00    +0.111 A  
DOCKED: ATOM     54  C35 UNL     1       7.224 -12.890   3.418 +0.00 +0.00    +0.025 A  
DOCKED: ENDBRANCH  48  49
DOCKED: ENDBRANCH  46  48
DOCKED: ENDBRANCH  43  44
DOCKED: BRANCH  43  55
DOCKED: ATOM     55  C36 UNL     1      10.414  -7.304   5.026 +0.00 +0.00    +0.012 C  
DOCKED: ATOM     56  C37 UNL     1      11.698  -7.270   4.189 +0.00 +0.00    +0.009 C  
DOCKED: ATOM     57  C38 UNL     1       9.853  -5.892   5.216 +0.00 +0.00    +0.009 C  
DOCKED: ENDBRANCH  43  55
DOCKED: ENDBRANCH  41  43
DOCKED: ENDBRANCH  37  39
DOCKED: ENDBRANCH  36  37
DOCKED: ENDBRANCH  33  36
DOCKED: ENDBRANCH   1  33
DOCKED: TORSDOF 21
DOCKED: TER
DOCKED: ENDMDL
________________________________________________________________________________


    FINAL DOCKED STATE:
    ________________________


Run:   16 / 20
Time taken for this run:   1.486s

DOCKED: MODEL        16
DOCKED: USER    Run = 16
DOCKED: USER
DOCKED: USER    Estimated Free Energy of Binding    =  +6.26 kcal/mol  [=(1)+(2)+(3)-(4)]
DOCKED: USER
DOCKED: USER    (1) Final Intermolecular Energy     =  +0.00 kcal/mol
DOCKED: USER        vdW + Hbond + desolv Energy     =  +0.00 kcal/mol
DOCKED: USER        Electrostatic Energy            =  +0.00 kcal/mol
DOCKED: USER        Moving Ligand-Fixed Receptor    =  +0.00 kcal/mol
DOCKED: USER        Moving Ligand-Moving Receptor   =  +0.00 kcal/mol
DOCKED: USER    (2) Final Total Internal Energy     = -14.77 kcal/mol
DOCKED: USER    (3) Torsional Free Energy           =  +6.26 kcal/mol
DOCKED: USER    (4) Unbound System's Energy         = -14.77 kcal/mol
DOCKED: USER
DOCKED: USER
DOCKED: REMARK  Name = ligands/ligand_20.pdb
DOCKED: REMARK  30 active torsions:
DOCKED: REMARK  status: ('A' for Active; 'I' for Inactive)
DOCKED: REMARK    1  A    between atoms: C1_1  and  C2_2
DOCKED: REMARK    2  A    between atoms: C2_2  and  C3_3
DOCKED: REMARK    3  A    between atoms: C2_2  and  C4_4
DOCKED: REMARK    4  A    between atoms: C4_4  and  C5_5
DOCKED: REMARK    5  A    between atoms: C5_5  and  N1_6
DOCKED: REMARK    6  A    between atoms: C5_5  and  C11_14
DOCKED: REMARK    7  A    between atoms: C6_7  and  O2_9
DOCKED: REMARK    8  A    between atoms: O2_9  and  C7_10
DOCKED: REMARK    9  A    between atoms: C7_10  and  C8_11
DOCKED: REMARK   10  A    between atoms: C7_10  and  C9_12
DOCKED: REMARK   11  A    between atoms: C7_10  and  C10_13
DOCKED: REMARK   12  A    between atoms: N2_16  and  C12_17
DOCKED: REMARK   13  A    between atoms: C12_17  and  C13_18
DOCKED: REMARK   14  A    between atoms: C12_17  and  C14_19
DOCKED: REMARK   15  A    between atoms: N3_21  and  C15_22
DOCKED: REMARK   16  A    between atoms: C15_22  and  C16_23
DOCKED: REMARK   17  A    between atoms: C15_22  and  C23_30
DOCKED: REMARK   18  A    between atoms: C16_23  and  C17_24
DOCKED: REMARK   19  A    between atoms: C23_30  and  O5_31
DOCKED: REMARK   20  A    between atoms: C23_30  and  C24_32
DOCKED: REMARK   21  A    between atoms: C24_32  and  C25_33
DOCKED: REMARK   22  A    between atoms: C25_33  and  C26_34
DOCKED: REMARK   23  A    between atoms: C25_33  and  C27_35
DOCKED: REMARK   24  A    between atoms: N4_37  and  C28_38
DOCKED: REMARK   25  A    between atoms: C28_38  and  C29_39
DOCKED: REMARK   26  A    between atoms: C28_38  and  C36_49
DOCKED: REMARK   27  A    between atoms: N5_41  and  C30_42
DOCKED: REMARK   28  A    between atoms: C30_42  and  C31_43
DOCKED: REMARK   29  A    between atoms: C36_49  and  C37_50
DOCKED: REMARK   30  A    between atoms: C36_49  and  C38_51
DOCKED: REMARK                            x       y       z     vdW  Elec       q    Type
DOCKED: REMARK                         _______ _______ _______ _____ _____    ______ ____
DOCKED: USER                              x       y       z     vdW  Elec       q    Type
DOCKED: USER                           _______ _______ _______ _____ _____    ______ ____
DOCKED: ROOT
DOCKED: ATOM      1  C15 UNL     1      10.357  -2.136  -1.078 +0.00 +0.00    +0.106 C  
DOCKED: ENDROOT
DOCKED: BRANCH   1   4
DOCKED: ATOM      2  C14 UNL     1       9.118  -0.889  -2.860 +0.00 +0.00    +0.233 C  
DOCKED: ATOM      3  O4  UNL     1      10.130  -0.498  -3.433 +0.00 -0.00    -0.274 OA 
DOCKED: ATOM      4  N3  UNL     1       9.146  -1.759  -1.798 +0.00 -0.00    -0.308 N  
DOCKED: ATOM      5  H26 UNL     1       8.282  -2.120  -1.407 +0.00 +0.00    +0.149 HD 
DOCKED: BRANCH   2   6
DOCKED: ATOM      6  C12 UNL     1       7.695  -0.481  -3.296 +0.00 +0.00    +0.156 C  
DOCKED: ATOM      7  C13 UNL     1       7.548   1.034  -3.214 +0.00 +0.00    +0.038 C  
DOCKED: BRANCH   6  10
DOCKED: ATOM      8  C11 UNL     1       5.602  -1.724  -3.034 +0.00 +0.00    +0.234 C  
DOCKED: ATOM      9  O3  UNL     1       5.389  -1.616  -4.244 +0.00 -0.00    -0.274 OA 
DOCKED: ATOM     10  N2  UNL     1       6.711  -1.143  -2.444 +0.00 -0.00    -0.303 N  
DOCKED: ATOM     11  H21 UNL     1       7.111  -1.649  -1.663 +0.00 +0.00    +0.149 HD 
DOCKED: BRANCH   8  12
DOCKED: ATOM     12  C5  UNL     1       4.602  -2.435  -2.082 +0.00 +0.00    +0.162 C  
DOCKED: BRANCH  12  13
DOCKED: ATOM     13  N1  UNL     1       4.602  -1.687  -0.824 +0.00 -0.00    -0.270 N  
DOCKED: ATOM     14  C6  UNL     1       5.631  -1.709   0.061 +0.00 +0.00    +0.401 C  
DOCKED: ATOM     15  O1  UNL     1       6.619  -2.423  -0.026 +0.00 -0.00    -0.226 OA 
DOCKED: ATOM     16  H11 UNL     1       3.937  -0.932  -0.698 +0.00 +0.00    +0.153 HD 
DOCKED: BRANCH  14  17
DOCKED: ATOM     17  O2  UNL     1       5.369  -0.824   1.049 +0.00 -0.00    -0.445 OA 
DOCKED: BRANCH  17  18
DOCKED: ATOM     18  C7  UNL     1       4.492  -1.189   2.145 +0.00 +0.00    +0.107 C  
DOCKED: ATOM     19  C8  UNL     1       5.157  -0.910   3.499 +0.00 +0.00    +0.055 C  
DOCKED: ATOM     20  C9  UNL     1       4.013  -2.645   2.023 +0.00 +0.00    +0.055 C  
DOCKED: ATOM     21  C10 UNL     1       3.275  -0.267   1.988 +0.00 +0.00    +0.055 C  
DOCKED: ENDBRANCH  17  18
DOCKED: ENDBRANCH  14  17
DOCKED: ENDBRANCH  12  13
DOCKED: BRANCH  12  22
DOCKED: ATOM     22  C4  UNL     1       3.154  -2.555  -2.587 +0.00 +0.00    +0.035 C  
DOCKED: BRANCH  22  24
DOCKED: ATOM     23  C1  UNL     1       3.005  -5.010  -3.276 +0.00 +0.00    +0.007 C  
DOCKED: ATOM     24  C2  UNL     1       2.489  -3.927  -2.325 +0.00 -0.00    -0.015 C  
DOCKED: ATOM     25  C3  UNL     1       2.745  -4.366  -0.877 +0.00 +0.00    +0.007 C  
DOCKED: ENDBRANCH  22  24
DOCKED: ENDBRANCH  12  22
DOCKED: ENDBRANCH   8  12
DOCKED: ENDBRANCH   6  10
DOCKED: ENDBRANCH   2   6
DOCKED: ENDBRANCH   1   4
DOCKED: BRANCH   1  26
DOCKED: ATOM     26  C16 UNL     1      10.808  -1.005  -0.119 +0.00 +0.00    +0.060 C  
DOCKED: BRANCH  26  27
DOCKED: ATOM     27  C17 UNL     1       9.733  -0.333   0.703 +0.00 -0.00    -0.046 A  
DOCKED: ATOM     28  C18 UNL     1       8.897   0.636   0.125 +0.00 +0.00    +0.004 A  
DOCKED: ATOM     29  C19 UNL     1       7.912   1.266   0.885 +0.00 +0.00    +0.000 A  
DOCKED: ATOM     30  C20 UNL     1       7.739   0.924   2.226 +0.00 +0.00    +0.000 A  
DOCKED: ATOM     31  C21 UNL     1       8.550  -0.050   2.805 +0.00 +0.00    +0.000 A  
DOCKED: ATOM     32  C22 UNL     1       9.547  -0.674   2.050 +0.00 +0.00    +0.004 A  
DOCKED: ENDBRANCH  26  27
DOCKED: ENDBRANCH   1  26
DOCKED: BRANCH   1  33
DOCKED: ATOM     33  C23 UNL     1      10.166  -3.499  -0.364 +0.00 +0.00    +0.136 C  
DOCKED: BRANCH  33  34
DOCKED: ATOM     34  O5  UNL     1       8.820  -3.603   0.125 +0.00 -0.00    -0.390 OA 
DOCKED: ATOM     35  H36 UNL     1       8.229  -3.260  -0.566 +0.00 +0.00    +0.210 HD 
DOCKED: ENDBRANCH  33  34
DOCKED: BRANCH  33  36
DOCKED: ATOM     36  C24 UNL     1      10.419  -4.701  -1.289 +0.00 +0.00    +0.045 C  
DOCKED: BRANCH  36  37
DOCKED: ATOM     37  C25 UNL     1       9.688  -4.683  -2.651 +0.00 +0.00    +0.074 C  
DOCKED: ATOM     38  C26 UNL     1      10.082  -5.851  -3.562 +0.00 +0.00    +0.017 C  
DOCKED: BRANCH  37  39
DOCKED: ATOM     39  C27 UNL     1       8.181  -4.706  -2.406 +0.00 +0.00    +0.217 C  
DOCKED: ATOM     40  O6  UNL     1       7.508  -3.685  -2.291 +0.00 -0.00    -0.276 OA 
DOCKED: ATOM     41  N4  UNL     1       7.633  -5.965  -2.377 +0.00 -0.00    -0.304 N  
DOCKED: ATOM     42  H43 UNL     1       8.228  -6.788  -2.352 +0.00 +0.00    +0.149 HD 
DOCKED: BRANCH  41  43
DOCKED: ATOM     43  C28 UNL     1       6.196  -6.185  -2.207 +0.00 +0.00    +0.161 C  
DOCKED: BRANCH  43  44
DOCKED: ATOM     44  C29 UNL     1       5.916  -6.297  -0.690 +0.00 +0.00    +0.234 C  
DOCKED: ATOM     45  O7  UNL     1       5.253  -7.220  -0.217 +0.00 -0.00    -0.274 OA 
DOCKED: ATOM     46  N5  UNL     1       6.446  -5.277   0.071 +0.00 -0.00    -0.310 N  
DOCKED: ATOM     47  H45 UNL     1       6.909  -4.504  -0.391 +0.00 +0.00    +0.149 HD 
DOCKED: BRANCH  46  48
DOCKED: ATOM     48  C30 UNL     1       6.114  -5.113   1.469 +0.00 +0.00    +0.139 C  
DOCKED: BRANCH  48  49
DOCKED: ATOM     49  C31 UNL     1       7.351  -4.803   2.268 +0.00 -0.00    -0.027 A  
DOCKED: ATOM     50  C32 UNL     1       7.424  -3.623   3.016 +0.00 +0.00    +0.025 A  
DOCKED: ATOM     51  C33 UNL     1       8.597  -3.334   3.696 +0.00 +0.00    +0.111 A  
DOCKED: ATOM     52  N6  UNL     1       9.690  -4.135   3.686 +0.00 -0.00    -0.263 NA 
DOCKED: ATOM     53  C34 UNL     1       9.604  -5.264   2.948 +0.00 +0.00    +0.111 A  
DOCKED: ATOM     54  C35 UNL     1       8.474  -5.636   2.232 +0.00 +0.00    +0.025 A  
DOCKED: ENDBRANCH  48  49
DOCKED: ENDBRANCH  46  48
DOCKED: ENDBRANCH  43  44
DOCKED: BRANCH  43  55
DOCKED: ATOM     55  C36 UNL     1       5.723  -7.414  -3.025 +0.00 +0.00    +0.012 C  
DOCKED: ATOM     56  C37 UNL     1       5.614  -7.126  -4.527 +0.00 +0.00    +0.009 C  
DOCKED: ATOM     57  C38 UNL     1       6.581  -8.657  -2.772 +0.00 +0.00    +0.009 C  
DOCKED: ENDBRANCH  43  55
DOCKED: ENDBRANCH  41  43
DOCKED: ENDBRANCH  37  39
DOCKED: ENDBRANCH  36  37
DOCKED: ENDBRANCH  33  36
DOCKED: ENDBRANCH   1  33
DOCKED: TORSDOF 21
DOCKED: TER
DOCKED: ENDMDL
________________________________________________________________________________


    FINAL DOCKED STATE:
    ________________________


Run:   17 / 20
Time taken for this run:   1.486s

DOCKED: MODEL        17
DOCKED: USER    Run = 17
DOCKED: USER
DOCKED: USER    Estimated Free Energy of Binding    =  +6.26 kcal/mol  [=(1)+(2)+(3)-(4)]
DOCKED: USER
DOCKED: USER    (1) Final Intermolecular Energy     =  +0.00 kcal/mol
DOCKED: USER        vdW + Hbond + desolv Energy     =  +0.00 kcal/mol
DOCKED: USER        Electrostatic Energy            =  +0.00 kcal/mol
DOCKED: USER        Moving Ligand-Fixed Receptor    =  +0.00 kcal/mol
DOCKED: USER        Moving Ligand-Moving Receptor   =  +0.00 kcal/mol
DOCKED: USER    (2) Final Total Internal Energy     = -14.78 kcal/mol
DOCKED: USER    (3) Torsional Free Energy           =  +6.26 kcal/mol
DOCKED: USER    (4) Unbound System's Energy         = -14.78 kcal/mol
DOCKED: USER
DOCKED: USER
DOCKED: REMARK  Name = ligands/ligand_20.pdb
DOCKED: REMARK  30 active torsions:
DOCKED: REMARK  status: ('A' for Active; 'I' for Inactive)
DOCKED: REMARK    1  A    between atoms: C1_1  and  C2_2
DOCKED: REMARK    2  A    between atoms: C2_2  and  C3_3
DOCKED: REMARK    3  A    between atoms: C2_2  and  C4_4
DOCKED: REMARK    4  A    between atoms: C4_4  and  C5_5
DOCKED: REMARK    5  A    between atoms: C5_5  and  N1_6
DOCKED: REMARK    6  A    between atoms: C5_5  and  C11_14
DOCKED: REMARK    7  A    between atoms: C6_7  and  O2_9
DOCKED: REMARK    8  A    between atoms: O2_9  and  C7_10
DOCKED: REMARK    9  A    between atoms: C7_10  and  C8_11
DOCKED: REMARK   10  A    between atoms: C7_10  and  C9_12
DOCKED: REMARK   11  A    between atoms: C7_10  and  C10_13
DOCKED: REMARK   12  A    between atoms: N2_16  and  C12_17
DOCKED: REMARK   13  A    between atoms: C12_17  and  C13_18
DOCKED: REMARK   14  A    between atoms: C12_17  and  C14_19
DOCKED: REMARK   15  A    between atoms: N3_21  and  C15_22
DOCKED: REMARK   16  A    between atoms: C15_22  and  C16_23
DOCKED: REMARK   17  A    between atoms: C15_22  and  C23_30
DOCKED: REMARK   18  A    between atoms: C16_23  and  C17_24
DOCKED: REMARK   19  A    between atoms: C23_30  and  O5_31
DOCKED: REMARK   20  A    between atoms: C23_30  and  C24_32
DOCKED: REMARK   21  A    between atoms: C24_32  and  C25_33
DOCKED: REMARK   22  A    between atoms: C25_33  and  C26_34
DOCKED: REMARK   23  A    between atoms: C25_33  and  C27_35
DOCKED: REMARK   24  A    between atoms: N4_37  and  C28_38
DOCKED: REMARK   25  A    between atoms: C28_38  and  C29_39
DOCKED: REMARK   26  A    between atoms: C28_38  and  C36_49
DOCKED: REMARK   27  A    between atoms: N5_41  and  C30_42
DOCKED: REMARK   28  A    between atoms: C30_42  and  C31_43
DOCKED: REMARK   29  A    between atoms: C36_49  and  C37_50
DOCKED: REMARK   30  A    between atoms: C36_49  and  C38_51
DOCKED: REMARK                            x       y       z     vdW  Elec       q    Type
DOCKED: REMARK                         _______ _______ _______ _____ _____    ______ ____
DOCKED: USER                              x       y       z     vdW  Elec       q    Type
DOCKED: USER                           _______ _______ _______ _____ _____    ______ ____
DOCKED: ROOT
DOCKED: ATOM      1  C15 UNL     1       5.439  -2.017  -0.907 +0.00 +0.00    +0.106 C  
DOCKED: ENDROOT
DOCKED: BRANCH   1   4
DOCKED: ATOM      2  C14 UNL     1       3.438  -2.726  -2.235 +0.00 +0.00    +0.233 C  
DOCKED: ATOM      3  O4  UNL     1       2.792  -3.093  -1.257 +0.00 -0.00    -0.274 OA 
DOCKED: ATOM      4  N3  UNL     1       4.658  -2.105  -2.137 +0.00 -0.00    -0.308 N  
DOCKED: ATOM      5  H26 UNL     1       5.119  -1.744  -2.966 +0.00 +0.00    +0.149 HD 
DOCKED: BRANCH   2   6
DOCKED: ATOM      6  C12 UNL     1       2.930  -2.881  -3.683 +0.00 +0.00    +0.156 C  
DOCKED: ATOM      7  C13 UNL     1       2.670  -4.353  -3.980 +0.00 +0.00    +0.038 C  
DOCKED: BRANCH   6  10
DOCKED: ATOM      8  C11 UNL     1       3.477  -1.534  -5.653 +0.00 +0.00    +0.234 C  
DOCKED: ATOM      9  O3  UNL     1       2.275  -1.352  -5.860 +0.00 -0.00    -0.274 OA 
DOCKED: ATOM     10  N2  UNL     1       3.915  -2.332  -4.611 +0.00 -0.00    -0.303 N  
DOCKED: ATOM     11  H21 UNL     1       4.784  -2.051  -4.174 +0.00 +0.00    +0.149 HD 
DOCKED: BRANCH   8  12
DOCKED: ATOM     12  C5  UNL     1       4.571  -0.959  -6.594 +0.00 +0.00    +0.162 C  
DOCKED: BRANCH  12  13
DOCKED: ATOM     13  N1  UNL     1       5.628  -1.965  -6.687 +0.00 -0.00    -0.270 N  
DOCKED: ATOM     14  C6  UNL     1       6.484  -2.251  -5.673 +0.00 +0.00    +0.401 C  
DOCKED: ATOM     15  O1  UNL     1       6.549  -1.643  -4.615 +0.00 -0.00    -0.226 OA 
DOCKED: ATOM     16  H11 UNL     1       5.589  -2.655  -7.429 +0.00 +0.00    +0.153 HD 
DOCKED: BRANCH  14  17
DOCKED: ATOM     17  O2  UNL     1       7.252  -3.303  -6.039 +0.00 -0.00    -0.445 OA 
DOCKED: BRANCH  17  18
DOCKED: ATOM     18  C7  UNL     1       8.407  -3.104  -6.893 +0.00 +0.00    +0.107 C  
DOCKED: ATOM     19  C8  UNL     1       9.673  -3.684  -6.249 +0.00 +0.00    +0.055 C  
DOCKED: ATOM     20  C9  UNL     1       8.576  -1.626  -7.277 +0.00 +0.00    +0.055 C  
DOCKED: ATOM     21  C10 UNL     1       8.086  -3.899  -8.165 +0.00 +0.00    +0.055 C  
DOCKED: ENDBRANCH  17  18
DOCKED: ENDBRANCH  14  17
DOCKED: ENDBRANCH  12  13
DOCKED: BRANCH  12  22
DOCKED: ATOM     22  C4  UNL     1       4.116  -0.584  -8.014 +0.00 +0.00    +0.035 C  
DOCKED: BRANCH  22  24
DOCKED: ATOM     23  C1  UNL     1       3.804   1.949  -7.899 +0.00 +0.00    +0.007 C  
DOCKED: ATOM     24  C2  UNL     1       4.608   0.796  -8.509 +0.00 -0.00    -0.015 C  
DOCKED: ATOM     25  C3  UNL     1       6.091   0.979  -8.163 +0.00 +0.00    +0.007 C  
DOCKED: ENDBRANCH  22  24
DOCKED: ENDBRANCH  12  22
DOCKED: ENDBRANCH   8  12
DOCKED: ENDBRANCH   6  10
DOCKED: ENDBRANCH   2   6
DOCKED: ENDBRANCH   1   4
DOCKED: BRANCH   1  26
DOCKED: ATOM     26  C16 UNL     1       6.111  -3.374  -0.578 +0.00 +0.00    +0.060 C  
DOCKED: BRANCH  26  27
DOCKED: ATOM     27  C17 UNL     1       6.775  -4.106  -1.721 +0.00 -0.00    -0.046 A  
DOCKED: ATOM     28  C18 UNL     1       8.166  -4.034  -1.899 +0.00 +0.00    +0.004 A  
DOCKED: ATOM     29  C19 UNL     1       8.779  -4.699  -2.961 +0.00 +0.00    +0.000 A  
DOCKED: ATOM     30  C20 UNL     1       8.013  -5.456  -3.847 +0.00 +0.00    +0.000 A  
DOCKED: ATOM     31  C21 UNL     1       6.634  -5.549  -3.669 +0.00 +0.00    +0.000 A  
DOCKED: ATOM     32  C22 UNL     1       6.014  -4.873  -2.614 +0.00 +0.00    +0.004 A  
DOCKED: ENDBRANCH  26  27
DOCKED: ENDBRANCH   1  26
DOCKED: BRANCH   1  33
DOCKED: ATOM     33  C23 UNL     1       6.445  -0.841  -0.982 +0.00 +0.00    +0.136 C  
DOCKED: BRANCH  33  34
DOCKED: ATOM     34  O5  UNL     1       6.960  -0.730  -2.318 +0.00 -0.00    -0.390 OA 
DOCKED: ATOM     35  H36 UNL     1       6.211  -0.821  -2.930 +0.00 +0.00    +0.210 HD 
DOCKED: ENDBRANCH  33  34
DOCKED: BRANCH  33  36
DOCKED: ATOM     36  C24 UNL     1       5.814   0.513  -0.614 +0.00 +0.00    +0.045 C  
DOCKED: BRANCH  36  37
DOCKED: ATOM     37  C25 UNL     1       4.487   0.866  -1.323 +0.00 +0.00    +0.074 C  
DOCKED: ATOM     38  C26 UNL     1       3.853   2.161  -0.807 +0.00 +0.00    +0.017 C  
DOCKED: BRANCH  37  39
DOCKED: ATOM     39  C27 UNL     1       4.742   0.980  -2.824 +0.00 +0.00    +0.217 C  
DOCKED: ATOM     40  O6  UNL     1       4.615   0.033  -3.597 +0.00 -0.00    -0.276 OA 
DOCKED: ATOM     41  N4  UNL     1       5.074   2.244  -3.246 +0.00 -0.00    -0.304 N  
DOCKED: ATOM     42  H43 UNL     1       5.291   2.974  -2.573 +0.00 +0.00    +0.149 HD 
DOCKED: BRANCH  41  43
DOCKED: ATOM     43  C28 UNL     1       5.302   2.560  -4.657 +0.00 +0.00    +0.161 C  
DOCKED: BRANCH  43  44
DOCKED: ATOM     44  C29 UNL     1       6.804   2.335  -4.949 +0.00 +0.00    +0.234 C  
DOCKED: ATOM     45  O7  UNL     1       7.487   3.178  -5.534 +0.00 -0.00    -0.274 OA 
DOCKED: ATOM     46  N5  UNL     1       7.299   1.121  -4.526 +0.00 -0.00    -0.310 N  
DOCKED: ATOM     47  H45 UNL     1       6.664   0.440  -4.128 +0.00 +0.00    +0.149 HD 
DOCKED: BRANCH  46  48
DOCKED: ATOM     48  C30 UNL     1       8.621   0.662  -4.893 +0.00 +0.00    +0.139 C  
DOCKED: BRANCH  48  49
DOCKED: ATOM     49  C31 UNL     1       9.335   0.105  -3.691 +0.00 -0.00    -0.027 A  
DOCKED: ATOM     50  C32 UNL     1       9.823  -1.206  -3.712 +0.00 +0.00    +0.025 A  
DOCKED: ATOM     51  C33 UNL     1      10.425  -1.713  -2.571 +0.00 +0.00    +0.111 A  
DOCKED: ATOM     52  N6  UNL     1      10.577  -1.009  -1.424 +0.00 -0.00    -0.263 NA 
DOCKED: ATOM     53  C34 UNL     1      10.089   0.251  -1.419 +0.00 +0.00    +0.111 A  
DOCKED: ATOM     54  C35 UNL     1       9.468   0.844  -2.511 +0.00 +0.00    +0.025 A  
DOCKED: ENDBRANCH  48  49
DOCKED: ENDBRANCH  46  48
DOCKED: ENDBRANCH  43  44
DOCKED: BRANCH  43  55
DOCKED: ATOM     55  C36 UNL     1       4.805   3.989  -4.993 +0.00 +0.00    +0.012 C  
DOCKED: ATOM     56  C37 UNL     1       3.277   4.083  -5.087 +0.00 +0.00    +0.009 C  
DOCKED: ATOM     57  C38 UNL     1       5.355   5.047  -4.032 +0.00 +0.00    +0.009 C  
DOCKED: ENDBRANCH  43  55
DOCKED: ENDBRANCH  41  43
DOCKED: ENDBRANCH  37  39
DOCKED: ENDBRANCH  36  37
DOCKED: ENDBRANCH  33  36
DOCKED: ENDBRANCH   1  33
DOCKED: TORSDOF 21
DOCKED: TER
DOCKED: ENDMDL
________________________________________________________________________________


    FINAL DOCKED STATE:
    ________________________


Run:   18 / 20
Time taken for this run:   1.486s

DOCKED: MODEL        18
DOCKED: USER    Run = 18
DOCKED: USER
DOCKED: USER    Estimated Free Energy of Binding    =  +6.26 kcal/mol  [=(1)+(2)+(3)-(4)]
DOCKED: USER
DOCKED: USER    (1) Final Intermolecular Energy     =  +0.00 kcal/mol
DOCKED: USER        vdW + Hbond + desolv Energy     =  +0.00 kcal/mol
DOCKED: USER        Electrostatic Energy            =  +0.00 kcal/mol
DOCKED: USER        Moving Ligand-Fixed Receptor    =  +0.00 kcal/mol
DOCKED: USER        Moving Ligand-Moving Receptor   =  +0.00 kcal/mol
DOCKED: USER    (2) Final Total Internal Energy     = -14.41 kcal/mol
DOCKED: USER    (3) Torsional Free Energy           =  +6.26 kcal/mol
DOCKED: USER    (4) Unbound System's Energy         = -14.41 kcal/mol
DOCKED: USER
DOCKED: USER
DOCKED: REMARK  Name = ligands/ligand_20.pdb
DOCKED: REMARK  30 active torsions:
DOCKED: REMARK  status: ('A' for Active; 'I' for Inactive)
DOCKED: REMARK    1  A    between atoms: C1_1  and  C2_2
DOCKED: REMARK    2  A    between atoms: C2_2  and  C3_3
DOCKED: REMARK    3  A    between atoms: C2_2  and  C4_4
DOCKED: REMARK    4  A    between atoms: C4_4  and  C5_5
DOCKED: REMARK    5  A    between atoms: C5_5  and  N1_6
DOCKED: REMARK    6  A    between atoms: C5_5  and  C11_14
DOCKED: REMARK    7  A    between atoms: C6_7  and  O2_9
DOCKED: REMARK    8  A    between atoms: O2_9  and  C7_10
DOCKED: REMARK    9  A    between atoms: C7_10  and  C8_11
DOCKED: REMARK   10  A    between atoms: C7_10  and  C9_12
DOCKED: REMARK   11  A    between atoms: C7_10  and  C10_13
DOCKED: REMARK   12  A    between atoms: N2_16  and  C12_17
DOCKED: REMARK   13  A    between atoms: C12_17  and  C13_18
DOCKED: REMARK   14  A    between atoms: C12_17  and  C14_19
DOCKED: REMARK   15  A    between atoms: N3_21  and  C15_22
DOCKED: REMARK   16  A    between atoms: C15_22  and  C16_23
DOCKED: REMARK   17  A    between atoms: C15_22  and  C23_30
DOCKED: REMARK   18  A    between atoms: C16_23  and  C17_24
DOCKED: REMARK   19  A    between atoms: C23_30  and  O5_31
DOCKED: REMARK   20  A    between atoms: C23_30  and  C24_32
DOCKED: REMARK   21  A    between atoms: C24_32  and  C25_33
DOCKED: REMARK   22  A    between atoms: C25_33  and  C26_34
DOCKED: REMARK   23  A    between atoms: C25_33  and  C27_35
DOCKED: REMARK   24  A    between atoms: N4_37  and  C28_38
DOCKED: REMARK   25  A    between atoms: C28_38  and  C29_39
DOCKED: REMARK   26  A    between atoms: C28_38  and  C36_49
DOCKED: REMARK   27  A    between atoms: N5_41  and  C30_42
DOCKED: REMARK   28  A    between atoms: C30_42  and  C31_43
DOCKED: REMARK   29  A    between atoms: C36_49  and  C37_50
DOCKED: REMARK   30  A    between atoms: C36_49  and  C38_51
DOCKED: REMARK                            x       y       z     vdW  Elec       q    Type
DOCKED: REMARK                         _______ _______ _______ _____ _____    ______ ____
DOCKED: USER                              x       y       z     vdW  Elec       q    Type
DOCKED: USER                           _______ _______ _______ _____ _____    ______ ____
DOCKED: ROOT
DOCKED: ATOM      1  C15 UNL     1       7.857  -8.281  -1.549 +0.00 +0.00    +0.106 C  
DOCKED: ENDROOT
DOCKED: BRANCH   1   4
DOCKED: ATOM      2  C14 UNL     1       7.902  -6.235  -0.107 +0.00 +0.00    +0.233 C  
DOCKED: ATOM      3  O4  UNL     1       8.829  -5.705  -0.712 +0.00 -0.00    -0.274 OA 
DOCKED: ATOM      4  N3  UNL     1       7.316  -7.408  -0.513 +0.00 -0.00    -0.308 N  
DOCKED: ATOM      5  H26 UNL     1       6.499  -7.768  -0.030 +0.00 +0.00    +0.149 HD 
DOCKED: BRANCH   2   6
DOCKED: ATOM      6  C12 UNL     1       7.260  -5.619   1.153 +0.00 +0.00    +0.156 C  
DOCKED: ATOM      7  C13 UNL     1       7.846  -4.233   1.401 +0.00 +0.00    +0.038 C  
DOCKED: BRANCH   6  10
DOCKED: ATOM      8  C11 UNL     1       6.771  -7.668   2.402 +0.00 +0.00    +0.234 C  
DOCKED: ATOM      9  O3  UNL     1       5.880  -7.944   1.595 +0.00 -0.00    -0.274 OA 
DOCKED: ATOM     10  N2  UNL     1       7.495  -6.491   2.300 +0.00 -0.00    -0.303 N  
DOCKED: ATOM     11  H21 UNL     1       8.463  -6.542   2.592 +0.00 +0.00    +0.149 HD 
DOCKED: BRANCH   8  12
DOCKED: ATOM     12  C5  UNL     1       7.079  -8.567   3.630 +0.00 +0.00    +0.162 C  
DOCKED: BRANCH  12  13
DOCKED: ATOM     13  N1  UNL     1       7.560  -9.848   3.113 +0.00 -0.00    -0.270 N  
DOCKED: ATOM     14  C6  UNL     1       6.834 -10.645   2.288 +0.00 +0.00    +0.401 C  
DOCKED: ATOM     15  O1  UNL     1       5.671 -10.449   1.965 +0.00 -0.00    -0.226 OA 
DOCKED: ATOM     16  H11 UNL     1       8.552 -10.058   3.157 +0.00 +0.00    +0.153 HD 
DOCKED: BRANCH  14  17
DOCKED: ATOM     17  O2  UNL     1       7.607 -11.685   1.901 +0.00 -0.00    -0.445 OA 
DOCKED: BRANCH  17  18
DOCKED: ATOM     18  C7  UNL     1       7.003 -12.961   1.569 +0.00 +0.00    +0.107 C  
DOCKED: ATOM     19  C8  UNL     1       6.378 -12.925   0.168 +0.00 +0.00    +0.055 C  
DOCKED: ATOM     20  C9  UNL     1       5.998 -13.406   2.642 +0.00 +0.00    +0.055 C  
DOCKED: ATOM     21  C10 UNL     1       8.175 -13.952   1.565 +0.00 +0.00    +0.055 C  
DOCKED: ENDBRANCH  17  18
DOCKED: ENDBRANCH  14  17
DOCKED: ENDBRANCH  12  13
DOCKED: BRANCH  12  22
DOCKED: ATOM     22  C4  UNL     1       8.110  -8.018   4.631 +0.00 +0.00    +0.035 C  
DOCKED: BRANCH  22  24
DOCKED: ATOM     23  C1  UNL     1       7.612  -5.623   5.365 +0.00 +0.00    +0.007 C  
DOCKED: ATOM     24  C2  UNL     1       7.520  -7.106   5.732 +0.00 -0.00    -0.015 C  
DOCKED: ATOM     25  C3  UNL     1       6.051  -7.471   5.984 +0.00 +0.00    +0.007 C  
DOCKED: ENDBRANCH  22  24
DOCKED: ENDBRANCH  12  22
DOCKED: ENDBRANCH   8  12
DOCKED: ENDBRANCH   6  10
DOCKED: ENDBRANCH   2   6
DOCKED: ENDBRANCH   1   4
DOCKED: BRANCH   1  26
DOCKED: ATOM     26  C16 UNL     1       9.380  -8.495  -1.356 +0.00 +0.00    +0.060 C  
DOCKED: BRANCH  26  27
DOCKED: ATOM     27  C17 UNL     1       9.822  -9.157  -0.071 +0.00 -0.00    -0.046 A  
DOCKED: ATOM     28  C18 UNL     1       9.992 -10.550  -0.010 +0.00 +0.00    +0.004 A  
DOCKED: ATOM     29  C19 UNL     1      10.388 -11.163   1.178 +0.00 +0.00    +0.000 A  
DOCKED: ATOM     30  C20 UNL     1      10.634 -10.393   2.314 +0.00 +0.00    +0.000 A  
DOCKED: ATOM     31  C21 UNL     1      10.488  -9.008   2.259 +0.00 +0.00    +0.000 A  
DOCKED: ATOM     32  C22 UNL     1      10.078  -8.390   1.074 +0.00 +0.00    +0.004 A  
DOCKED: ENDBRANCH  26  27
DOCKED: ENDBRANCH   1  26
DOCKED: BRANCH   1  33
DOCKED: ATOM     33  C23 UNL     1       7.059  -9.609  -1.616 +0.00 +0.00    +0.136 C  
DOCKED: BRANCH  33  34
DOCKED: ATOM     34  O5  UNL     1       6.735 -10.045  -0.287 +0.00 -0.00    -0.390 OA 
DOCKED: ATOM     35  H36 UNL     1       6.288  -9.308   0.163 +0.00 +0.00    +0.210 HD 
DOCKED: ENDBRANCH  33  34
DOCKED: BRANCH  33  36
DOCKED: ATOM     36  C24 UNL     1       5.740  -9.478  -2.396 +0.00 +0.00    +0.045 C  
DOCKED: BRANCH  36  37
DOCKED: ATOM     37  C25 UNL     1       4.797  -8.333  -1.961 +0.00 +0.00    +0.074 C  
DOCKED: ATOM     38  C26 UNL     1       4.345  -7.448  -3.127 +0.00 +0.00    +0.017 C  
DOCKED: BRANCH  37  39
DOCKED: ATOM     39  C27 UNL     1       3.578  -8.933  -1.265 +0.00 +0.00    +0.217 C  
DOCKED: ATOM     40  O6  UNL     1       2.456  -8.936  -1.767 +0.00 -0.00    -0.276 OA 
DOCKED: ATOM     41  N4  UNL     1       3.850  -9.516  -0.052 +0.00 -0.00    -0.304 N  
DOCKED: ATOM     42  H43 UNL     1       4.757  -9.391   0.391 +0.00 +0.00    +0.149 HD 
DOCKED: BRANCH  41  43
DOCKED: ATOM     43  C28 UNL     1       2.819 -10.190   0.738 +0.00 +0.00    +0.161 C  
DOCKED: BRANCH  43  44
DOCKED: ATOM     44  C29 UNL     1       2.465  -9.268   1.928 +0.00 +0.00    +0.234 C  
DOCKED: ATOM     45  O7  UNL     1       1.298  -9.015   2.230 +0.00 -0.00    -0.274 OA 
DOCKED: ATOM     46  N5  UNL     1       3.550  -8.745   2.595 +0.00 -0.00    -0.310 N  
DOCKED: ATOM     47  H45 UNL     1       4.482  -8.926   2.243 +0.00 +0.00    +0.149 HD 
DOCKED: BRANCH  46  48
DOCKED: ATOM     48  C30 UNL     1       3.409  -7.711   3.597 +0.00 +0.00    +0.139 C  
DOCKED: BRANCH  48  49
DOCKED: ATOM     49  C31 UNL     1       3.749  -6.366   3.014 +0.00 -0.00    -0.027 A  
DOCKED: ATOM     50  C32 UNL     1       3.527  -6.116   1.657 +0.00 +0.00    +0.025 A  
DOCKED: ATOM     51  C33 UNL     1       3.903  -4.887   1.133 +0.00 +0.00    +0.111 A  
DOCKED: ATOM     52  N6  UNL     1       4.474  -3.901   1.865 +0.00 -0.00    -0.263 NA 
DOCKED: ATOM     53  C34 UNL     1       4.690  -4.166   3.172 +0.00 +0.00    +0.111 A  
DOCKED: ATOM     54  C35 UNL     1       4.351  -5.365   3.784 +0.00 +0.00    +0.025 A  
DOCKED: ENDBRANCH  48  49
DOCKED: ENDBRANCH  46  48
DOCKED: ENDBRANCH  43  44
DOCKED: BRANCH  43  55
DOCKED: ATOM     55  C36 UNL     1       3.281 -11.609   1.159 +0.00 +0.00    +0.012 C  
DOCKED: ATOM     56  C37 UNL     1       2.787 -12.008   2.555 +0.00 +0.00    +0.009 C  
DOCKED: ATOM     57  C38 UNL     1       2.914 -12.680   0.128 +0.00 +0.00    +0.009 C  
DOCKED: ENDBRANCH  43  55
DOCKED: ENDBRANCH  41  43
DOCKED: ENDBRANCH  37  39
DOCKED: ENDBRANCH  36  37
DOCKED: ENDBRANCH  33  36
DOCKED: ENDBRANCH   1  33
DOCKED: TORSDOF 21
DOCKED: TER
DOCKED: ENDMDL
________________________________________________________________________________


    FINAL DOCKED STATE:
    ________________________


Run:   19 / 20
Time taken for this run:   1.486s

DOCKED: MODEL        19
DOCKED: USER    Run = 19
DOCKED: USER
DOCKED: USER    Estimated Free Energy of Binding    =  +6.26 kcal/mol  [=(1)+(2)+(3)-(4)]
DOCKED: USER
DOCKED: USER    (1) Final Intermolecular Energy     =  +0.00 kcal/mol
DOCKED: USER        vdW + Hbond + desolv Energy     =  +0.00 kcal/mol
DOCKED: USER        Electrostatic Energy            =  +0.00 kcal/mol
DOCKED: USER        Moving Ligand-Fixed Receptor    =  +0.00 kcal/mol
DOCKED: USER        Moving Ligand-Moving Receptor   =  +0.00 kcal/mol
DOCKED: USER    (2) Final Total Internal Energy     = -14.83 kcal/mol
DOCKED: USER    (3) Torsional Free Energy           =  +6.26 kcal/mol
DOCKED: USER    (4) Unbound System's Energy         = -14.83 kcal/mol
DOCKED: USER
DOCKED: USER
DOCKED: REMARK  Name = ligands/ligand_20.pdb
DOCKED: REMARK  30 active torsions:
DOCKED: REMARK  status: ('A' for Active; 'I' for Inactive)
DOCKED: REMARK    1  A    between atoms: C1_1  and  C2_2
DOCKED: REMARK    2  A    between atoms: C2_2  and  C3_3
DOCKED: REMARK    3  A    between atoms: C2_2  and  C4_4
DOCKED: REMARK    4  A    between atoms: C4_4  and  C5_5
DOCKED: REMARK    5  A    between atoms: C5_5  and  N1_6
DOCKED: REMARK    6  A    between atoms: C5_5  and  C11_14
DOCKED: REMARK    7  A    between atoms: C6_7  and  O2_9
DOCKED: REMARK    8  A    between atoms: O2_9  and  C7_10
DOCKED: REMARK    9  A    between atoms: C7_10  and  C8_11
DOCKED: REMARK   10  A    between atoms: C7_10  and  C9_12
DOCKED: REMARK   11  A    between atoms: C7_10  and  C10_13
DOCKED: REMARK   12  A    between atoms: N2_16  and  C12_17
DOCKED: REMARK   13  A    between atoms: C12_17  and  C13_18
DOCKED: REMARK   14  A    between atoms: C12_17  and  C14_19
DOCKED: REMARK   15  A    between atoms: N3_21  and  C15_22
DOCKED: REMARK   16  A    between atoms: C15_22  and  C16_23
DOCKED: REMARK   17  A    between atoms: C15_22  and  C23_30
DOCKED: REMARK   18  A    between atoms: C16_23  and  C17_24
DOCKED: REMARK   19  A    between atoms: C23_30  and  O5_31
DOCKED: REMARK   20  A    between atoms: C23_30  and  C24_32
DOCKED: REMARK   21  A    between atoms: C24_32  and  C25_33
DOCKED: REMARK   22  A    between atoms: C25_33  and  C26_34
DOCKED: REMARK   23  A    between atoms: C25_33  and  C27_35
DOCKED: REMARK   24  A    between atoms: N4_37  and  C28_38
DOCKED: REMARK   25  A    between atoms: C28_38  and  C29_39
DOCKED: REMARK   26  A    between atoms: C28_38  and  C36_49
DOCKED: REMARK   27  A    between atoms: N5_41  and  C30_42
DOCKED: REMARK   28  A    between atoms: C30_42  and  C31_43
DOCKED: REMARK   29  A    between atoms: C36_49  and  C37_50
DOCKED: REMARK   30  A    between atoms: C36_49  and  C38_51
DOCKED: REMARK                            x       y       z     vdW  Elec       q    Type
DOCKED: REMARK                         _______ _______ _______ _____ _____    ______ ____
DOCKED: USER                              x       y       z     vdW  Elec       q    Type
DOCKED: USER                           _______ _______ _______ _____ _____    ______ ____
DOCKED: ROOT
DOCKED: ATOM      1  C15 UNL     1      13.352  -2.814  -3.774 +0.00 +0.00    +0.106 C  
DOCKED: ENDROOT
DOCKED: BRANCH   1   4
DOCKED: ATOM      2  C14 UNL     1      11.544  -2.927  -2.046 +0.00 +0.00    +0.233 C  
DOCKED: ATOM      3  O4  UNL     1      12.100  -3.790  -1.373 +0.00 -0.00    -0.274 OA 
DOCKED: ATOM      4  N3  UNL     1      12.127  -2.337  -3.139 +0.00 -0.00    -0.308 N  
DOCKED: ATOM      5  H26 UNL     1      11.666  -1.570  -3.617 +0.00 +0.00    +0.149 HD 
DOCKED: BRANCH   2   6
DOCKED: ATOM      6  C12 UNL     1      10.143  -2.374  -1.711 +0.00 +0.00    +0.156 C  
DOCKED: ATOM      7  C13 UNL     1       9.365  -3.406  -0.903 +0.00 +0.00    +0.038 C  
DOCKED: BRANCH   6  10
DOCKED: ATOM      8  C11 UNL     1       9.209  -0.713  -3.250 +0.00 +0.00    +0.234 C  
DOCKED: ATOM      9  O3  UNL     1       9.512   0.185  -2.460 +0.00 -0.00    -0.274 OA 
DOCKED: ATOM     10  N2  UNL     1       9.437  -2.045  -2.946 +0.00 -0.00    -0.303 N  
DOCKED: ATOM     11  H21 UNL     1       9.670  -2.643  -3.729 +0.00 +0.00    +0.149 HD 
DOCKED: BRANCH   8  12
DOCKED: ATOM     12  C5  UNL     1       8.475  -0.423  -4.587 +0.00 +0.00    +0.162 C  
DOCKED: BRANCH  12  13
DOCKED: ATOM     13  N1  UNL     1       9.495  -0.034  -5.561 +0.00 -0.00    -0.270 N  
DOCKED: ATOM     14  C6  UNL     1      10.519  -0.842  -5.937 +0.00 +0.00    +0.401 C  
DOCKED: ATOM     15  O1  UNL     1      10.775  -1.930  -5.443 +0.00 -0.00    -0.226 OA 
DOCKED: ATOM     16  H11 UNL     1       9.321   0.758  -6.170 +0.00 +0.00    +0.153 HD 
DOCKED: BRANCH  14  17
DOCKED: ATOM     17  O2  UNL     1      11.205  -0.235  -6.933 +0.00 -0.00    -0.445 OA 
DOCKED: BRANCH  17  18
DOCKED: ATOM     18  C7  UNL     1      11.046  -0.675  -8.305 +0.00 +0.00    +0.107 C  
DOCKED: ATOM     19  C8  UNL     1      10.471  -2.096  -8.363 +0.00 +0.00    +0.055 C  
DOCKED: ATOM     20  C9  UNL     1      12.358  -0.547  -9.094 +0.00 +0.00    +0.055 C  
DOCKED: ATOM     21  C10 UNL     1      10.024   0.300  -8.906 +0.00 +0.00    +0.055 C  
DOCKED: ENDBRANCH  17  18
DOCKED: ENDBRANCH  14  17
DOCKED: ENDBRANCH  12  13
DOCKED: BRANCH  12  22
DOCKED: ATOM     22  C4  UNL     1       7.647  -1.580  -5.171 +0.00 +0.00    +0.035 C  
DOCKED: BRANCH  22  24
DOCKED: ATOM     23  C1  UNL     1       7.328  -3.001  -7.269 +0.00 +0.00    +0.007 C  
DOCKED: ATOM     24  C2  UNL     1       7.548  -1.591  -6.714 +0.00 -0.00    -0.015 C  
DOCKED: ATOM     25  C3  UNL     1       6.399  -0.685  -7.173 +0.00 +0.00    +0.007 C  
DOCKED: ENDBRANCH  22  24
DOCKED: ENDBRANCH  12  22
DOCKED: ENDBRANCH   8  12
DOCKED: ENDBRANCH   6  10
DOCKED: ENDBRANCH   2   6
DOCKED: ENDBRANCH   1   4
DOCKED: BRANCH   1  26
DOCKED: ATOM     26  C16 UNL     1      13.242  -4.316  -4.136 +0.00 +0.00    +0.060 C  
DOCKED: BRANCH  26  27
DOCKED: ATOM     27  C17 UNL     1      12.141  -4.712  -5.093 +0.00 -0.00    -0.046 A  
DOCKED: ATOM     28  C18 UNL     1      10.845  -4.969  -4.618 +0.00 +0.00    +0.004 A  
DOCKED: ATOM     29  C19 UNL     1       9.830  -5.347  -5.499 +0.00 +0.00    +0.000 A  
DOCKED: ATOM     30  C20 UNL     1      10.094  -5.455  -6.864 +0.00 +0.00    +0.000 A  
DOCKED: ATOM     31  C21 UNL     1      11.372  -5.183  -7.348 +0.00 +0.00    +0.000 A  
DOCKED: ATOM     32  C22 UNL     1      12.395  -4.818  -6.468 +0.00 +0.00    +0.004 A  
DOCKED: ENDBRANCH  26  27
DOCKED: ENDBRANCH   1  26
DOCKED: BRANCH   1  33
DOCKED: ATOM     33  C23 UNL     1      13.723  -1.921  -4.985 +0.00 +0.00    +0.136 C  
DOCKED: BRANCH  33  34
DOCKED: ATOM     34  O5  UNL     1      13.010  -0.677  -4.905 +0.00 -0.00    -0.390 OA 
DOCKED: ATOM     35  H36 UNL     1      12.523  -0.563  -5.738 +0.00 +0.00    +0.210 HD 
DOCKED: ENDBRANCH  33  34
DOCKED: BRANCH  33  36
DOCKED: ATOM     36  C24 UNL     1      15.224  -1.592  -5.050 +0.00 +0.00    +0.045 C  
DOCKED: BRANCH  36  37
DOCKED: ATOM     37  C25 UNL     1      15.716  -0.888  -6.335 +0.00 +0.00    +0.074 C  
DOCKED: ATOM     38  C26 UNL     1      15.120  -1.483  -7.615 +0.00 +0.00    +0.017 C  
DOCKED: BRANCH  37  39
DOCKED: ATOM     39  C27 UNL     1      15.374   0.597  -6.250 +0.00 +0.00    +0.217 C  
DOCKED: ATOM     40  O6  UNL     1      16.182   1.451  -5.893 +0.00 -0.00    -0.276 OA 
DOCKED: ATOM     41  N4  UNL     1      14.099   0.907  -6.656 +0.00 -0.00    -0.304 N  
DOCKED: ATOM     42  H43 UNL     1      13.417   0.172  -6.828 +0.00 +0.00    +0.149 HD 
DOCKED: BRANCH  41  43
DOCKED: ATOM     43  C28 UNL     1      13.606   2.284  -6.696 +0.00 +0.00    +0.161 C  
DOCKED: BRANCH  43  44
DOCKED: ATOM     44  C29 UNL     1      13.127   2.650  -5.271 +0.00 +0.00    +0.234 C  
DOCKED: ATOM     45  O7  UNL     1      13.558   3.636  -4.673 +0.00 -0.00    -0.274 OA 
DOCKED: ATOM     46  N5  UNL     1      12.207   1.778  -4.730 +0.00 -0.00    -0.310 N  
DOCKED: ATOM     47  H45 UNL     1      11.958   0.941  -5.243 +0.00 +0.00    +0.149 HD 
DOCKED: BRANCH  46  48
DOCKED: ATOM     48  C30 UNL     1      11.806   1.852  -3.342 +0.00 +0.00    +0.139 C  
DOCKED: BRANCH  48  49
DOCKED: ATOM     49  C31 UNL     1      12.745   1.049  -2.482 +0.00 -0.00    -0.027 A  
DOCKED: ATOM     50  C32 UNL     1      12.269   0.417  -1.329 +0.00 +0.00    +0.025 A  
DOCKED: ATOM     51  C33 UNL     1      13.167  -0.268  -0.524 +0.00 +0.00    +0.111 A  
DOCKED: ATOM     52  N6  UNL     1      14.492  -0.368  -0.789 +0.00 -0.00    -0.263 NA 
DOCKED: ATOM     53  C34 UNL     1      14.933   0.259  -1.901 +0.00 +0.00    +0.111 A  
DOCKED: ATOM     54  C35 UNL     1      14.112   0.970  -2.766 +0.00 +0.00    +0.025 A  
DOCKED: ENDBRANCH  48  49
DOCKED: ENDBRANCH  46  48
DOCKED: ENDBRANCH  43  44
DOCKED: BRANCH  43  55
DOCKED: ATOM     55  C36 UNL     1      12.517   2.453  -7.786 +0.00 +0.00    +0.012 C  
DOCKED: ATOM     56  C37 UNL     1      11.333   3.308  -7.320 +0.00 +0.00    +0.009 C  
DOCKED: ATOM     57  C38 UNL     1      13.083   2.985  -9.107 +0.00 +0.00    +0.009 C  
DOCKED: ENDBRANCH  43  55
DOCKED: ENDBRANCH  41  43
DOCKED: ENDBRANCH  37  39
DOCKED: ENDBRANCH  36  37
DOCKED: ENDBRANCH  33  36
DOCKED: ENDBRANCH   1  33
DOCKED: TORSDOF 21
DOCKED: TER
DOCKED: ENDMDL
________________________________________________________________________________


    FINAL DOCKED STATE:
    ________________________


Run:   20 / 20
Time taken for this run:   1.486s

DOCKED: MODEL        20
DOCKED: USER    Run = 20
DOCKED: USER
DOCKED: USER    Estimated Free Energy of Binding    =  +6.26 kcal/mol  [=(1)+(2)+(3)-(4)]
DOCKED: USER
DOCKED: USER    (1) Final Intermolecular Energy     =  +0.00 kcal/mol
DOCKED: USER        vdW + Hbond + desolv Energy     =  +0.00 kcal/mol
DOCKED: USER        Electrostatic Energy            =  +0.00 kcal/mol
DOCKED: USER        Moving Ligand-Fixed Receptor    =  +0.00 kcal/mol
DOCKED: USER        Moving Ligand-Moving Receptor   =  +0.00 kcal/mol
DOCKED: USER    (2) Final Total Internal Energy     = -15.01 kcal/mol
DOCKED: USER    (3) Torsional Free Energy           =  +6.26 kcal/mol
DOCKED: USER    (4) Unbound System's Energy         = -15.01 kcal/mol
DOCKED: USER
DOCKED: USER
DOCKED: REMARK  Name = ligands/ligand_20.pdb
DOCKED: REMARK  30 active torsions:
DOCKED: REMARK  status: ('A' for Active; 'I' for Inactive)
DOCKED: REMARK    1  A    between atoms: C1_1  and  C2_2
DOCKED: REMARK    2  A    between atoms: C2_2  and  C3_3
DOCKED: REMARK    3  A    between atoms: C2_2  and  C4_4
DOCKED: REMARK    4  A    between atoms: C4_4  and  C5_5
DOCKED: REMARK    5  A    between atoms: C5_5  and  N1_6
DOCKED: REMARK    6  A    between atoms: C5_5  and  C11_14
DOCKED: REMARK    7  A    between atoms: C6_7  and  O2_9
DOCKED: REMARK    8  A    between atoms: O2_9  and  C7_10
DOCKED: REMARK    9  A    between atoms: C7_10  and  C8_11
DOCKED: REMARK   10  A    between atoms: C7_10  and  C9_12
DOCKED: REMARK   11  A    between atoms: C7_10  and  C10_13
DOCKED: REMARK   12  A    between atoms: N2_16  and  C12_17
DOCKED: REMARK   13  A    between atoms: C12_17  and  C13_18
DOCKED: REMARK   14  A    between atoms: C12_17  and  C14_19
DOCKED: REMARK   15  A    between atoms: N3_21  and  C15_22
DOCKED: REMARK   16  A    between atoms: C15_22  and  C16_23
DOCKED: REMARK   17  A    between atoms: C15_22  and  C23_30
DOCKED: REMARK   18  A    between atoms: C16_23  and  C17_24
DOCKED: REMARK   19  A    between atoms: C23_30  and  O5_31
DOCKED: REMARK   20  A    between atoms: C23_30  and  C24_32
DOCKED: REMARK   21  A    between atoms: C24_32  and  C25_33
DOCKED: REMARK   22  A    between atoms: C25_33  and  C26_34
DOCKED: REMARK   23  A    between atoms: C25_33  and  C27_35
DOCKED: REMARK   24  A    between atoms: N4_37  and  C28_38
DOCKED: REMARK   25  A    between atoms: C28_38  and  C29_39
DOCKED: REMARK   26  A    between atoms: C28_38  and  C36_49
DOCKED: REMARK   27  A    between atoms: N5_41  and  C30_42
DOCKED: REMARK   28  A    between atoms: C30_42  and  C31_43
DOCKED: REMARK   29  A    between atoms: C36_49  and  C37_50
DOCKED: REMARK   30  A    between atoms: C36_49  and  C38_51
DOCKED: REMARK                            x       y       z     vdW  Elec       q    Type
DOCKED: REMARK                         _______ _______ _______ _____ _____    ______ ____
DOCKED: USER                              x       y       z     vdW  Elec       q    Type
DOCKED: USER                           _______ _______ _______ _____ _____    ______ ____
DOCKED: ROOT
DOCKED: ATOM      1  C15 UNL     1      13.394  -5.672  -3.075 +0.00 +0.00    +0.106 C  
DOCKED: ENDROOT
DOCKED: BRANCH   1   4
DOCKED: ATOM      2  C14 UNL     1      11.049  -5.887  -2.224 +0.00 +0.00    +0.233 C  
DOCKED: ATOM      3  O4  UNL     1      10.568  -6.160  -3.320 +0.00 -0.00    -0.274 OA 
DOCKED: ATOM      4  N3  UNL     1      12.398  -5.749  -2.011 +0.00 -0.00    -0.308 N  
DOCKED: ATOM      5  H26 UNL     1      12.758  -5.605  -1.073 +0.00 +0.00    +0.149 HD 
DOCKED: BRANCH   2   6
DOCKED: ATOM      6  C12 UNL     1      10.195  -5.713  -0.952 +0.00 +0.00    +0.156 C  
DOCKED: ATOM      7  C13 UNL     1       8.779  -5.299  -1.338 +0.00 +0.00    +0.038 C  
DOCKED: BRANCH   6  10
DOCKED: ATOM      8  C11 UNL     1      10.731  -4.885   1.289 +0.00 +0.00    +0.234 C  
DOCKED: ATOM      9  O3  UNL     1      10.088  -5.814   1.784 +0.00 -0.00    -0.274 OA 
DOCKED: ATOM     10  N2  UNL     1      10.806  -4.712  -0.082 +0.00 -0.00    -0.303 N  
DOCKED: ATOM     11  H21 UNL     1      11.678  -4.335  -0.433 +0.00 +0.00    +0.149 HD 
DOCKED: BRANCH   8  12
DOCKED: ATOM     12  C5  UNL     1      11.420  -3.802   2.164 +0.00 +0.00    +0.162 C  
DOCKED: BRANCH  12  13
DOCKED: ATOM     13  N1  UNL     1      12.832  -4.170   2.270 +0.00 -0.00    -0.270 N  
DOCKED: ATOM     14  C6  UNL     1      13.692  -4.154   1.220 +0.00 +0.00    +0.401 C  
DOCKED: ATOM     15  O1  UNL     1      13.380  -3.938   0.058 +0.00 -0.00    -0.226 OA 
DOCKED: ATOM     16  H11 UNL     1      13.266  -4.206   3.186 +0.00 +0.00    +0.153 HD 
DOCKED: BRANCH  14  17
DOCKED: ATOM     17  O2  UNL     1      14.936  -4.427   1.676 +0.00 -0.00    -0.445 OA 
DOCKED: BRANCH  17  18
DOCKED: ATOM     18  C7  UNL     1      15.992  -3.441   1.555 +0.00 +0.00    +0.107 C  
DOCKED: ATOM     19  C8  UNL     1      15.464  -2.030   1.847 +0.00 +0.00    +0.055 C  
DOCKED: ATOM     20  C9  UNL     1      16.691  -3.528   0.189 +0.00 +0.00    +0.055 C  
DOCKED: ATOM     21  C10 UNL     1      17.006  -3.827   2.641 +0.00 +0.00    +0.055 C  
DOCKED: ENDBRANCH  17  18
DOCKED: ENDBRANCH  14  17
DOCKED: ENDBRANCH  12  13
DOCKED: BRANCH  12  22
DOCKED: ATOM     22  C4  UNL     1      11.322  -2.355   1.652 +0.00 +0.00    +0.035 C  
DOCKED: BRANCH  22  24
DOCKED: ATOM     23  C1  UNL     1      11.965   0.098   1.957 +0.00 +0.00    +0.007 C  
DOCKED: ATOM     24  C2  UNL     1      12.243  -1.347   2.379 +0.00 -0.00    -0.015 C  
DOCKED: ATOM     25  C3  UNL     1      12.062  -1.472   3.897 +0.00 +0.00    +0.007 C  
DOCKED: ENDBRANCH  22  24
DOCKED: ENDBRANCH  12  22
DOCKED: ENDBRANCH   8  12
DOCKED: ENDBRANCH   6  10
DOCKED: ENDBRANCH   2   6
DOCKED: ENDBRANCH   1   4
DOCKED: BRANCH   1  26
DOCKED: ATOM     26  C16 UNL     1      13.364  -4.285  -3.765 +0.00 +0.00    +0.060 C  
DOCKED: BRANCH  26  27
DOCKED: ATOM     27  C17 UNL     1      13.268  -3.074  -2.866 +0.00 -0.00    -0.046 A  
DOCKED: ATOM     28  C18 UNL     1      14.432  -2.440  -2.401 +0.00 +0.00    +0.004 A  
DOCKED: ATOM     29  C19 UNL     1      14.345  -1.329  -1.562 +0.00 +0.00    +0.000 A  
DOCKED: ATOM     30  C20 UNL     1      13.097  -0.829  -1.191 +0.00 +0.00    +0.000 A  
DOCKED: ATOM     31  C21 UNL     1      11.937  -1.439  -1.662 +0.00 +0.00    +0.000 A  
DOCKED: ATOM     32  C22 UNL     1      12.018  -2.560  -2.493 +0.00 +0.00    +0.004 A  
DOCKED: ENDBRANCH  26  27
DOCKED: ENDBRANCH   1  26
DOCKED: BRANCH   1  33
DOCKED: ATOM     33  C23 UNL     1      14.797  -6.055  -2.538 +0.00 +0.00    +0.136 C  
DOCKED: BRANCH  33  34
DOCKED: ATOM     34  O5  UNL     1      14.978  -5.507  -1.224 +0.00 -0.00    -0.390 OA 
DOCKED: ATOM     35  H36 UNL     1      14.153  -5.650  -0.730 +0.00 +0.00    +0.210 HD 
DOCKED: ENDBRANCH  33  34
DOCKED: BRANCH  33  36
DOCKED: ATOM     36  C24 UNL     1      15.007  -7.576  -2.440 +0.00 +0.00    +0.045 C  
DOCKED: BRANCH  36  37
DOCKED: ATOM     37  C25 UNL     1      15.049  -8.171  -1.014 +0.00 +0.00    +0.074 C  
DOCKED: ATOM     38  C26 UNL     1      16.201  -7.623  -0.166 +0.00 +0.00    +0.017 C  
DOCKED: BRANCH  37  39
DOCKED: ATOM     39  C27 UNL     1      13.719  -7.890  -0.320 +0.00 +0.00    +0.217 C  
DOCKED: ATOM     40  O6  UNL     1      13.527  -6.899   0.381 +0.00 -0.00    -0.276 OA 
DOCKED: ATOM     41  N4  UNL     1      12.737  -8.812  -0.587 +0.00 -0.00    -0.304 N  
DOCKED: ATOM     42  H43 UNL     1      12.958  -9.680  -1.067 +0.00 +0.00    +0.149 HD 
DOCKED: BRANCH  41  43
DOCKED: ATOM     43  C28 UNL     1      11.380  -8.682  -0.055 +0.00 +0.00    +0.161 C  
DOCKED: BRANCH  43  44
DOCKED: ATOM     44  C29 UNL     1      11.447  -8.949   1.467 +0.00 +0.00    +0.234 C  
DOCKED: ATOM     45  O7  UNL     1      11.182 -10.052   1.946 +0.00 -0.00    -0.274 OA 
DOCKED: ATOM     46  N5  UNL     1      11.800  -7.857   2.230 +0.00 -0.00    -0.310 N  
DOCKED: ATOM     47  H45 UNL     1      11.922  -6.958   1.779 +0.00 +0.00    +0.149 HD 
DOCKED: BRANCH  46  48
DOCKED: ATOM     48  C30 UNL     1      11.716  -7.871   3.673 +0.00 +0.00    +0.139 C  
DOCKED: BRANCH  48  49
DOCKED: ATOM     49  C31 UNL     1      12.509  -6.732   4.255 +0.00 -0.00    -0.027 A  
DOCKED: ATOM     50  C32 UNL     1      11.856  -5.704   4.942 +0.00 +0.00    +0.025 A  
DOCKED: ATOM     51  C33 UNL     1      12.604  -4.637   5.418 +0.00 +0.00    +0.111 A  
DOCKED: ATOM     52  N6  UNL     1      13.945  -4.530   5.262 +0.00 -0.00    -0.263 NA 
DOCKED: ATOM     53  C34 UNL     1      14.556  -5.527   4.585 +0.00 +0.00    +0.111 A  
DOCKED: ATOM     54  C35 UNL     1      13.892  -6.632   4.070 +0.00 +0.00    +0.025 A  
DOCKED: ENDBRANCH  48  49
DOCKED: ENDBRANCH  46  48
DOCKED: ENDBRANCH  43  44
DOCKED: BRANCH  43  55
DOCKED: ATOM     55  C36 UNL     1      10.395  -9.610  -0.812 +0.00 +0.00    +0.012 C  
DOCKED: ATOM     56  C37 UNL     1       8.925  -9.257  -0.556 +0.00 +0.00    +0.009 C  
DOCKED: ATOM     57  C38 UNL     1      10.683  -9.675  -2.314 +0.00 +0.00    +0.009 C  
DOCKED: ENDBRANCH  43  55
DOCKED: ENDBRANCH  41  43
DOCKED: ENDBRANCH  37  39
DOCKED: ENDBRANCH  36  37
DOCKED: ENDBRANCH  33  36
DOCKED: ENDBRANCH   1  33
DOCKED: TORSDOF 21
DOCKED: TER
DOCKED: ENDMDL
________________________________________________________________________________


    CLUSTERING HISTOGRAM
    ____________________


________________________________________________________________________________
     |           |     |           |     |
Clus | Lowest    | Run | Mean      | Num | Histogram
-ter | Binding   |     | Binding   | in  |
Rank | Energy    |     | Energy    | Clus|    5    10   15   20   25   30   35
_____|___________|_____|___________|_____|____:____|____:____|____:____|____:___
   1 |     +6.26 |   1 |     +6.26 |   1 |#
   2 |     +6.26 |   2 |     +6.26 |   1 |#
   3 |     +6.26 |   3 |     +6.26 |   1 |#
   4 |     +6.26 |   4 |     +6.26 |   1 |#
   5 |     +6.26 |   5 |     +6.26 |   1 |#
   6 |     +6.26 |   6 |     +6.26 |   1 |#
   7 |     +6.26 |   7 |     +6.26 |   1 |#
   8 |     +6.26 |   8 |     +6.26 |   1 |#
   9 |     +6.26 |   9 |     +6.26 |   1 |#
  10 |     +6.26 |  10 |     +6.26 |   1 |#
  11 |     +6.26 |  11 |     +6.26 |   1 |#
  12 |     +6.26 |  12 |     +6.26 |   1 |#
  13 |     +6.26 |  13 |     +6.26 |   1 |#
  14 |     +6.26 |  14 |     +6.26 |   1 |#
  15 |     +6.26 |  15 |     +6.26 |   1 |#
  16 |     +6.26 |  16 |     +6.26 |   1 |#
  17 |     +6.26 |  17 |     +6.26 |   1 |#
  18 |     +6.26 |  18 |     +6.26 |   1 |#
  19 |     +6.26 |  19 |     +6.26 |   1 |#
  20 |     +6.26 |  20 |     +6.26 |   1 |#
_____|___________|_____|___________|_____|______________________________________


    RMSD TABLE
    __________


_______________________________________________________________________
     |      |      |           |         |                 |
Rank | Sub- | Run  | Binding   | Cluster | Reference       | Grep
     | Rank |      | Energy    | RMSD    | RMSD            | Pattern
_____|______|______|___________|_________|_________________|___________
   1      1      1       +6.26      0.00      8.54           RANKING
   2      1      2       +6.26      0.00      8.06           RANKING
   3      1      3       +6.26      0.00     12.04           RANKING
   4      1      4       +6.26      0.00     10.92           RANKING
   5      1      5       +6.26      0.00      8.34           RANKING
   6      1      6       +6.26      0.00      8.68           RANKING
   7      1      7       +6.26      0.00      7.01           RANKING
   8      1      8       +6.26      0.00     11.94           RANKING
   9      1      9       +6.26      0.00      9.10           RANKING
  10      1     10       +6.26      0.00      9.62           RANKING
  11      1     11       +6.26      0.00     10.90           RANKING
  12      1     12       +6.26      0.00      8.91           RANKING
  13      1     13       +6.26      0.00     10.93           RANKING
  14      1     14       +6.26      0.00      7.74           RANKING
  15      1     15       +6.26      0.00      9.16           RANKING
  16      1     16       +6.26      0.00      6.51           RANKING
  17      1     17       +6.26      0.00      6.56           RANKING
  18      1     18       +6.26      0.00      8.48           RANKING
  19      1     19       +6.26      0.00      9.36           RANKING
  20      1     20       +6.26      0.00     10.48           RANKING

Run time 30.044 sec
Idle time 0.476 sec
