AutoDock-GPU version: v1.6

**********************************************************
**    AutoDock-GPU AUTODOCKTOOLS-COMPATIBLE DLG FILE    **
**********************************************************


    DOCKING PARAMETERS
    ________________________


Ligand file:                               ligands/ligand_16.pdbqt
Grid fld file:                             protein.maps.fld

Random seed:                               1770972386, 26691
Number of runs:                            20
Number of energy evaluations:              11915671
Number of generations:                     42000
Size of population:                        150
Rate of crossover:                         80.000000%
Tournament selection probability limit:    60.000000%
Rate of mutation:                          2.000000%
Maximal allowed delta movement:            +/- 6.000000A
Maximal allowed delta angle:               +/- 90.000000

Rate of local search:                      100.000000%
Maximal number of local search iterations: 300
Rho lower bound:                           0.010000
Spread of local search delta movement:     2.000000A
Spread of local search delta angle:        74.999999
Limit of consecutive successes/failures:   4

Handle symmetry during clustering:         YES
RMSD tolerance:                            2.000000A

Program call in command line was:          ./autodock-gpu --ffile protein.maps.fld --lfile ligands/ligand_16.pdbqt --nrun 20 


    GRID PARAMETERS
    ________________________


Receptor name:                             #MACROMOLECULE
Number of grid points (x, y, z):           61, 61, 61
Grid center (x, y, z):                     10.261000, -3.492000, -0.127000A
Grid size (x, y, z):                       22.500000, 22.500000, 22.500000A
Grid spacing:                              0.375000A


    LIGAND PARAMETERS
    ________________________


Ligand name:                               ligands/ligand_16
Number of atoms:                           84
Number of rotatable bonds:                 36
Number of atom types:                      6


    DUMMY DATA (only for ADT-compatibility)
    ________________________


DPF> outlev 1
DPF> ga_run 20
DPF> fld protein.maps.fld
DPF> move ligands/ligand_16.pdbqt


    COUNTER STATES
    ________________________


Number of energy evaluations performed:    11930949
Number of generations used:                547


    INPUT LIGAND PDBQT FILE:
    ________________________


INPUT-LIGAND-PDBQT: REMARK  Name = ligands/ligand_16.pdb
INPUT-LIGAND-PDBQT: REMARK  41 active torsions:
INPUT-LIGAND-PDBQT: REMARK  status: ('A' for Active; 'I' for Inactive)
INPUT-LIGAND-PDBQT: REMARK    1  A    between atoms: C1_1  and  C2_2
INPUT-LIGAND-PDBQT: REMARK    2  A    between atoms: C2_2  and  C3_3
INPUT-LIGAND-PDBQT: REMARK    3  A    between atoms: C2_2  and  C4_4
INPUT-LIGAND-PDBQT: REMARK    4  A    between atoms: C4_4  and  N1_5
INPUT-LIGAND-PDBQT: REMARK    5  A    between atoms: C4_4  and  C10_15
INPUT-LIGAND-PDBQT: REMARK    6  A    between atoms: C5_6  and  C6_8
INPUT-LIGAND-PDBQT: REMARK    7  A    between atoms: C6_8  and  N2_9
INPUT-LIGAND-PDBQT: REMARK    8  A    between atoms: C6_8  and  C7_10
INPUT-LIGAND-PDBQT: REMARK    9  A    between atoms: C7_10  and  C8_11
INPUT-LIGAND-PDBQT: REMARK   10  A    between atoms: C8_11  and  C9_12
INPUT-LIGAND-PDBQT: REMARK   11  A    between atoms: C9_12  and  O3_14
INPUT-LIGAND-PDBQT: REMARK   12  A    between atoms: N3_17  and  C11_18
INPUT-LIGAND-PDBQT: REMARK   13  A    between atoms: C11_18  and  C12_19
INPUT-LIGAND-PDBQT: REMARK   14  A    between atoms: C11_18  and  C14_23
INPUT-LIGAND-PDBQT: REMARK   15  A    between atoms: C12_19  and  C13_20
INPUT-LIGAND-PDBQT: REMARK   16  A    between atoms: N5_25  and  C15_26
INPUT-LIGAND-PDBQT: REMARK   17  A    between atoms: C15_26  and  C16_27
INPUT-LIGAND-PDBQT: REMARK   18  A    between atoms: C15_26  and  C23_34
INPUT-LIGAND-PDBQT: REMARK   19  A    between atoms: C16_27  and  C17_28
INPUT-LIGAND-PDBQT: REMARK   20  A    between atoms: C23_34  and  O7_35
INPUT-LIGAND-PDBQT: REMARK   21  A    between atoms: C23_34  and  C24_36
INPUT-LIGAND-PDBQT: REMARK   22  A    between atoms: C24_36  and  C25_37
INPUT-LIGAND-PDBQT: REMARK   23  A    between atoms: C25_37  and  C26_38
INPUT-LIGAND-PDBQT: REMARK   24  A    between atoms: C25_37  and  C44_66
INPUT-LIGAND-PDBQT: REMARK   25  A    between atoms: N6_40  and  C27_41
INPUT-LIGAND-PDBQT: REMARK   26  A    between atoms: C27_41  and  C28_42
INPUT-LIGAND-PDBQT: REMARK   27  A    between atoms: C27_41  and  C29_43
INPUT-LIGAND-PDBQT: REMARK   28  A    between atoms: N7_45  and  C30_46
INPUT-LIGAND-PDBQT: REMARK   29  A    between atoms: C30_46  and  C31_47
INPUT-LIGAND-PDBQT: REMARK   30  A    between atoms: C30_46  and  C34_52
INPUT-LIGAND-PDBQT: REMARK   31  A    between atoms: C31_47  and  C32_48
INPUT-LIGAND-PDBQT: REMARK   32  A    between atoms: C32_48  and  C33_49
INPUT-LIGAND-PDBQT: REMARK   33  A    between atoms: C33_49  and  O11_51
INPUT-LIGAND-PDBQT: REMARK   34  A    between atoms: N8_54  and  C35_55
INPUT-LIGAND-PDBQT: REMARK   35  A    between atoms: C35_55  and  C36_56
INPUT-LIGAND-PDBQT: REMARK   36  A    between atoms: C35_55  and  C43_63
INPUT-LIGAND-PDBQT: REMARK   37  A    between atoms: C36_56  and  C37_57
INPUT-LIGAND-PDBQT: REMARK   38  A    between atoms: C43_63  and  O14_65
INPUT-LIGAND-PDBQT: REMARK   39  A    between atoms: C44_66  and  C45_67
INPUT-LIGAND-PDBQT: REMARK   40  A    between atoms: C44_66  and  C46_68
INPUT-LIGAND-PDBQT: REMARK   41  A    between atoms: C44_66  and  O15_69
INPUT-LIGAND-PDBQT: REMARK                            x       y       z     vdW  Elec       q    Type
INPUT-LIGAND-PDBQT: REMARK                         _______ _______ _______ _____ _____    ______ ____
INPUT-LIGAND-PDBQT: ROOT
INPUT-LIGAND-PDBQT: ATOM      1  C23 UNL     1      -1.217  -1.609   4.305  0.00  0.00    +0.135 C 
INPUT-LIGAND-PDBQT: ENDROOT
INPUT-LIGAND-PDBQT: BRANCH   1   2
INPUT-LIGAND-PDBQT: ATOM      2  O7  UNL     1      -0.144  -2.545   4.377  0.00  0.00    -0.390 OA
INPUT-LIGAND-PDBQT: ATOM      3  H40 UNL     1      -0.268  -3.166   3.640  0.00  0.00    +0.210 HD
INPUT-LIGAND-PDBQT: ENDBRANCH   1   2
INPUT-LIGAND-PDBQT: BRANCH   1   4
INPUT-LIGAND-PDBQT: ATOM      4  C24 UNL     1      -0.690  -0.246   4.800  0.00  0.00    +0.048 C 
INPUT-LIGAND-PDBQT: BRANCH   4   5
INPUT-LIGAND-PDBQT: ATOM      5  C25 UNL     1       0.714   0.307   4.423  0.00  0.00    +0.108 C 
INPUT-LIGAND-PDBQT: BRANCH   5   6
INPUT-LIGAND-PDBQT: ATOM      6  C26 UNL     1       0.760   0.946   3.029  0.00  0.00    +0.220 C 
INPUT-LIGAND-PDBQT: ATOM      7  O8  UNL     1       0.725   2.169   2.908  0.00  0.00    -0.275 OA
INPUT-LIGAND-PDBQT: ATOM      8  N6  UNL     1       0.840   0.093   1.963  0.00  0.00    -0.304 N 
INPUT-LIGAND-PDBQT: ATOM      9  H44 UNL     1       0.725  -0.905   2.135  0.00  0.00    +0.149 HD
INPUT-LIGAND-PDBQT: BRANCH   8  10
INPUT-LIGAND-PDBQT: ATOM     10  C27 UNL     1       0.768   0.481   0.553  0.00  0.00    +0.156 C 
INPUT-LIGAND-PDBQT: ATOM     11  C28 UNL     1       1.550   1.729   0.166  0.00  0.00    +0.038 C 
INPUT-LIGAND-PDBQT: BRANCH  10  12
INPUT-LIGAND-PDBQT: ATOM     12  C29 UNL     1      -0.693   0.579   0.054  0.00  0.00    +0.234 C 
INPUT-LIGAND-PDBQT: ATOM     13  O9  UNL     1      -1.619   1.030   0.727  0.00  0.00    -0.274 OA
INPUT-LIGAND-PDBQT: ATOM     14  N7  UNL     1      -0.887   0.127  -1.240  0.00  0.00    -0.302 N 
INPUT-LIGAND-PDBQT: ATOM     15  H49 UNL     1      -0.227  -0.566  -1.595  0.00  0.00    +0.150 HD
INPUT-LIGAND-PDBQT: BRANCH  14  16
INPUT-LIGAND-PDBQT: ATOM     16  C30 UNL     1      -2.232   0.098  -1.819  0.00  0.00    +0.159 C 
INPUT-LIGAND-PDBQT: BRANCH  16  17
INPUT-LIGAND-PDBQT: ATOM     17  C34 UNL     1      -2.067   0.204  -3.347  0.00  0.00    +0.234 C 
INPUT-LIGAND-PDBQT: ATOM     18  O12 UNL     1      -1.928  -0.774  -4.078  0.00  0.00    -0.274 OA
INPUT-LIGAND-PDBQT: ATOM     19  N8  UNL     1      -2.011   1.493  -3.819  0.00  0.00    -0.301 N 
INPUT-LIGAND-PDBQT: ATOM     20  H56 UNL     1      -2.194   2.269  -3.184  0.00  0.00    +0.150 HD
INPUT-LIGAND-PDBQT: BRANCH  19  21
INPUT-LIGAND-PDBQT: ATOM     21  C35 UNL     1      -2.077   1.794  -5.251  0.00  0.00    +0.186 C 
INPUT-LIGAND-PDBQT: BRANCH  21  22
INPUT-LIGAND-PDBQT: ATOM     22  C43 UNL     1      -2.710   3.172  -5.430  0.00  0.00    +0.326 C 
INPUT-LIGAND-PDBQT: ATOM     23  O13 UNL     1      -3.030   3.940  -4.533  0.00  0.00    -0.249 OA
INPUT-LIGAND-PDBQT: BRANCH  22  24
INPUT-LIGAND-PDBQT: ATOM     24  O14 UNL     1      -2.951   3.495  -6.718  0.00  0.00    -0.479 OA
INPUT-LIGAND-PDBQT: ATOM     25  H65 UNL     1      -3.372   4.379  -6.655  0.00  0.00    +0.295 HD
INPUT-LIGAND-PDBQT: ENDBRANCH  22  24
INPUT-LIGAND-PDBQT: ENDBRANCH  21  22
INPUT-LIGAND-PDBQT: BRANCH  21  26
INPUT-LIGAND-PDBQT: ATOM     26  C36 UNL     1      -0.723   1.676  -5.967  0.00  0.00    +0.069 C 
INPUT-LIGAND-PDBQT: BRANCH  26  27
INPUT-LIGAND-PDBQT: ATOM     27  C37 UNL     1       0.307   2.707  -5.563  0.00  0.00    -0.045 A 
INPUT-LIGAND-PDBQT: ATOM     28  C38 UNL     1       1.041   2.552  -4.380  0.00  0.00    +0.004 A 
INPUT-LIGAND-PDBQT: ATOM     29  C39 UNL     1       1.997   3.496  -4.007  0.00  0.00    +0.000 A 
INPUT-LIGAND-PDBQT: ATOM     30  C40 UNL     1       2.228   4.610  -4.810  0.00  0.00    +0.000 A 
INPUT-LIGAND-PDBQT: ATOM     31  C41 UNL     1       1.503   4.778  -5.988  0.00  0.00    +0.000 A 
INPUT-LIGAND-PDBQT: ATOM     32  C42 UNL     1       0.547   3.832  -6.364  0.00  0.00    +0.004 A 
INPUT-LIGAND-PDBQT: ENDBRANCH  26  27
INPUT-LIGAND-PDBQT: ENDBRANCH  21  26
INPUT-LIGAND-PDBQT: ENDBRANCH  19  21
INPUT-LIGAND-PDBQT: ENDBRANCH  16  17
INPUT-LIGAND-PDBQT: BRANCH  16  33
INPUT-LIGAND-PDBQT: ATOM     33  C31 UNL     1      -2.966  -1.187  -1.395  0.00  0.00    +0.043 C 
INPUT-LIGAND-PDBQT: BRANCH  33  34
INPUT-LIGAND-PDBQT: ATOM     34  C32 UNL     1      -4.477  -1.126  -1.600  0.00  0.00    +0.123 C 
INPUT-LIGAND-PDBQT: BRANCH  34  35
INPUT-LIGAND-PDBQT: ATOM     35  C33 UNL     1      -4.856  -1.164  -3.051  0.00  0.00    +0.305 C 
INPUT-LIGAND-PDBQT: ATOM     36  O10 UNL     1      -5.144  -0.198  -3.738  0.00  0.00    -0.251 OA
INPUT-LIGAND-PDBQT: BRANCH  35  37
INPUT-LIGAND-PDBQT: ATOM     37  O11 UNL     1      -4.799  -2.402  -3.573  0.00  0.00    -0.481 OA
INPUT-LIGAND-PDBQT: ATOM     38  H55 UNL     1      -4.934  -2.265  -4.534  0.00  0.00    +0.295 HD
INPUT-LIGAND-PDBQT: ENDBRANCH  35  37
INPUT-LIGAND-PDBQT: ENDBRANCH  34  35
INPUT-LIGAND-PDBQT: ENDBRANCH  33  34
INPUT-LIGAND-PDBQT: ENDBRANCH  16  33
INPUT-LIGAND-PDBQT: ENDBRANCH  14  16
INPUT-LIGAND-PDBQT: ENDBRANCH  10  12
INPUT-LIGAND-PDBQT: ENDBRANCH   8  10
INPUT-LIGAND-PDBQT: ENDBRANCH   5   6
INPUT-LIGAND-PDBQT: BRANCH   5  39
INPUT-LIGAND-PDBQT: ATOM     39  C44 UNL     1       1.994  -0.472   4.875  0.00  0.00    +0.072 C 
INPUT-LIGAND-PDBQT: ATOM     40  C45 UNL     1       3.009   0.513   5.484  0.00  0.00    +0.042 C 
INPUT-LIGAND-PDBQT: ATOM     41  C46 UNL     1       2.741  -1.278   3.806  0.00  0.00    +0.042 C 
INPUT-LIGAND-PDBQT: BRANCH  39  42
INPUT-LIGAND-PDBQT: ATOM     42  O15 UNL     1       1.660  -1.391   5.926  0.00  0.00    -0.388 OA
INPUT-LIGAND-PDBQT: ATOM     43  H72 UNL     1       1.052  -2.048   5.522  0.00  0.00    +0.210 HD
INPUT-LIGAND-PDBQT: ENDBRANCH  39  42
INPUT-LIGAND-PDBQT: ENDBRANCH   5  39
INPUT-LIGAND-PDBQT: ENDBRANCH   4   5
INPUT-LIGAND-PDBQT: ENDBRANCH   1   4
INPUT-LIGAND-PDBQT: BRANCH   1  44
INPUT-LIGAND-PDBQT: ATOM     44  C15 UNL     1      -1.970  -1.570   2.930  0.00  0.00    +0.102 C 
INPUT-LIGAND-PDBQT: BRANCH  44  47
INPUT-LIGAND-PDBQT: ATOM     45  C14 UNL     1      -0.691  -3.103   1.402  0.00  0.00    +0.234 C 
INPUT-LIGAND-PDBQT: ATOM     46  O6  UNL     1       0.388  -2.597   1.715  0.00  0.00    -0.274 OA
INPUT-LIGAND-PDBQT: ATOM     47  N5  UNL     1      -1.830  -2.808   2.116  0.00  0.00    -0.308 N 
INPUT-LIGAND-PDBQT: ATOM     48  H24 UNL     1      -2.694  -3.088   1.644  0.00  0.00    +0.149 HD
INPUT-LIGAND-PDBQT: BRANCH  45  49
INPUT-LIGAND-PDBQT: ATOM     49  C11 UNL     1      -0.833  -4.071   0.195  0.00  0.00    +0.168 C 
INPUT-LIGAND-PDBQT: BRANCH  49  52
INPUT-LIGAND-PDBQT: ATOM     50  C10 UNL     1       1.230  -3.441  -1.037  0.00  0.00    +0.234 C 
INPUT-LIGAND-PDBQT: ATOM     51  O4  UNL     1       0.717  -2.376  -1.398  0.00  0.00    -0.274 OA
INPUT-LIGAND-PDBQT: ATOM     52  N3  UNL     1       0.522  -4.372  -0.301  0.00  0.00    -0.302 N 
INPUT-LIGAND-PDBQT: ATOM     53  H18 UNL     1       1.075  -4.970   0.294  0.00  0.00    +0.150 HD
INPUT-LIGAND-PDBQT: BRANCH  50  54
INPUT-LIGAND-PDBQT: ATOM     54  C4  UNL     1       2.685  -3.849  -1.439  0.00  0.00    +0.161 C 
INPUT-LIGAND-PDBQT: BRANCH  54  55
INPUT-LIGAND-PDBQT: ATOM     55  N1  UNL     1       3.300  -2.645  -2.003  0.00  0.00    -0.302 N 
INPUT-LIGAND-PDBQT: ATOM     56  C5  UNL     1       3.319  -2.414  -3.366  0.00  0.00    +0.230 C 
INPUT-LIGAND-PDBQT: ATOM     57  O1  UNL     1       3.120  -3.290  -4.201  0.00  0.00    -0.274 OA
INPUT-LIGAND-PDBQT: ATOM     58  H9  UNL     1       3.279  -1.817  -1.422  0.00  0.00    +0.150 HD
INPUT-LIGAND-PDBQT: BRANCH  56  59
INPUT-LIGAND-PDBQT: ATOM     59  C6  UNL     1       3.648  -0.952  -3.743  0.00  0.00    +0.138 C 
INPUT-LIGAND-PDBQT: BRANCH  59  60
INPUT-LIGAND-PDBQT: ATOM     60  N2  UNL     1       2.880  -0.040  -2.872  0.00  0.00    -0.320 NA
INPUT-LIGAND-PDBQT: ATOM     61  H11 UNL     1       3.362   0.119  -1.986  0.00  0.00    +0.119 HD
INPUT-LIGAND-PDBQT: ATOM     62  H12 UNL     1       1.964  -0.450  -2.684  0.00  0.00    +0.119 HD
INPUT-LIGAND-PDBQT: ENDBRANCH  59  60
INPUT-LIGAND-PDBQT: BRANCH  59  63
INPUT-LIGAND-PDBQT: ATOM     63  C7  UNL     1       5.164  -0.722  -3.648  0.00  0.00    +0.039 C 
INPUT-LIGAND-PDBQT: BRANCH  63  64
INPUT-LIGAND-PDBQT: ATOM     64  C8  UNL     1       5.589   0.735  -3.849  0.00  0.00    +0.122 C 
INPUT-LIGAND-PDBQT: BRANCH  64  65
INPUT-LIGAND-PDBQT: ATOM     65  C9  UNL     1       5.466   1.545  -2.584  0.00  0.00    +0.305 C 
INPUT-LIGAND-PDBQT: ATOM     66  O2  UNL     1       5.111   1.149  -1.484  0.00  0.00    -0.251 OA
INPUT-LIGAND-PDBQT: BRANCH  65  67
INPUT-LIGAND-PDBQT: ATOM     67  O3  UNL     1       5.822   2.831  -2.770  0.00  0.00    -0.481 OA
INPUT-LIGAND-PDBQT: ATOM     68  H17 UNL     1       5.692   3.252  -1.896  0.00  0.00    +0.295 HD
INPUT-LIGAND-PDBQT: ENDBRANCH  65  67
INPUT-LIGAND-PDBQT: ENDBRANCH  64  65
INPUT-LIGAND-PDBQT: ENDBRANCH  63  64
INPUT-LIGAND-PDBQT: ENDBRANCH  59  63
INPUT-LIGAND-PDBQT: ENDBRANCH  56  59
INPUT-LIGAND-PDBQT: ENDBRANCH  54  55
INPUT-LIGAND-PDBQT: BRANCH  54  70
INPUT-LIGAND-PDBQT: ATOM     69  C1  UNL     1       3.503  -5.922  -0.158  0.00  0.00    +0.009 C 
INPUT-LIGAND-PDBQT: ATOM     70  C2  UNL     1       3.633  -4.407  -0.350  0.00  0.00    +0.012 C 
INPUT-LIGAND-PDBQT: ATOM     71  C3  UNL     1       3.554  -3.676   0.990  0.00  0.00    +0.009 C 
INPUT-LIGAND-PDBQT: ENDBRANCH  54  70
INPUT-LIGAND-PDBQT: ENDBRANCH  50  54
INPUT-LIGAND-PDBQT: ENDBRANCH  49  52
INPUT-LIGAND-PDBQT: BRANCH  49  72
INPUT-LIGAND-PDBQT: ATOM     72  C12 UNL     1      -1.526  -5.385   0.561  0.00  0.00    +0.127 C 
INPUT-LIGAND-PDBQT: BRANCH  72  73
INPUT-LIGAND-PDBQT: ATOM     73  C13 UNL     1      -3.030  -5.245   0.541  0.00  0.00    +0.213 C 
INPUT-LIGAND-PDBQT: ATOM     74  N4  UNL     1      -3.719  -6.420   0.548  0.00  0.00    -0.329 N 
INPUT-LIGAND-PDBQT: ATOM     75  O5  UNL     1      -3.610  -4.167   0.594  0.00  0.00    -0.276 OA
INPUT-LIGAND-PDBQT: ATOM     76  H22 UNL     1      -4.729  -6.370   0.493  0.00  0.00    +0.145 HD
INPUT-LIGAND-PDBQT: ATOM     77  H23 UNL     1      -3.287  -7.316   0.360  0.00  0.00    +0.145 HD
INPUT-LIGAND-PDBQT: ENDBRANCH  72  73
INPUT-LIGAND-PDBQT: ENDBRANCH  49  72
INPUT-LIGAND-PDBQT: ENDBRANCH  45  49
INPUT-LIGAND-PDBQT: ENDBRANCH  44  47
INPUT-LIGAND-PDBQT: BRANCH  44  78
INPUT-LIGAND-PDBQT: ATOM     78  C16 UNL     1      -3.495  -1.280   3.055  0.00  0.00    +0.028 C 
INPUT-LIGAND-PDBQT: BRANCH  78  79
INPUT-LIGAND-PDBQT: ATOM     79  C17 UNL     1      -3.907   0.125   3.537  0.00  0.00    -0.009 C 
INPUT-LIGAND-PDBQT: ATOM     80  C18 UNL     1      -5.178   0.599   2.789  0.00  0.00    +0.003 C 
INPUT-LIGAND-PDBQT: ATOM     81  C19 UNL     1      -5.935   1.726   3.502  0.00  0.00    +0.000 C 
INPUT-LIGAND-PDBQT: ATOM     82  C20 UNL     1      -5.042   2.515   4.448  0.00  0.00    +0.000 C 
INPUT-LIGAND-PDBQT: ATOM     83  C21 UNL     1      -4.424   1.618   5.521  0.00  0.00    +0.000 C 
INPUT-LIGAND-PDBQT: ATOM     84  C22 UNL     1      -4.179   0.182   5.047  0.00  0.00    +0.003 C 
INPUT-LIGAND-PDBQT: ENDBRANCH  78  79
INPUT-LIGAND-PDBQT: ENDBRANCH  44  78
INPUT-LIGAND-PDBQT: ENDBRANCH   1  44
INPUT-LIGAND-PDBQT: TORSDOF 36


    FINAL DOCKED STATE:
    ________________________


Run:   1 / 20
Time taken for this run:   7.574s

DOCKED: MODEL        1
DOCKED: USER    Run = 1
DOCKED: USER
DOCKED: USER    Estimated Free Energy of Binding    = +10.74 kcal/mol  [=(1)+(2)+(3)-(4)]
DOCKED: USER
DOCKED: USER    (1) Final Intermolecular Energy     =  +0.00 kcal/mol
DOCKED: USER        vdW + Hbond + desolv Energy     =  +0.00 kcal/mol
DOCKED: USER        Electrostatic Energy            =  +0.00 kcal/mol
DOCKED: USER        Moving Ligand-Fixed Receptor    =  +0.00 kcal/mol
DOCKED: USER        Moving Ligand-Moving Receptor   =  +0.00 kcal/mol
DOCKED: USER    (2) Final Total Internal Energy     = -32.86 kcal/mol
DOCKED: USER    (3) Torsional Free Energy           = +10.74 kcal/mol
DOCKED: USER    (4) Unbound System's Energy         = -32.86 kcal/mol
DOCKED: USER
DOCKED: USER
DOCKED: REMARK  Name = ligands/ligand_16.pdb
DOCKED: REMARK  41 active torsions:
DOCKED: REMARK  status: ('A' for Active; 'I' for Inactive)
DOCKED: REMARK    1  A    between atoms: C1_1  and  C2_2
DOCKED: REMARK    2  A    between atoms: C2_2  and  C3_3
DOCKED: REMARK    3  A    between atoms: C2_2  and  C4_4
DOCKED: REMARK    4  A    between atoms: C4_4  and  N1_5
DOCKED: REMARK    5  A    between atoms: C4_4  and  C10_15
DOCKED: REMARK    6  A    between atoms: C5_6  and  C6_8
DOCKED: REMARK    7  A    between atoms: C6_8  and  N2_9
DOCKED: REMARK    8  A    between atoms: C6_8  and  C7_10
DOCKED: REMARK    9  A    between atoms: C7_10  and  C8_11
DOCKED: REMARK   10  A    between atoms: C8_11  and  C9_12
DOCKED: REMARK   11  A    between atoms: C9_12  and  O3_14
DOCKED: REMARK   12  A    between atoms: N3_17  and  C11_18
DOCKED: REMARK   13  A    between atoms: C11_18  and  C12_19
DOCKED: REMARK   14  A    between atoms: C11_18  and  C14_23
DOCKED: REMARK   15  A    between atoms: C12_19  and  C13_20
DOCKED: REMARK   16  A    between atoms: N5_25  and  C15_26
DOCKED: REMARK   17  A    between atoms: C15_26  and  C16_27
DOCKED: REMARK   18  A    between atoms: C15_26  and  C23_34
DOCKED: REMARK   19  A    between atoms: C16_27  and  C17_28
DOCKED: REMARK   20  A    between atoms: C23_34  and  O7_35
DOCKED: REMARK   21  A    between atoms: C23_34  and  C24_36
DOCKED: REMARK   22  A    between atoms: C24_36  and  C25_37
DOCKED: REMARK   23  A    between atoms: C25_37  and  C26_38
DOCKED: REMARK   24  A    between atoms: C25_37  and  C44_66
DOCKED: REMARK   25  A    between atoms: N6_40  and  C27_41
DOCKED: REMARK   26  A    between atoms: C27_41  and  C28_42
DOCKED: REMARK   27  A    between atoms: C27_41  and  C29_43
DOCKED: REMARK   28  A    between atoms: N7_45  and  C30_46
DOCKED: REMARK   29  A    between atoms: C30_46  and  C31_47
DOCKED: REMARK   30  A    between atoms: C30_46  and  C34_52
DOCKED: REMARK   31  A    between atoms: C31_47  and  C32_48
DOCKED: REMARK   32  A    between atoms: C32_48  and  C33_49
DOCKED: REMARK   33  A    between atoms: C33_49  and  O11_51
DOCKED: REMARK   34  A    between atoms: N8_54  and  C35_55
DOCKED: REMARK   35  A    between atoms: C35_55  and  C36_56
DOCKED: REMARK   36  A    between atoms: C35_55  and  C43_63
DOCKED: REMARK   37  A    between atoms: C36_56  and  C37_57
DOCKED: REMARK   38  A    between atoms: C43_63  and  O14_65
DOCKED: REMARK   39  A    between atoms: C44_66  and  C45_67
DOCKED: REMARK   40  A    between atoms: C44_66  and  C46_68
DOCKED: REMARK   41  A    between atoms: C44_66  and  O15_69
DOCKED: REMARK                            x       y       z     vdW  Elec       q    Type
DOCKED: REMARK                         _______ _______ _______ _____ _____    ______ ____
DOCKED: USER                              x       y       z     vdW  Elec       q    Type
DOCKED: USER                           _______ _______ _______ _____ _____    ______ ____
DOCKED: ROOT
DOCKED: ATOM      1  C23 UNL     1       9.184  -0.305   1.499 +0.00 +0.00    +0.135 C  
DOCKED: ENDROOT
DOCKED: BRANCH   1   2
DOCKED: ATOM      2  O7  UNL     1      10.443  -0.950   1.322 +0.00 -0.00    -0.390 OA 
DOCKED: ATOM      3  H40 UNL     1      10.882  -0.502   0.580 +0.00 +0.00    +0.210 HD 
DOCKED: ENDBRANCH   1   2
DOCKED: BRANCH   1   4
DOCKED: ATOM      4  C24 UNL     1       9.447   1.090   2.102 +0.00 +0.00    +0.048 C  
DOCKED: BRANCH   4   5
DOCKED: ATOM      5  C25 UNL     1      10.798   1.843   1.937 +0.00 +0.00    +0.108 C  
DOCKED: BRANCH   5   6
DOCKED: ATOM      6  C26 UNL     1      10.909   2.604   0.609 +0.00 +0.00    +0.220 C  
DOCKED: ATOM      7  O8  UNL     1      11.836   2.368  -0.163 +0.00 -0.00    -0.275 OA 
DOCKED: ATOM      8  N6  UNL     1       9.941   3.534   0.350 +0.00 -0.00    -0.304 N  
DOCKED: ATOM      9  H44 UNL     1       9.288   3.771   1.096 +0.00 +0.00    +0.149 HD 
DOCKED: BRANCH   8  10
DOCKED: ATOM     10  C27 UNL     1       9.926   4.455  -0.788 +0.00 +0.00    +0.156 C  
DOCKED: ATOM     11  C28 UNL     1       8.969   5.635  -0.677 +0.00 +0.00    +0.038 C  
DOCKED: BRANCH  10  12
DOCKED: ATOM     12  C29 UNL     1       9.720   3.713  -2.130 +0.00 +0.00    +0.234 C  
DOCKED: ATOM     13  O9  UNL     1       8.749   3.884  -2.866 +0.00 -0.00    -0.274 OA 
DOCKED: ATOM     14  N7  UNL     1      10.737   2.834  -2.459 +0.00 -0.00    -0.302 N  
DOCKED: ATOM     15  H49 UNL     1      11.282   2.443  -1.690 +0.00 +0.00    +0.150 HD 
DOCKED: BRANCH  14  16
DOCKED: ATOM     16  C30 UNL     1      10.641   2.013  -3.669 +0.00 +0.00    +0.159 C  
DOCKED: BRANCH  16  17
DOCKED: ATOM     17  C34 UNL     1      12.065   1.520  -3.992 +0.00 +0.00    +0.234 C  
DOCKED: ATOM     18  O12 UNL     1      12.516   1.469  -5.134 +0.00 -0.00    -0.274 OA 
DOCKED: ATOM     19  N8  UNL     1      12.765   1.068  -2.900 +0.00 -0.00    -0.301 N  
DOCKED: ATOM     20  H56 UNL     1      12.374   1.189  -1.967 +0.00 +0.00    +0.150 HD 
DOCKED: BRANCH  19  21
DOCKED: ATOM     21  C35 UNL     1      14.197   0.768  -2.972 +0.00 +0.00    +0.186 C  
DOCKED: BRANCH  21  22
DOCKED: ATOM     22  C43 UNL     1      14.635   0.162  -1.640 +0.00 +0.00    +0.326 C  
DOCKED: ATOM     23  O13 UNL     1      15.781  -0.121  -1.320 +0.00 -0.00    -0.249 OA 
DOCKED: BRANCH  22  24
DOCKED: ATOM     24  O14 UNL     1      13.611  -0.100  -0.801 +0.00 -0.00    -0.479 OA 
DOCKED: ATOM     25  H65 UNL     1      13.243   0.789  -0.608 +0.00 +0.00    +0.295 HD 
DOCKED: ENDBRANCH  22  24
DOCKED: ENDBRANCH  21  22
DOCKED: BRANCH  21  26
DOCKED: ATOM     26  C36 UNL     1      14.581  -0.114  -4.169 +0.00 +0.00    +0.069 C  
DOCKED: BRANCH  26  27
DOCKED: ATOM     27  C37 UNL     1      13.562  -1.167  -4.542 +0.00 -0.00    -0.045 A  
DOCKED: ATOM     28  C38 UNL     1      13.052  -1.233  -5.845 +0.00 +0.00    +0.004 A  
DOCKED: ATOM     29  C39 UNL     1      12.117  -2.206  -6.196 +0.00 +0.00    +0.000 A  
DOCKED: ATOM     30  C40 UNL     1      11.677  -3.124  -5.246 +0.00 +0.00    +0.000 A  
DOCKED: ATOM     31  C41 UNL     1      12.173  -3.069  -3.945 +0.00 +0.00    +0.000 A  
DOCKED: ATOM     32  C42 UNL     1      13.111  -2.096  -3.593 +0.00 +0.00    +0.004 A  
DOCKED: ENDBRANCH  26  27
DOCKED: ENDBRANCH  21  26
DOCKED: ENDBRANCH  19  21
DOCKED: ENDBRANCH  16  17
DOCKED: BRANCH  16  33
DOCKED: ATOM     33  C31 UNL     1       9.654   0.853  -3.448 +0.00 +0.00    +0.043 C  
DOCKED: BRANCH  33  34
DOCKED: ATOM     34  C32 UNL     1      10.332  -0.488  -3.184 +0.00 +0.00    +0.123 C  
DOCKED: BRANCH  34  35
DOCKED: ATOM     35  C33 UNL     1      10.590  -0.717  -1.724 +0.00 +0.00    +0.305 C  
DOCKED: ATOM     36  O10 UNL     1      10.351  -1.743  -1.110 +0.00 -0.00    -0.251 OA 
DOCKED: BRANCH  35  37
DOCKED: ATOM     37  O11 UNL     1      11.184   0.333  -1.128 +0.00 -0.00    -0.481 OA 
DOCKED: ATOM     38  H55 UNL     1      11.697  -0.065  -0.394 +0.00 +0.00    +0.295 HD 
DOCKED: ENDBRANCH  35  37
DOCKED: ENDBRANCH  34  35
DOCKED: ENDBRANCH  33  34
DOCKED: ENDBRANCH  16  33
DOCKED: ENDBRANCH  14  16
DOCKED: ENDBRANCH  10  12
DOCKED: ENDBRANCH   8  10
DOCKED: ENDBRANCH   5   6
DOCKED: BRANCH   5  39
DOCKED: ATOM     39  C44 UNL     1      12.113   1.190   2.478 +0.00 +0.00    +0.072 C  
DOCKED: ATOM     40  C45 UNL     1      11.778   0.253   3.653 +0.00 +0.00    +0.042 C  
DOCKED: ATOM     41  C46 UNL     1      13.219   2.135   2.963 +0.00 +0.00    +0.042 C  
DOCKED: BRANCH  39  42
DOCKED: ATOM     42  O15 UNL     1      12.697   0.357   1.466 +0.00 -0.00    -0.388 OA 
DOCKED: ATOM     43  H72 UNL     1      12.058   0.355   0.721 +0.00 +0.00    +0.210 HD 
DOCKED: ENDBRANCH  39  42
DOCKED: ENDBRANCH   5  39
DOCKED: ENDBRANCH   4   5
DOCKED: ENDBRANCH   1   4
DOCKED: BRANCH   1  44
DOCKED: ATOM     44  C15 UNL     1       8.251  -0.318   0.238 +0.00 +0.00    +0.102 C  
DOCKED: BRANCH  44  47
DOCKED: ATOM     45  C14 UNL     1       7.356  -2.565   0.923 +0.00 +0.00    +0.234 C  
DOCKED: ATOM     46  O6  UNL     1       7.220  -2.210   2.095 +0.00 -0.00    -0.274 OA 
DOCKED: ATOM     47  N5  UNL     1       7.632  -1.639  -0.056 +0.00 -0.00    -0.308 N  
DOCKED: ATOM     48  H24 UNL     1       7.951  -2.054  -0.936 +0.00 +0.00    +0.149 HD 
DOCKED: BRANCH  45  49
DOCKED: ATOM     49  C11 UNL     1       7.246  -4.054   0.491 +0.00 +0.00    +0.168 C  
DOCKED: BRANCH  49  52
DOCKED: ATOM     50  C10 UNL     1       8.938  -4.201  -1.322 +0.00 +0.00    +0.234 C  
DOCKED: ATOM     51  O4  UNL     1       8.148  -3.703  -2.131 +0.00 -0.00    -0.274 OA 
DOCKED: ATOM     52  N3  UNL     1       8.565  -4.472  -0.019 +0.00 -0.00    -0.302 N  
DOCKED: ATOM     53  H18 UNL     1       9.311  -4.464   0.660 +0.00 +0.00    +0.150 HD 
DOCKED: BRANCH  50  54
DOCKED: ATOM     54  C4  UNL     1      10.390  -4.626  -1.720 +0.00 +0.00    +0.161 C  
DOCKED: BRANCH  54  55
DOCKED: ATOM     55  N1  UNL     1      11.265  -4.105  -0.667 +0.00 -0.00    -0.302 N  
DOCKED: ATOM     56  C5  UNL     1      12.624  -3.949  -0.869 +0.00 +0.00    +0.230 C  
DOCKED: ATOM     57  O1  UNL     1      13.237  -4.496  -1.780 +0.00 -0.00    -0.274 OA 
DOCKED: ATOM     58  H9  UNL     1      10.845  -3.455  -0.016 +0.00 +0.00    +0.150 HD 
DOCKED: BRANCH  56  59
DOCKED: ATOM     59  C6  UNL     1      13.308  -3.046   0.182 +0.00 +0.00    +0.138 C  
DOCKED: BRANCH  59  60
DOCKED: ATOM     60  N2  UNL     1      12.419  -1.911   0.500 +0.00 -0.00    -0.320 NA 
DOCKED: ATOM     61  H11 UNL     1      11.464  -2.226   0.676 +0.00 +0.00    +0.119 HD 
DOCKED: ATOM     62  H12 UNL     1      12.416  -1.259  -0.286 +0.00 +0.00    +0.119 HD 
DOCKED: ENDBRANCH  59  60
DOCKED: BRANCH  59  63
DOCKED: ATOM     63  C7  UNL     1      13.669  -3.878   1.422 +0.00 +0.00    +0.039 C  
DOCKED: BRANCH  63  64
DOCKED: ATOM     64  C8  UNL     1      12.681  -3.732   2.582 +0.00 +0.00    +0.122 C  
DOCKED: BRANCH  64  65
DOCKED: ATOM     65  C9  UNL     1      11.261  -4.014   2.162 +0.00 +0.00    +0.305 C  
DOCKED: ATOM     66  O2  UNL     1      10.337  -3.218   2.098 +0.00 -0.00    -0.251 OA 
DOCKED: BRANCH  65  67
DOCKED: ATOM     67  O3  UNL     1      11.082  -5.305   1.819 +0.00 -0.00    -0.481 OA 
DOCKED: ATOM     68  H17 UNL     1      10.337  -5.607   2.376 +0.00 +0.00    +0.295 HD 
DOCKED: ENDBRANCH  65  67
DOCKED: ENDBRANCH  64  65
DOCKED: ENDBRANCH  63  64
DOCKED: ENDBRANCH  59  63
DOCKED: ENDBRANCH  56  59
DOCKED: ENDBRANCH  54  55
DOCKED: BRANCH  54  70
DOCKED: ATOM     69  C1  UNL     1      11.274  -6.786  -0.643 +0.00 +0.00    +0.009 C  
DOCKED: ATOM     70  C2  UNL     1      10.704  -6.130  -1.906 +0.00 +0.00    +0.012 C  
DOCKED: ATOM     71  C3  UNL     1      11.568  -6.448  -3.126 +0.00 +0.00    +0.009 C  
DOCKED: ENDBRANCH  54  70
DOCKED: ENDBRANCH  50  54
DOCKED: ENDBRANCH  49  52
DOCKED: BRANCH  49  72
DOCKED: ATOM     72  C12 UNL     1       6.847  -4.982   1.640 +0.00 +0.00    +0.127 C  
DOCKED: BRANCH  72  73
DOCKED: ATOM     73  C13 UNL     1       8.056  -5.502   2.381 +0.00 +0.00    +0.213 C  
DOCKED: ATOM     74  N4  UNL     1       8.670  -4.596   3.192 +0.00 -0.00    -0.329 N  
DOCKED: ATOM     75  O5  UNL     1       8.429  -6.668   2.333 +0.00 -0.00    -0.276 OA 
DOCKED: ATOM     76  H22 UNL     1       9.509  -4.894   3.675 +0.00 +0.00    +0.145 HD 
DOCKED: ATOM     77  H23 UNL     1       8.486  -3.602   3.150 +0.00 +0.00    +0.145 HD 
DOCKED: ENDBRANCH  72  73
DOCKED: ENDBRANCH  49  72
DOCKED: ENDBRANCH  45  49
DOCKED: ENDBRANCH  44  47
DOCKED: BRANCH  44  78
DOCKED: ATOM     78  C16 UNL     1       7.093   0.722   0.300 +0.00 +0.00    +0.028 C  
DOCKED: BRANCH  78  79
DOCKED: ATOM     79  C17 UNL     1       6.834   1.562  -0.966 +0.00 -0.00    -0.009 C  
DOCKED: ATOM     80  C18 UNL     1       6.535   0.639  -2.173 +0.00 +0.00    +0.003 C  
DOCKED: ATOM     81  C19 UNL     1       5.809   1.339  -3.327 +0.00 +0.00    +0.000 C  
DOCKED: ATOM     82  C20 UNL     1       6.022   2.846  -3.316 +0.00 +0.00    +0.000 C  
DOCKED: ATOM     83  C21 UNL     1       5.537   3.475  -2.010 +0.00 +0.00    +0.000 C  
DOCKED: ATOM     84  C22 UNL     1       5.665   2.544  -0.801 +0.00 +0.00    +0.003 C  
DOCKED: ENDBRANCH  78  79
DOCKED: ENDBRANCH  44  78
DOCKED: ENDBRANCH   1  44
DOCKED: TORSDOF 36
DOCKED: TER
DOCKED: ENDMDL
________________________________________________________________________________


    FINAL DOCKED STATE:
    ________________________


Run:   2 / 20
Time taken for this run:   7.574s

DOCKED: MODEL        2
DOCKED: USER    Run = 2
DOCKED: USER
DOCKED: USER    Estimated Free Energy of Binding    = +10.74 kcal/mol  [=(1)+(2)+(3)-(4)]
DOCKED: USER
DOCKED: USER    (1) Final Intermolecular Energy     =  +0.00 kcal/mol
DOCKED: USER        vdW + Hbond + desolv Energy     =  +0.00 kcal/mol
DOCKED: USER        Electrostatic Energy            =  +0.00 kcal/mol
DOCKED: USER        Moving Ligand-Fixed Receptor    =  +0.00 kcal/mol
DOCKED: USER        Moving Ligand-Moving Receptor   =  +0.00 kcal/mol
DOCKED: USER    (2) Final Total Internal Energy     = -32.75 kcal/mol
DOCKED: USER    (3) Torsional Free Energy           = +10.74 kcal/mol
DOCKED: USER    (4) Unbound System's Energy         = -32.75 kcal/mol
DOCKED: USER
DOCKED: USER
DOCKED: REMARK  Name = ligands/ligand_16.pdb
DOCKED: REMARK  41 active torsions:
DOCKED: REMARK  status: ('A' for Active; 'I' for Inactive)
DOCKED: REMARK    1  A    between atoms: C1_1  and  C2_2
DOCKED: REMARK    2  A    between atoms: C2_2  and  C3_3
DOCKED: REMARK    3  A    between atoms: C2_2  and  C4_4
DOCKED: REMARK    4  A    between atoms: C4_4  and  N1_5
DOCKED: REMARK    5  A    between atoms: C4_4  and  C10_15
DOCKED: REMARK    6  A    between atoms: C5_6  and  C6_8
DOCKED: REMARK    7  A    between atoms: C6_8  and  N2_9
DOCKED: REMARK    8  A    between atoms: C6_8  and  C7_10
DOCKED: REMARK    9  A    between atoms: C7_10  and  C8_11
DOCKED: REMARK   10  A    between atoms: C8_11  and  C9_12
DOCKED: REMARK   11  A    between atoms: C9_12  and  O3_14
DOCKED: REMARK   12  A    between atoms: N3_17  and  C11_18
DOCKED: REMARK   13  A    between atoms: C11_18  and  C12_19
DOCKED: REMARK   14  A    between atoms: C11_18  and  C14_23
DOCKED: REMARK   15  A    between atoms: C12_19  and  C13_20
DOCKED: REMARK   16  A    between atoms: N5_25  and  C15_26
DOCKED: REMARK   17  A    between atoms: C15_26  and  C16_27
DOCKED: REMARK   18  A    between atoms: C15_26  and  C23_34
DOCKED: REMARK   19  A    between atoms: C16_27  and  C17_28
DOCKED: REMARK   20  A    between atoms: C23_34  and  O7_35
DOCKED: REMARK   21  A    between atoms: C23_34  and  C24_36
DOCKED: REMARK   22  A    between atoms: C24_36  and  C25_37
DOCKED: REMARK   23  A    between atoms: C25_37  and  C26_38
DOCKED: REMARK   24  A    between atoms: C25_37  and  C44_66
DOCKED: REMARK   25  A    between atoms: N6_40  and  C27_41
DOCKED: REMARK   26  A    between atoms: C27_41  and  C28_42
DOCKED: REMARK   27  A    between atoms: C27_41  and  C29_43
DOCKED: REMARK   28  A    between atoms: N7_45  and  C30_46
DOCKED: REMARK   29  A    between atoms: C30_46  and  C31_47
DOCKED: REMARK   30  A    between atoms: C30_46  and  C34_52
DOCKED: REMARK   31  A    between atoms: C31_47  and  C32_48
DOCKED: REMARK   32  A    between atoms: C32_48  and  C33_49
DOCKED: REMARK   33  A    between atoms: C33_49  and  O11_51
DOCKED: REMARK   34  A    between atoms: N8_54  and  C35_55
DOCKED: REMARK   35  A    between atoms: C35_55  and  C36_56
DOCKED: REMARK   36  A    between atoms: C35_55  and  C43_63
DOCKED: REMARK   37  A    between atoms: C36_56  and  C37_57
DOCKED: REMARK   38  A    between atoms: C43_63  and  O14_65
DOCKED: REMARK   39  A    between atoms: C44_66  and  C45_67
DOCKED: REMARK   40  A    between atoms: C44_66  and  C46_68
DOCKED: REMARK   41  A    between atoms: C44_66  and  O15_69
DOCKED: REMARK                            x       y       z     vdW  Elec       q    Type
DOCKED: REMARK                         _______ _______ _______ _____ _____    ______ ____
DOCKED: USER                              x       y       z     vdW  Elec       q    Type
DOCKED: USER                           _______ _______ _______ _____ _____    ______ ____
DOCKED: ROOT
DOCKED: ATOM      1  C23 UNL     1      14.981  -9.944  -4.202 +0.00 +0.00    +0.135 C  
DOCKED: ENDROOT
DOCKED: BRANCH   1   2
DOCKED: ATOM      2  O7  UNL     1      15.723  -8.878  -4.791 +0.00 -0.00    -0.390 OA 
DOCKED: ATOM      3  H40 UNL     1      15.336  -8.053  -4.454 +0.00 +0.00    +0.210 HD 
DOCKED: ENDBRANCH   1   2
DOCKED: BRANCH   1   4
DOCKED: ATOM      4  C24 UNL     1      15.578 -10.222  -2.807 +0.00 +0.00    +0.048 C  
DOCKED: BRANCH   4   5
DOCKED: ATOM      5  C25 UNL     1      15.650  -9.145  -1.687 +0.00 +0.00    +0.108 C  
DOCKED: BRANCH   5   6
DOCKED: ATOM      6  C26 UNL     1      14.360  -9.041  -0.862 +0.00 +0.00    +0.220 C  
DOCKED: ATOM      7  O8  UNL     1      13.631  -8.057  -0.976 +0.00 -0.00    -0.275 OA 
DOCKED: ATOM      8  N6  UNL     1      14.084 -10.081  -0.018 +0.00 -0.00    -0.304 N  
DOCKED: ATOM      9  H44 UNL     1      14.801 -10.790   0.123 +0.00 +0.00    +0.149 HD 
DOCKED: BRANCH   8  10
DOCKED: ATOM     10  C27 UNL     1      12.982 -10.127   0.946 +0.00 +0.00    +0.156 C  
DOCKED: ATOM     11  C28 UNL     1      11.580 -10.063   0.356 +0.00 +0.00    +0.038 C  
DOCKED: BRANCH  10  12
DOCKED: ATOM     12  C29 UNL     1      13.149  -9.073   2.066 +0.00 +0.00    +0.234 C  
DOCKED: ATOM     13  O9  UNL     1      12.972  -9.308   3.261 +0.00 -0.00    -0.274 OA 
DOCKED: ATOM     14  N7  UNL     1      13.535  -7.821   1.620 +0.00 -0.00    -0.302 N  
DOCKED: ATOM     15  H49 UNL     1      13.294  -7.573   0.660 +0.00 +0.00    +0.150 HD 
DOCKED: BRANCH  14  16
DOCKED: ATOM     16  C30 UNL     1      13.666  -6.708   2.564 +0.00 +0.00    +0.159 C  
DOCKED: BRANCH  16  17
DOCKED: ATOM     17  C34 UNL     1      14.392  -5.571   1.821 +0.00 +0.00    +0.234 C  
DOCKED: ATOM     18  O12 UNL     1      15.223  -4.841   2.356 +0.00 -0.00    -0.274 OA 
DOCKED: ATOM     19  N8  UNL     1      13.975  -5.389   0.525 +0.00 -0.00    -0.301 N  
DOCKED: ATOM     20  H56 UNL     1      13.330  -6.058   0.106 +0.00 +0.00    +0.150 HD 
DOCKED: BRANCH  19  21
DOCKED: ATOM     21  C35 UNL     1      14.693  -4.510  -0.401 +0.00 +0.00    +0.186 C  
DOCKED: BRANCH  21  22
DOCKED: ATOM     22  C43 UNL     1      14.194  -4.783  -1.818 +0.00 +0.00    +0.326 C  
DOCKED: ATOM     23  O13 UNL     1      14.577  -4.225  -2.837 +0.00 -0.00    -0.249 OA 
DOCKED: BRANCH  22  24
DOCKED: ATOM     24  O14 UNL     1      13.209  -5.704  -1.878 +0.00 -0.00    -0.479 OA 
DOCKED: ATOM     25  H65 UNL     1      13.589  -6.404  -2.450 +0.00 +0.00    +0.295 HD 
DOCKED: ENDBRANCH  22  24
DOCKED: ENDBRANCH  21  22
DOCKED: BRANCH  21  26
DOCKED: ATOM     26  C36 UNL     1      14.608  -3.022  -0.028 +0.00 +0.00    +0.069 C  
DOCKED: BRANCH  26  27
DOCKED: ATOM     27  C37 UNL     1      13.282  -2.583   0.551 +0.00 -0.00    -0.045 A  
DOCKED: ATOM     28  C38 UNL     1      12.243  -2.164  -0.291 +0.00 +0.00    +0.004 A  
DOCKED: ATOM     29  C39 UNL     1      11.016  -1.765   0.237 +0.00 +0.00    +0.000 A  
DOCKED: ATOM     30  C40 UNL     1      10.813  -1.774   1.615 +0.00 +0.00    +0.000 A  
DOCKED: ATOM     31  C41 UNL     1      11.839  -2.185   2.464 +0.00 +0.00    +0.000 A  
DOCKED: ATOM     32  C42 UNL     1      13.067  -2.588   1.936 +0.00 +0.00    +0.004 A  
DOCKED: ENDBRANCH  26  27
DOCKED: ENDBRANCH  21  26
DOCKED: ENDBRANCH  19  21
DOCKED: ENDBRANCH  16  17
DOCKED: BRANCH  16  33
DOCKED: ATOM     33  C31 UNL     1      12.279  -6.283   3.080 +0.00 +0.00    +0.043 C  
DOCKED: BRANCH  33  34
DOCKED: ATOM     34  C32 UNL     1      11.131  -6.695   2.163 +0.00 +0.00    +0.123 C  
DOCKED: BRANCH  34  35
DOCKED: ATOM     35  C33 UNL     1      11.301  -6.171   0.768 +0.00 +0.00    +0.305 C  
DOCKED: ATOM     36  O10 UNL     1      11.356  -4.995   0.450 +0.00 -0.00    -0.251 OA 
DOCKED: BRANCH  35  37
DOCKED: ATOM     37  O11 UNL     1      11.449  -7.150  -0.143 +0.00 -0.00    -0.481 OA 
DOCKED: ATOM     38  H55 UNL     1      11.953  -6.729  -0.870 +0.00 +0.00    +0.295 HD 
DOCKED: ENDBRANCH  35  37
DOCKED: ENDBRANCH  34  35
DOCKED: ENDBRANCH  33  34
DOCKED: ENDBRANCH  16  33
DOCKED: ENDBRANCH  14  16
DOCKED: ENDBRANCH  10  12
DOCKED: ENDBRANCH   8  10
DOCKED: ENDBRANCH   5   6
DOCKED: BRANCH   5  39
DOCKED: ATOM     39  C44 UNL     1      16.416  -7.807  -1.955 +0.00 +0.00    +0.072 C  
DOCKED: ATOM     40  C45 UNL     1      17.696  -8.097  -2.760 +0.00 +0.00    +0.042 C  
DOCKED: ATOM     41  C46 UNL     1      16.834  -6.979  -0.734 +0.00 +0.00    +0.042 C  
DOCKED: BRANCH  39  42
DOCKED: ATOM     42  O15 UNL     1      15.619  -6.946  -2.783 +0.00 -0.00    -0.388 OA 
DOCKED: ATOM     43  H72 UNL     1      14.688  -7.227  -2.641 +0.00 +0.00    +0.210 HD 
DOCKED: ENDBRANCH  39  42
DOCKED: ENDBRANCH   5  39
DOCKED: ENDBRANCH   4   5
DOCKED: ENDBRANCH   1   4
DOCKED: BRANCH   1  44
DOCKED: ATOM     44  C15 UNL     1      13.424  -9.764  -4.235 +0.00 +0.00    +0.102 C  
DOCKED: BRANCH  44  47
DOCKED: ATOM     45  C14 UNL     1      13.457  -8.593  -6.460 +0.00 +0.00    +0.234 C  
DOCKED: ATOM     46  O6  UNL     1      14.018  -9.544  -7.008 +0.00 -0.00    -0.274 OA 
DOCKED: ATOM     47  N5  UNL     1      12.944  -8.728  -5.190 +0.00 -0.00    -0.308 N  
DOCKED: ATOM     48  H24 UNL     1      12.713  -7.835  -4.744 +0.00 +0.00    +0.149 HD 
DOCKED: BRANCH  45  49
DOCKED: ATOM     49  C11 UNL     1      13.313  -7.207  -7.147 +0.00 +0.00    +0.168 C  
DOCKED: BRANCH  49  52
DOCKED: ATOM     50  C10 UNL     1      10.846  -6.916  -7.165 +0.00 +0.00    +0.234 C  
DOCKED: ATOM     51  O4  UNL     1      10.742  -7.663  -8.144 +0.00 -0.00    -0.274 OA 
DOCKED: ATOM     52  N3  UNL     1      12.080  -6.580  -6.640 +0.00 -0.00    -0.302 N  
DOCKED: ATOM     53  H18 UNL     1      12.087  -6.348  -5.658 +0.00 +0.00    +0.150 HD 
DOCKED: BRANCH  50  54
DOCKED: ATOM     54  C4  UNL     1       9.608  -6.240  -6.490 +0.00 +0.00    +0.161 C  
DOCKED: BRANCH  54  55
DOCKED: ATOM     55  N1  UNL     1       9.957  -6.079  -5.076 +0.00 -0.00    -0.302 N  
DOCKED: ATOM     56  C5  UNL     1       9.399  -6.882  -4.098 +0.00 +0.00    +0.230 C  
DOCKED: ATOM     57  O1  UNL     1       8.385  -7.549  -4.272 +0.00 -0.00    -0.274 OA 
DOCKED: ATOM     58  H9  UNL     1      10.890  -5.741  -4.881 +0.00 +0.00    +0.150 HD 
DOCKED: BRANCH  56  59
DOCKED: ATOM     59  C6  UNL     1      10.156  -6.836  -2.752 +0.00 +0.00    +0.138 C  
DOCKED: BRANCH  59  60
DOCKED: ATOM     60  N2  UNL     1      11.585  -7.124  -2.986 +0.00 -0.00    -0.320 NA 
DOCKED: ATOM     61  H11 UNL     1      12.097  -7.198  -2.105 +0.00 +0.00    +0.119 HD 
DOCKED: ATOM     62  H12 UNL     1      11.990  -6.371  -3.544 +0.00 +0.00    +0.119 HD 
DOCKED: ENDBRANCH  59  60
DOCKED: BRANCH  59  63
DOCKED: ATOM     63  C7  UNL     1       9.931  -5.473  -2.079 +0.00 +0.00    +0.039 C  
DOCKED: BRANCH  63  64
DOCKED: ATOM     64  C8  UNL     1       9.994  -4.283  -3.040 +0.00 +0.00    +0.122 C  
DOCKED: BRANCH  64  65
DOCKED: ATOM     65  C9  UNL     1      11.412  -3.890  -3.370 +0.00 +0.00    +0.305 C  
DOCKED: ATOM     66  O2  UNL     1      11.991  -2.867  -3.039 +0.00 -0.00    -0.251 OA 
DOCKED: BRANCH  65  67
DOCKED: ATOM     67  O3  UNL     1      12.043  -4.834  -4.095 +0.00 -0.00    -0.481 OA 
DOCKED: ATOM     68  H17 UNL     1      12.701  -5.218  -3.481 +0.00 +0.00    +0.295 HD 
DOCKED: ENDBRANCH  65  67
DOCKED: ENDBRANCH  64  65
DOCKED: ENDBRANCH  63  64
DOCKED: ENDBRANCH  59  63
DOCKED: ENDBRANCH  56  59
DOCKED: ENDBRANCH  54  55
DOCKED: BRANCH  54  70
DOCKED: ATOM     69  C1  UNL     1      10.265  -3.887  -7.289 +0.00 +0.00    +0.009 C  
DOCKED: ATOM     70  C2  UNL     1       9.120  -4.871  -7.023 +0.00 +0.00    +0.012 C  
DOCKED: ATOM     71  C3  UNL     1       8.023  -4.221  -6.180 +0.00 +0.00    +0.009 C  
DOCKED: ENDBRANCH  54  70
DOCKED: ENDBRANCH  50  54
DOCKED: ENDBRANCH  49  52
DOCKED: BRANCH  49  72
DOCKED: ATOM     72  C12 UNL     1      14.492  -6.275  -6.864 +0.00 +0.00    +0.127 C  
DOCKED: BRANCH  72  73
DOCKED: ATOM     73  C13 UNL     1      14.698  -6.074  -5.381 +0.00 +0.00    +0.213 C  
DOCKED: ATOM     74  N4  UNL     1      15.809  -5.361  -5.044 +0.00 -0.00    -0.329 N  
DOCKED: ATOM     75  O5  UNL     1      13.899  -6.446  -4.530 +0.00 -0.00    -0.276 OA 
DOCKED: ATOM     76  H22 UNL     1      16.006  -5.240  -4.058 +0.00 +0.00    +0.145 HD 
DOCKED: ATOM     77  H23 UNL     1      16.559  -5.165  -5.695 +0.00 +0.00    +0.145 HD 
DOCKED: ENDBRANCH  72  73
DOCKED: ENDBRANCH  49  72
DOCKED: ENDBRANCH  45  49
DOCKED: ENDBRANCH  44  47
DOCKED: BRANCH  44  78
DOCKED: ATOM     78  C16 UNL     1      12.645 -11.073  -4.557 +0.00 +0.00    +0.028 C  
DOCKED: BRANCH  78  79
DOCKED: ATOM     79  C17 UNL     1      11.135 -11.087  -4.248 +0.00 -0.00    -0.009 C  
DOCKED: ATOM     80  C18 UNL     1      10.870 -10.521  -2.831 +0.00 +0.00    +0.003 C  
DOCKED: ATOM     81  C19 UNL     1       9.428 -10.048  -2.609 +0.00 +0.00    +0.000 C  
DOCKED: ATOM     82  C20 UNL     1       8.447 -10.715  -3.562 +0.00 +0.00    +0.000 C  
DOCKED: ATOM     83  C21 UNL     1       8.807 -10.444  -5.023 +0.00 +0.00    +0.000 C  
DOCKED: ATOM     84  C22 UNL     1      10.311 -10.276  -5.260 +0.00 +0.00    +0.003 C  
DOCKED: ENDBRANCH  78  79
DOCKED: ENDBRANCH  44  78
DOCKED: ENDBRANCH   1  44
DOCKED: TORSDOF 36
DOCKED: TER
DOCKED: ENDMDL
________________________________________________________________________________


    FINAL DOCKED STATE:
    ________________________


Run:   3 / 20
Time taken for this run:   7.574s

DOCKED: MODEL        3
DOCKED: USER    Run = 3
DOCKED: USER
DOCKED: USER    Estimated Free Energy of Binding    = +10.74 kcal/mol  [=(1)+(2)+(3)-(4)]
DOCKED: USER
DOCKED: USER    (1) Final Intermolecular Energy     =  +0.00 kcal/mol
DOCKED: USER        vdW + Hbond + desolv Energy     =  +0.00 kcal/mol
DOCKED: USER        Electrostatic Energy            =  +0.00 kcal/mol
DOCKED: USER        Moving Ligand-Fixed Receptor    =  +0.00 kcal/mol
DOCKED: USER        Moving Ligand-Moving Receptor   =  +0.00 kcal/mol
DOCKED: USER    (2) Final Total Internal Energy     = -31.72 kcal/mol
DOCKED: USER    (3) Torsional Free Energy           = +10.74 kcal/mol
DOCKED: USER    (4) Unbound System's Energy         = -31.72 kcal/mol
DOCKED: USER
DOCKED: USER
DOCKED: REMARK  Name = ligands/ligand_16.pdb
DOCKED: REMARK  41 active torsions:
DOCKED: REMARK  status: ('A' for Active; 'I' for Inactive)
DOCKED: REMARK    1  A    between atoms: C1_1  and  C2_2
DOCKED: REMARK    2  A    between atoms: C2_2  and  C3_3
DOCKED: REMARK    3  A    between atoms: C2_2  and  C4_4
DOCKED: REMARK    4  A    between atoms: C4_4  and  N1_5
DOCKED: REMARK    5  A    between atoms: C4_4  and  C10_15
DOCKED: REMARK    6  A    between atoms: C5_6  and  C6_8
DOCKED: REMARK    7  A    between atoms: C6_8  and  N2_9
DOCKED: REMARK    8  A    between atoms: C6_8  and  C7_10
DOCKED: REMARK    9  A    between atoms: C7_10  and  C8_11
DOCKED: REMARK   10  A    between atoms: C8_11  and  C9_12
DOCKED: REMARK   11  A    between atoms: C9_12  and  O3_14
DOCKED: REMARK   12  A    between atoms: N3_17  and  C11_18
DOCKED: REMARK   13  A    between atoms: C11_18  and  C12_19
DOCKED: REMARK   14  A    between atoms: C11_18  and  C14_23
DOCKED: REMARK   15  A    between atoms: C12_19  and  C13_20
DOCKED: REMARK   16  A    between atoms: N5_25  and  C15_26
DOCKED: REMARK   17  A    between atoms: C15_26  and  C16_27
DOCKED: REMARK   18  A    between atoms: C15_26  and  C23_34
DOCKED: REMARK   19  A    between atoms: C16_27  and  C17_28
DOCKED: REMARK   20  A    between atoms: C23_34  and  O7_35
DOCKED: REMARK   21  A    between atoms: C23_34  and  C24_36
DOCKED: REMARK   22  A    between atoms: C24_36  and  C25_37
DOCKED: REMARK   23  A    between atoms: C25_37  and  C26_38
DOCKED: REMARK   24  A    between atoms: C25_37  and  C44_66
DOCKED: REMARK   25  A    between atoms: N6_40  and  C27_41
DOCKED: REMARK   26  A    between atoms: C27_41  and  C28_42
DOCKED: REMARK   27  A    between atoms: C27_41  and  C29_43
DOCKED: REMARK   28  A    between atoms: N7_45  and  C30_46
DOCKED: REMARK   29  A    between atoms: C30_46  and  C31_47
DOCKED: REMARK   30  A    between atoms: C30_46  and  C34_52
DOCKED: REMARK   31  A    between atoms: C31_47  and  C32_48
DOCKED: REMARK   32  A    between atoms: C32_48  and  C33_49
DOCKED: REMARK   33  A    between atoms: C33_49  and  O11_51
DOCKED: REMARK   34  A    between atoms: N8_54  and  C35_55
DOCKED: REMARK   35  A    between atoms: C35_55  and  C36_56
DOCKED: REMARK   36  A    between atoms: C35_55  and  C43_63
DOCKED: REMARK   37  A    between atoms: C36_56  and  C37_57
DOCKED: REMARK   38  A    between atoms: C43_63  and  O14_65
DOCKED: REMARK   39  A    between atoms: C44_66  and  C45_67
DOCKED: REMARK   40  A    between atoms: C44_66  and  C46_68
DOCKED: REMARK   41  A    between atoms: C44_66  and  O15_69
DOCKED: REMARK                            x       y       z     vdW  Elec       q    Type
DOCKED: REMARK                         _______ _______ _______ _____ _____    ______ ____
DOCKED: USER                              x       y       z     vdW  Elec       q    Type
DOCKED: USER                           _______ _______ _______ _____ _____    ______ ____
DOCKED: ROOT
DOCKED: ATOM      1  C23 UNL     1      10.683 -11.249   1.108 +0.00 +0.00    +0.135 C  
DOCKED: ENDROOT
DOCKED: BRANCH   1   2
DOCKED: ATOM      2  O7  UNL     1       9.990 -10.468   2.079 +0.00 -0.00    -0.390 OA 
DOCKED: ATOM      3  H40 UNL     1       9.323  -9.953   1.595 +0.00 +0.00    +0.210 HD 
DOCKED: ENDBRANCH   1   2
DOCKED: BRANCH   1   4
DOCKED: ATOM      4  C24 UNL     1       9.835 -11.262  -0.181 +0.00 +0.00    +0.048 C  
DOCKED: BRANCH   4   5
DOCKED: ATOM      5  C25 UNL     1       9.882 -10.121  -1.238 +0.00 +0.00    +0.108 C  
DOCKED: BRANCH   5   6
DOCKED: ATOM      6  C26 UNL     1       8.908  -8.975  -0.936 +0.00 +0.00    +0.220 C  
DOCKED: ATOM      7  O8  UNL     1       8.273  -8.964   0.117 +0.00 -0.00    -0.275 OA 
DOCKED: ATOM      8  N6  UNL     1       8.796  -7.996  -1.885 +0.00 -0.00    -0.304 N  
DOCKED: ATOM      9  H44 UNL     1       9.248  -8.145  -2.786 +0.00 +0.00    +0.149 HD 
DOCKED: BRANCH   8  10
DOCKED: ATOM     10  C27 UNL     1       7.841  -6.887  -1.858 +0.00 +0.00    +0.156 C  
DOCKED: ATOM     11  C28 UNL     1       7.496  -6.274  -3.208 +0.00 +0.00    +0.038 C  
DOCKED: BRANCH  10  12
DOCKED: ATOM     12  C29 UNL     1       8.258  -5.789  -0.852 +0.00 +0.00    +0.234 C  
DOCKED: ATOM     13  O9  UNL     1       8.703  -4.690  -1.182 +0.00 -0.00    -0.274 OA 
DOCKED: ATOM     14  N7  UNL     1       8.077  -6.131   0.477 +0.00 -0.00    -0.302 N  
DOCKED: ATOM     15  H49 UNL     1       8.090  -7.125   0.708 +0.00 +0.00    +0.150 HD 
DOCKED: BRANCH  14  16
DOCKED: ATOM     16  C30 UNL     1       8.492  -5.213   1.540 +0.00 +0.00    +0.159 C  
DOCKED: BRANCH  16  17
DOCKED: ATOM     17  C34 UNL     1       8.019  -5.824   2.873 +0.00 +0.00    +0.234 C  
DOCKED: ATOM     18  O12 UNL     1       7.915  -5.174   3.911 +0.00 -0.00    -0.274 OA 
DOCKED: ATOM     19  N8  UNL     1       7.795  -7.178   2.823 +0.00 -0.00    -0.301 N  
DOCKED: ATOM     20  H56 UNL     1       7.833  -7.661   1.927 +0.00 +0.00    +0.150 HD 
DOCKED: BRANCH  19  21
DOCKED: ATOM     21  C35 UNL     1       7.137  -7.892   3.920 +0.00 +0.00    +0.186 C  
DOCKED: BRANCH  21  22
DOCKED: ATOM     22  C43 UNL     1       6.955  -9.352   3.510 +0.00 +0.00    +0.326 C  
DOCKED: ATOM     23  O13 UNL     1       6.450 -10.234   4.191 +0.00 -0.00    -0.249 OA 
DOCKED: BRANCH  22  24
DOCKED: ATOM     24  O14 UNL     1       7.455  -9.639   2.290 +0.00 -0.00    -0.479 OA 
DOCKED: ATOM     25  H65 UNL     1       8.307  -9.153   2.275 +0.00 +0.00    +0.295 HD 
DOCKED: ENDBRANCH  22  24
DOCKED: ENDBRANCH  21  22
DOCKED: BRANCH  21  26
DOCKED: ATOM     26  C36 UNL     1       7.861  -7.750   5.268 +0.00 +0.00    +0.069 C  
DOCKED: BRANCH  26  27
DOCKED: ATOM     27  C37 UNL     1       9.351  -8.008   5.225 +0.00 -0.00    -0.045 A  
DOCKED: ATOM     28  C38 UNL     1       9.843  -9.275   4.887 +0.00 +0.00    +0.004 A  
DOCKED: ATOM     29  C39 UNL     1      11.215  -9.516   4.838 +0.00 +0.00    +0.000 A  
DOCKED: ATOM     30  C40 UNL     1      12.114  -8.494   5.132 +0.00 +0.00    +0.000 A  
DOCKED: ATOM     31  C41 UNL     1      11.638  -7.229   5.473 +0.00 +0.00    +0.000 A  
DOCKED: ATOM     32  C42 UNL     1      10.264  -6.986   5.519 +0.00 +0.00    +0.004 A  
DOCKED: ENDBRANCH  26  27
DOCKED: ENDBRANCH  21  26
DOCKED: ENDBRANCH  19  21
DOCKED: ENDBRANCH  16  17
DOCKED: BRANCH  16  33
DOCKED: ATOM     33  C31 UNL     1      10.017  -5.004   1.497 +0.00 +0.00    +0.043 C  
DOCKED: BRANCH  33  34
DOCKED: ATOM     34  C32 UNL     1      10.782  -5.867   2.497 +0.00 +0.00    +0.123 C  
DOCKED: BRANCH  34  35
DOCKED: ATOM     35  C33 UNL     1      11.042  -7.249   1.973 +0.00 +0.00    +0.305 C  
DOCKED: ATOM     36  O10 UNL     1      12.132  -7.794   1.910 +0.00 -0.00    -0.251 OA 
DOCKED: BRANCH  35  37
DOCKED: ATOM     37  O11 UNL     1       9.917  -7.890   1.610 +0.00 -0.00    -0.481 OA 
DOCKED: ATOM     38  H55 UNL     1      10.229  -8.614   1.028 +0.00 +0.00    +0.295 HD 
DOCKED: ENDBRANCH  35  37
DOCKED: ENDBRANCH  34  35
DOCKED: ENDBRANCH  33  34
DOCKED: ENDBRANCH  16  33
DOCKED: ENDBRANCH  14  16
DOCKED: ENDBRANCH  10  12
DOCKED: ENDBRANCH   8  10
DOCKED: ENDBRANCH   5   6
DOCKED: BRANCH   5  39
DOCKED: ATOM     39  C44 UNL     1      10.091 -10.479  -2.747 +0.00 +0.00    +0.072 C  
DOCKED: ATOM     40  C45 UNL     1       8.729 -10.492  -3.467 +0.00 +0.00    +0.042 C  
DOCKED: ATOM     41  C46 UNL     1      10.775 -11.814  -3.065 +0.00 +0.00    +0.042 C  
DOCKED: BRANCH  39  42
DOCKED: ATOM     42  O15 UNL     1      10.865  -9.455  -3.389 +0.00 -0.00    -0.388 OA 
DOCKED: ATOM     43  H72 UNL     1      10.632  -8.619  -2.930 +0.00 +0.00    +0.210 HD 
DOCKED: ENDBRANCH  39  42
DOCKED: ENDBRANCH   5  39
DOCKED: ENDBRANCH   4   5
DOCKED: ENDBRANCH   1   4
DOCKED: BRANCH   1  44
DOCKED: ATOM     44  C15 UNL     1      12.191 -10.869   0.906 +0.00 +0.00    +0.102 C  
DOCKED: BRANCH  44  47
DOCKED: ATOM     45  C14 UNL     1      13.137  -9.726  -1.123 +0.00 +0.00    +0.234 C  
DOCKED: ATOM     46  O6  UNL     1      13.275 -10.794  -1.722 +0.00 -0.00    -0.274 OA 
DOCKED: ATOM     47  N5  UNL     1      12.416  -9.674   0.048 +0.00 -0.00    -0.308 N  
DOCKED: ATOM     48  H24 UNL     1      12.555  -8.809   0.577 +0.00 +0.00    +0.149 HD 
DOCKED: BRANCH  45  49
DOCKED: ATOM     49  C11 UNL     1      13.772  -8.402  -1.633 +0.00 +0.00    +0.168 C  
DOCKED: BRANCH  49  52
DOCKED: ATOM     50  C10 UNL     1      13.981  -9.051  -4.022 +0.00 +0.00    +0.234 C  
DOCKED: ATOM     51  O4  UNL     1      14.890  -9.844  -3.751 +0.00 -0.00    -0.274 OA 
DOCKED: ATOM     52  N3  UNL     1      13.409  -8.248  -3.053 +0.00 -0.00    -0.302 N  
DOCKED: ATOM     53  H18 UNL     1      12.456  -7.968  -3.226 +0.00 +0.00    +0.150 HD 
DOCKED: BRANCH  50  54
DOCKED: ATOM     54  C4  UNL     1      13.457  -8.843  -5.480 +0.00 +0.00    +0.161 C  
DOCKED: BRANCH  54  55
DOCKED: ATOM     55  N1  UNL     1      12.246  -8.028  -5.361 +0.00 -0.00    -0.302 N  
DOCKED: ATOM     56  C5  UNL     1      11.345  -7.915  -6.404 +0.00 +0.00    +0.230 C  
DOCKED: ATOM     57  O1  UNL     1      11.617  -8.208  -7.564 +0.00 -0.00    -0.274 OA 
DOCKED: ATOM     58  H9  UNL     1      11.849  -7.948  -4.434 +0.00 +0.00    +0.150 HD 
DOCKED: BRANCH  56  59
DOCKED: ATOM     59  C6  UNL     1       9.971  -7.352  -5.979 +0.00 +0.00    +0.138 C  
DOCKED: BRANCH  59  60
DOCKED: ATOM     60  N2  UNL     1       9.779  -7.576  -4.533 +0.00 -0.00    -0.320 NA 
DOCKED: ATOM     61  H11 UNL     1      10.591  -7.264  -3.999 +0.00 +0.00    +0.119 HD 
DOCKED: ATOM     62  H12 UNL     1       9.633  -8.573  -4.366 +0.00 +0.00    +0.119 HD 
DOCKED: ENDBRANCH  59  60
DOCKED: BRANCH  59  63
DOCKED: ATOM     63  C7  UNL     1       9.879  -5.867  -6.364 +0.00 +0.00    +0.039 C  
DOCKED: BRANCH  63  64
DOCKED: ATOM     64  C8  UNL     1      11.003  -5.002  -5.788 +0.00 +0.00    +0.122 C  
DOCKED: BRANCH  64  65
DOCKED: ATOM     65  C9  UNL     1      11.345  -5.379  -4.370 +0.00 +0.00    +0.305 C  
DOCKED: ATOM     66  O2  UNL     1      12.376  -5.898  -3.971 +0.00 -0.00    -0.251 OA 
DOCKED: BRANCH  65  67
DOCKED: ATOM     67  O3  UNL     1      10.358  -5.059  -3.510 +0.00 -0.00    -0.481 OA 
DOCKED: ATOM     68  H17 UNL     1      10.044  -5.919  -3.163 +0.00 +0.00    +0.295 HD 
DOCKED: ENDBRANCH  65  67
DOCKED: ENDBRANCH  64  65
DOCKED: ENDBRANCH  63  64
DOCKED: ENDBRANCH  59  63
DOCKED: ENDBRANCH  56  59
DOCKED: ENDBRANCH  54  55
DOCKED: BRANCH  54  70
DOCKED: ATOM     69  C1  UNL     1      15.652  -8.986  -6.810 +0.00 +0.00    +0.009 C  
DOCKED: ATOM     70  C2  UNL     1      14.387  -8.172  -6.520 +0.00 +0.00    +0.012 C  
DOCKED: ATOM     71  C3  UNL     1      14.731  -6.715  -6.211 +0.00 +0.00    +0.009 C  
DOCKED: ENDBRANCH  54  70
DOCKED: ENDBRANCH  50  54
DOCKED: ENDBRANCH  49  52
DOCKED: BRANCH  49  72
DOCKED: ATOM     72  C12 UNL     1      13.286  -7.172  -0.865 +0.00 +0.00    +0.127 C  
DOCKED: BRANCH  72  73
DOCKED: ATOM     73  C13 UNL     1      11.955  -6.681  -1.385 +0.00 +0.00    +0.213 C  
DOCKED: ATOM     74  N4  UNL     1      11.664  -5.383  -1.092 +0.00 -0.00    -0.329 N  
DOCKED: ATOM     75  O5  UNL     1      11.212  -7.357  -2.086 +0.00 -0.00    -0.276 OA 
DOCKED: ATOM     76  H22 UNL     1      10.763  -5.028  -1.387 +0.00 +0.00    +0.145 HD 
DOCKED: ATOM     77  H23 UNL     1      12.174  -4.843  -0.404 +0.00 +0.00    +0.145 HD 
DOCKED: ENDBRANCH  72  73
DOCKED: ENDBRANCH  49  72
DOCKED: ENDBRANCH  45  49
DOCKED: ENDBRANCH  44  47
DOCKED: BRANCH  44  78
DOCKED: ATOM     78  C16 UNL     1      12.961 -10.621   2.237 +0.00 +0.00    +0.028 C  
DOCKED: BRANCH  78  79
DOCKED: ATOM     79  C17 UNL     1      14.482 -10.391   2.138 +0.00 -0.00    -0.009 C  
DOCKED: ATOM     80  C18 UNL     1      15.085 -11.262   1.008 +0.00 +0.00    +0.003 C  
DOCKED: ATOM     81  C19 UNL     1      16.451 -10.775   0.509 +0.00 +0.00    +0.000 C  
DOCKED: ATOM     82  C20 UNL     1      17.178  -9.930   1.544 +0.00 +0.00    +0.000 C  
DOCKED: ATOM     83  C21 UNL     1      16.362  -8.699   1.941 +0.00 +0.00    +0.000 C  
DOCKED: ATOM     84  C22 UNL     1      14.848  -8.924   1.871 +0.00 +0.00    +0.003 C  
DOCKED: ENDBRANCH  78  79
DOCKED: ENDBRANCH  44  78
DOCKED: ENDBRANCH   1  44
DOCKED: TORSDOF 36
DOCKED: TER
DOCKED: ENDMDL
________________________________________________________________________________


    FINAL DOCKED STATE:
    ________________________


Run:   4 / 20
Time taken for this run:   7.574s

DOCKED: MODEL        4
DOCKED: USER    Run = 4
DOCKED: USER
DOCKED: USER    Estimated Free Energy of Binding    = +10.74 kcal/mol  [=(1)+(2)+(3)-(4)]
DOCKED: USER
DOCKED: USER    (1) Final Intermolecular Energy     =  +0.00 kcal/mol
DOCKED: USER        vdW + Hbond + desolv Energy     =  +0.00 kcal/mol
DOCKED: USER        Electrostatic Energy            =  +0.00 kcal/mol
DOCKED: USER        Moving Ligand-Fixed Receptor    =  +0.00 kcal/mol
DOCKED: USER        Moving Ligand-Moving Receptor   =  +0.00 kcal/mol
DOCKED: USER    (2) Final Total Internal Energy     = -33.47 kcal/mol
DOCKED: USER    (3) Torsional Free Energy           = +10.74 kcal/mol
DOCKED: USER    (4) Unbound System's Energy         = -33.47 kcal/mol
DOCKED: USER
DOCKED: USER
DOCKED: REMARK  Name = ligands/ligand_16.pdb
DOCKED: REMARK  41 active torsions:
DOCKED: REMARK  status: ('A' for Active; 'I' for Inactive)
DOCKED: REMARK    1  A    between atoms: C1_1  and  C2_2
DOCKED: REMARK    2  A    between atoms: C2_2  and  C3_3
DOCKED: REMARK    3  A    between atoms: C2_2  and  C4_4
DOCKED: REMARK    4  A    between atoms: C4_4  and  N1_5
DOCKED: REMARK    5  A    between atoms: C4_4  and  C10_15
DOCKED: REMARK    6  A    between atoms: C5_6  and  C6_8
DOCKED: REMARK    7  A    between atoms: C6_8  and  N2_9
DOCKED: REMARK    8  A    between atoms: C6_8  and  C7_10
DOCKED: REMARK    9  A    between atoms: C7_10  and  C8_11
DOCKED: REMARK   10  A    between atoms: C8_11  and  C9_12
DOCKED: REMARK   11  A    between atoms: C9_12  and  O3_14
DOCKED: REMARK   12  A    between atoms: N3_17  and  C11_18
DOCKED: REMARK   13  A    between atoms: C11_18  and  C12_19
DOCKED: REMARK   14  A    between atoms: C11_18  and  C14_23
DOCKED: REMARK   15  A    between atoms: C12_19  and  C13_20
DOCKED: REMARK   16  A    between atoms: N5_25  and  C15_26
DOCKED: REMARK   17  A    between atoms: C15_26  and  C16_27
DOCKED: REMARK   18  A    between atoms: C15_26  and  C23_34
DOCKED: REMARK   19  A    between atoms: C16_27  and  C17_28
DOCKED: REMARK   20  A    between atoms: C23_34  and  O7_35
DOCKED: REMARK   21  A    between atoms: C23_34  and  C24_36
DOCKED: REMARK   22  A    between atoms: C24_36  and  C25_37
DOCKED: REMARK   23  A    between atoms: C25_37  and  C26_38
DOCKED: REMARK   24  A    between atoms: C25_37  and  C44_66
DOCKED: REMARK   25  A    between atoms: N6_40  and  C27_41
DOCKED: REMARK   26  A    between atoms: C27_41  and  C28_42
DOCKED: REMARK   27  A    between atoms: C27_41  and  C29_43
DOCKED: REMARK   28  A    between atoms: N7_45  and  C30_46
DOCKED: REMARK   29  A    between atoms: C30_46  and  C31_47
DOCKED: REMARK   30  A    between atoms: C30_46  and  C34_52
DOCKED: REMARK   31  A    between atoms: C31_47  and  C32_48
DOCKED: REMARK   32  A    between atoms: C32_48  and  C33_49
DOCKED: REMARK   33  A    between atoms: C33_49  and  O11_51
DOCKED: REMARK   34  A    between atoms: N8_54  and  C35_55
DOCKED: REMARK   35  A    between atoms: C35_55  and  C36_56
DOCKED: REMARK   36  A    between atoms: C35_55  and  C43_63
DOCKED: REMARK   37  A    between atoms: C36_56  and  C37_57
DOCKED: REMARK   38  A    between atoms: C43_63  and  O14_65
DOCKED: REMARK   39  A    between atoms: C44_66  and  C45_67
DOCKED: REMARK   40  A    between atoms: C44_66  and  C46_68
DOCKED: REMARK   41  A    between atoms: C44_66  and  O15_69
DOCKED: REMARK                            x       y       z     vdW  Elec       q    Type
DOCKED: REMARK                         _______ _______ _______ _____ _____    ______ ____
DOCKED: USER                              x       y       z     vdW  Elec       q    Type
DOCKED: USER                           _______ _______ _______ _____ _____    ______ ____
DOCKED: ROOT
DOCKED: ATOM      1  C23 UNL     1      16.775  -4.869  -4.111 +0.00 +0.00    +0.135 C  
DOCKED: ENDROOT
DOCKED: BRANCH   1   2
DOCKED: ATOM      2  O7  UNL     1      16.908  -3.461  -3.936 +0.00 -0.00    -0.390 OA 
DOCKED: ATOM      3  H40 UNL     1      16.052  -3.140  -3.607 +0.00 +0.00    +0.210 HD 
DOCKED: ENDBRANCH   1   2
DOCKED: BRANCH   1   4
DOCKED: ATOM      4  C24 UNL     1      16.259  -5.465  -2.785 +0.00 +0.00    +0.048 C  
DOCKED: BRANCH   4   5
DOCKED: ATOM      5  C25 UNL     1      15.260  -4.720  -1.854 +0.00 +0.00    +0.108 C  
DOCKED: BRANCH   5   6
DOCKED: ATOM      6  C26 UNL     1      13.916  -4.414  -2.528 +0.00 +0.00    +0.220 C  
DOCKED: ATOM      7  O8  UNL     1      13.815  -3.465  -3.304 +0.00 -0.00    -0.275 OA 
DOCKED: ATOM      8  N6  UNL     1      12.870  -5.239  -2.219 +0.00 -0.00    -0.304 N  
DOCKED: ATOM      9  H44 UNL     1      12.995  -5.914  -1.466 +0.00 +0.00    +0.149 HD 
DOCKED: BRANCH   8  10
DOCKED: ATOM     10  C27 UNL     1      11.482  -5.053  -2.646 +0.00 +0.00    +0.156 C  
DOCKED: ATOM     11  C28 UNL     1      11.218  -5.216  -4.137 +0.00 +0.00    +0.038 C  
DOCKED: BRANCH  10  12
DOCKED: ATOM     12  C29 UNL     1      10.893  -3.718  -2.133 +0.00 +0.00    +0.234 C  
DOCKED: ATOM     13  O9  UNL     1      10.025  -3.640  -1.263 +0.00 -0.00    -0.274 OA 
DOCKED: ATOM     14  N7  UNL     1      11.434  -2.589  -2.723 +0.00 -0.00    -0.302 N  
DOCKED: ATOM     15  H49 UNL     1      11.826  -2.696  -3.659 +0.00 +0.00    +0.150 HD 
DOCKED: BRANCH  14  16
DOCKED: ATOM     16  C30 UNL     1      10.923  -1.259  -2.382 +0.00 +0.00    +0.159 C  
DOCKED: BRANCH  16  17
DOCKED: ATOM     17  C34 UNL     1      12.053  -0.519  -1.642 +0.00 +0.00    +0.234 C  
DOCKED: ATOM     18  O12 UNL     1      11.918  -0.036  -0.520 +0.00 -0.00    -0.274 OA 
DOCKED: ATOM     19  N8  UNL     1      13.207  -0.376  -2.373 +0.00 -0.00    -0.301 N  
DOCKED: ATOM     20  H56 UNL     1      13.293  -0.848  -3.273 +0.00 +0.00    +0.150 HD 
DOCKED: BRANCH  19  21
DOCKED: ATOM     21  C35 UNL     1      14.451   0.101  -1.766 +0.00 +0.00    +0.186 C  
DOCKED: BRANCH  21  22
DOCKED: ATOM     22  C43 UNL     1      15.628  -0.504  -2.529 +0.00 +0.00    +0.326 C  
DOCKED: ATOM     23  O13 UNL     1      16.807  -0.214  -2.383 +0.00 -0.00    -0.249 OA 
DOCKED: BRANCH  22  24
DOCKED: ATOM     24  O14 UNL     1      15.262  -1.406  -3.464 +0.00 -0.00    -0.479 OA 
DOCKED: ATOM     25  H65 UNL     1      14.749  -0.870  -4.107 +0.00 +0.00    +0.295 HD 
DOCKED: ENDBRANCH  22  24
DOCKED: ENDBRANCH  21  22
DOCKED: BRANCH  21  26
DOCKED: ATOM     26  C36 UNL     1      14.542   1.631  -1.672 +0.00 +0.00    +0.069 C  
DOCKED: BRANCH  26  27
DOCKED: ATOM     27  C37 UNL     1      14.150   2.375  -2.929 +0.00 -0.00    -0.045 A  
DOCKED: ATOM     28  C38 UNL     1      15.131   2.889  -3.786 +0.00 +0.00    +0.004 A  
DOCKED: ATOM     29  C39 UNL     1      14.774   3.569  -4.950 +0.00 +0.00    +0.000 A  
DOCKED: ATOM     30  C40 UNL     1      13.431   3.748  -5.269 +0.00 +0.00    +0.000 A  
DOCKED: ATOM     31  C41 UNL     1      12.444   3.244  -4.424 +0.00 +0.00    +0.000 A  
DOCKED: ATOM     32  C42 UNL     1      12.800   2.561  -3.259 +0.00 +0.00    +0.004 A  
DOCKED: ENDBRANCH  26  27
DOCKED: ENDBRANCH  21  26
DOCKED: ENDBRANCH  19  21
DOCKED: ENDBRANCH  16  17
DOCKED: BRANCH  16  33
DOCKED: ATOM     33  C31 UNL     1      10.472  -0.520  -3.655 +0.00 +0.00    +0.043 C  
DOCKED: BRANCH  33  34
DOCKED: ATOM     34  C32 UNL     1      11.021  -1.127  -4.944 +0.00 +0.00    +0.123 C  
DOCKED: BRANCH  34  35
DOCKED: ATOM     35  C33 UNL     1      12.492  -0.885  -5.105 +0.00 +0.00    +0.305 C  
DOCKED: ATOM     36  O10 UNL     1      13.032   0.208  -5.161 +0.00 -0.00    -0.251 OA 
DOCKED: BRANCH  35  37
DOCKED: ATOM     37  O11 UNL     1      13.209  -2.022  -5.132 +0.00 -0.00    -0.481 OA 
DOCKED: ATOM     38  H55 UNL     1      14.046  -1.790  -4.678 +0.00 +0.00    +0.295 HD 
DOCKED: ENDBRANCH  35  37
DOCKED: ENDBRANCH  34  35
DOCKED: ENDBRANCH  33  34
DOCKED: ENDBRANCH  16  33
DOCKED: ENDBRANCH  14  16
DOCKED: ENDBRANCH  10  12
DOCKED: ENDBRANCH   8  10
DOCKED: ENDBRANCH   5   6
DOCKED: BRANCH   5  39
DOCKED: ATOM     39  C44 UNL     1      15.798  -3.645  -0.852 +0.00 +0.00    +0.072 C  
DOCKED: ATOM     40  C45 UNL     1      16.513  -4.344   0.319 +0.00 +0.00    +0.042 C  
DOCKED: ATOM     41  C46 UNL     1      14.775  -2.681  -0.239 +0.00 +0.00    +0.042 C  
DOCKED: BRANCH  39  42
DOCKED: ATOM     42  O15 UNL     1      16.795  -2.836  -1.493 +0.00 -0.00    -0.388 OA 
DOCKED: ATOM     43  H72 UNL     1      16.343  -2.410  -2.254 +0.00 +0.00    +0.210 HD 
DOCKED: ENDBRANCH  39  42
DOCKED: ENDBRANCH   5  39
DOCKED: ENDBRANCH   4   5
DOCKED: ENDBRANCH   1   4
DOCKED: BRANCH   1  44
DOCKED: ATOM     44  C15 UNL     1      15.978  -5.305  -5.389 +0.00 +0.00    +0.102 C  
DOCKED: BRANCH  44  47
DOCKED: ATOM     45  C14 UNL     1      13.687  -5.144  -6.413 +0.00 +0.00    +0.234 C  
DOCKED: ATOM     46  O6  UNL     1      13.760  -6.283  -6.877 +0.00 -0.00    -0.274 OA 
DOCKED: ATOM     47  N5  UNL     1      14.621  -4.704  -5.503 +0.00 -0.00    -0.308 N  
DOCKED: ATOM     48  H24 UNL     1      14.609  -3.690  -5.360 +0.00 +0.00    +0.149 HD 
DOCKED: BRANCH  45  49
DOCKED: ATOM     49  C11 UNL     1      12.571  -4.148  -6.832 +0.00 +0.00    +0.168 C  
DOCKED: BRANCH  49  52
DOCKED: ATOM     50  C10 UNL     1      12.470  -1.926  -7.938 +0.00 +0.00    +0.234 C  
DOCKED: ATOM     51  O4  UNL     1      11.237  -1.984  -7.995 +0.00 -0.00    -0.274 OA 
DOCKED: ATOM     52  N3  UNL     1      13.222  -2.973  -7.439 +0.00 -0.00    -0.302 N  
DOCKED: ATOM     53  H18 UNL     1      14.112  -2.719  -7.037 +0.00 +0.00    +0.150 HD 
DOCKED: BRANCH  50  54
DOCKED: ATOM     54  C4  UNL     1      13.278  -0.704  -8.485 +0.00 +0.00    +0.161 C  
DOCKED: BRANCH  54  55
DOCKED: ATOM     55  N1  UNL     1      14.408  -0.525  -7.570 +0.00 -0.00    -0.302 N  
DOCKED: ATOM     56  C5  UNL     1      15.233   0.582  -7.648 +0.00 +0.00    +0.230 C  
DOCKED: ATOM     57  O1  UNL     1      15.289   1.313  -8.631 +0.00 -0.00    -0.274 OA 
DOCKED: ATOM     58  H9  UNL     1      14.304  -0.925  -6.646 +0.00 +0.00    +0.150 HD 
DOCKED: BRANCH  56  59
DOCKED: ATOM     59  C6  UNL     1      16.107   0.794  -6.392 +0.00 +0.00    +0.138 C  
DOCKED: BRANCH  59  60
DOCKED: ATOM     60  N2  UNL     1      15.439   0.183  -5.225 +0.00 -0.00    -0.320 NA 
DOCKED: ATOM     61  H11 UNL     1      16.116  -0.249  -4.595 +0.00 +0.00    +0.119 HD 
DOCKED: ATOM     62  H12 UNL     1      14.784  -0.530  -5.550 +0.00 +0.00    +0.119 HD 
DOCKED: ENDBRANCH  59  60
DOCKED: BRANCH  59  63
DOCKED: ATOM     63  C7  UNL     1      17.511   0.221  -6.635 +0.00 +0.00    +0.039 C  
DOCKED: BRANCH  63  64
DOCKED: ATOM     64  C8  UNL     1      17.660  -1.253  -6.250 +0.00 +0.00    +0.122 C  
DOCKED: BRANCH  64  65
DOCKED: ATOM     65  C9  UNL     1      16.444  -2.065  -6.617 +0.00 +0.00    +0.305 C  
DOCKED: ATOM     66  O2  UNL     1      16.178  -2.547  -7.708 +0.00 -0.00    -0.251 OA 
DOCKED: BRANCH  65  67
DOCKED: ATOM     67  O3  UNL     1      15.620  -2.245  -5.567 +0.00 -0.00    -0.481 OA 
DOCKED: ATOM     68  H17 UNL     1      16.094  -1.846  -4.809 +0.00 +0.00    +0.295 HD 
DOCKED: ENDBRANCH  65  67
DOCKED: ENDBRANCH  64  65
DOCKED: ENDBRANCH  63  64
DOCKED: ENDBRANCH  59  63
DOCKED: ENDBRANCH  56  59
DOCKED: ENDBRANCH  54  55
DOCKED: BRANCH  54  70
DOCKED: ATOM     69  C1  UNL     1      12.761  -0.519 -10.996 +0.00 +0.00    +0.009 C  
DOCKED: ATOM     70  C2  UNL     1      13.834  -0.760  -9.928 +0.00 +0.00    +0.012 C  
DOCKED: ATOM     71  C3  UNL     1      14.647  -2.015 -10.242 +0.00 +0.00    +0.009 C  
DOCKED: ENDBRANCH  54  70
DOCKED: ENDBRANCH  50  54
DOCKED: ENDBRANCH  49  52
DOCKED: BRANCH  49  72
DOCKED: ATOM     72  C12 UNL     1      11.588  -4.743  -7.843 +0.00 +0.00    +0.127 C  
DOCKED: BRANCH  72  73
DOCKED: ATOM     73  C13 UNL     1      12.263  -5.053  -9.158 +0.00 +0.00    +0.213 C  
DOCKED: ATOM     74  N4  UNL     1      12.622  -6.356  -9.329 +0.00 -0.00    -0.329 N  
DOCKED: ATOM     75  O5  UNL     1      12.416  -4.229 -10.052 +0.00 -0.00    -0.276 OA 
DOCKED: ATOM     76  H22 UNL     1      13.115  -6.598 -10.180 +0.00 +0.00    +0.145 HD 
DOCKED: ATOM     77  H23 UNL     1      12.646  -7.027  -8.571 +0.00 +0.00    +0.145 HD 
DOCKED: ENDBRANCH  72  73
DOCKED: ENDBRANCH  49  72
DOCKED: ENDBRANCH  45  49
DOCKED: ENDBRANCH  44  47
DOCKED: BRANCH  44  78
DOCKED: ATOM     78  C16 UNL     1      16.719  -5.006  -6.726 +0.00 +0.00    +0.028 C  
DOCKED: BRANCH  78  79
DOCKED: ATOM     79  C17 UNL     1      16.731  -6.122  -7.789 +0.00 -0.00    -0.009 C  
DOCKED: ATOM     80  C18 UNL     1      16.315  -7.473  -7.155 +0.00 +0.00    +0.003 C  
DOCKED: ATOM     81  C19 UNL     1      15.835  -8.516  -8.171 +0.00 +0.00    +0.000 C  
DOCKED: ATOM     82  C20 UNL     1      16.371  -8.251  -9.570 +0.00 +0.00    +0.000 C  
DOCKED: ATOM     83  C21 UNL     1      15.953  -6.872 -10.083 +0.00 +0.00    +0.000 C  
DOCKED: ATOM     84  C22 UNL     1      15.796  -5.830  -8.972 +0.00 +0.00    +0.003 C  
DOCKED: ENDBRANCH  78  79
DOCKED: ENDBRANCH  44  78
DOCKED: ENDBRANCH   1  44
DOCKED: TORSDOF 36
DOCKED: TER
DOCKED: ENDMDL
________________________________________________________________________________


    FINAL DOCKED STATE:
    ________________________


Run:   5 / 20
Time taken for this run:   7.574s

DOCKED: MODEL        5
DOCKED: USER    Run = 5
DOCKED: USER
DOCKED: USER    Estimated Free Energy of Binding    = +10.74 kcal/mol  [=(1)+(2)+(3)-(4)]
DOCKED: USER
DOCKED: USER    (1) Final Intermolecular Energy     =  +0.00 kcal/mol
DOCKED: USER        vdW + Hbond + desolv Energy     =  +0.00 kcal/mol
DOCKED: USER        Electrostatic Energy            =  +0.00 kcal/mol
DOCKED: USER        Moving Ligand-Fixed Receptor    =  +0.00 kcal/mol
DOCKED: USER        Moving Ligand-Moving Receptor   =  +0.00 kcal/mol
DOCKED: USER    (2) Final Total Internal Energy     = -33.15 kcal/mol
DOCKED: USER    (3) Torsional Free Energy           = +10.74 kcal/mol
DOCKED: USER    (4) Unbound System's Energy         = -33.15 kcal/mol
DOCKED: USER
DOCKED: USER
DOCKED: REMARK  Name = ligands/ligand_16.pdb
DOCKED: REMARK  41 active torsions:
DOCKED: REMARK  status: ('A' for Active; 'I' for Inactive)
DOCKED: REMARK    1  A    between atoms: C1_1  and  C2_2
DOCKED: REMARK    2  A    between atoms: C2_2  and  C3_3
DOCKED: REMARK    3  A    between atoms: C2_2  and  C4_4
DOCKED: REMARK    4  A    between atoms: C4_4  and  N1_5
DOCKED: REMARK    5  A    between atoms: C4_4  and  C10_15
DOCKED: REMARK    6  A    between atoms: C5_6  and  C6_8
DOCKED: REMARK    7  A    between atoms: C6_8  and  N2_9
DOCKED: REMARK    8  A    between atoms: C6_8  and  C7_10
DOCKED: REMARK    9  A    between atoms: C7_10  and  C8_11
DOCKED: REMARK   10  A    between atoms: C8_11  and  C9_12
DOCKED: REMARK   11  A    between atoms: C9_12  and  O3_14
DOCKED: REMARK   12  A    between atoms: N3_17  and  C11_18
DOCKED: REMARK   13  A    between atoms: C11_18  and  C12_19
DOCKED: REMARK   14  A    between atoms: C11_18  and  C14_23
DOCKED: REMARK   15  A    between atoms: C12_19  and  C13_20
DOCKED: REMARK   16  A    between atoms: N5_25  and  C15_26
DOCKED: REMARK   17  A    between atoms: C15_26  and  C16_27
DOCKED: REMARK   18  A    between atoms: C15_26  and  C23_34
DOCKED: REMARK   19  A    between atoms: C16_27  and  C17_28
DOCKED: REMARK   20  A    between atoms: C23_34  and  O7_35
DOCKED: REMARK   21  A    between atoms: C23_34  and  C24_36
DOCKED: REMARK   22  A    between atoms: C24_36  and  C25_37
DOCKED: REMARK   23  A    between atoms: C25_37  and  C26_38
DOCKED: REMARK   24  A    between atoms: C25_37  and  C44_66
DOCKED: REMARK   25  A    between atoms: N6_40  and  C27_41
DOCKED: REMARK   26  A    between atoms: C27_41  and  C28_42
DOCKED: REMARK   27  A    between atoms: C27_41  and  C29_43
DOCKED: REMARK   28  A    between atoms: N7_45  and  C30_46
DOCKED: REMARK   29  A    between atoms: C30_46  and  C31_47
DOCKED: REMARK   30  A    between atoms: C30_46  and  C34_52
DOCKED: REMARK   31  A    between atoms: C31_47  and  C32_48
DOCKED: REMARK   32  A    between atoms: C32_48  and  C33_49
DOCKED: REMARK   33  A    between atoms: C33_49  and  O11_51
DOCKED: REMARK   34  A    between atoms: N8_54  and  C35_55
DOCKED: REMARK   35  A    between atoms: C35_55  and  C36_56
DOCKED: REMARK   36  A    between atoms: C35_55  and  C43_63
DOCKED: REMARK   37  A    between atoms: C36_56  and  C37_57
DOCKED: REMARK   38  A    between atoms: C43_63  and  O14_65
DOCKED: REMARK   39  A    between atoms: C44_66  and  C45_67
DOCKED: REMARK   40  A    between atoms: C44_66  and  C46_68
DOCKED: REMARK   41  A    between atoms: C44_66  and  O15_69
DOCKED: REMARK                            x       y       z     vdW  Elec       q    Type
DOCKED: REMARK                         _______ _______ _______ _____ _____    ______ ____
DOCKED: USER                              x       y       z     vdW  Elec       q    Type
DOCKED: USER                           _______ _______ _______ _____ _____    ______ ____
DOCKED: ROOT
DOCKED: ATOM      1  C23 UNL     1       8.979  -6.718  -4.584 +0.00 +0.00    +0.135 C  
DOCKED: ENDROOT
DOCKED: BRANCH   1   2
DOCKED: ATOM      2  O7  UNL     1      10.083  -7.545  -4.223 +0.00 -0.00    -0.390 OA 
DOCKED: ATOM      3  H40 UNL     1      10.662  -7.004  -3.660 +0.00 +0.00    +0.210 HD 
DOCKED: ENDBRANCH   1   2
DOCKED: BRANCH   1   4
DOCKED: ATOM      4  C24 UNL     1       9.541  -5.381  -5.111 +0.00 +0.00    +0.048 C  
DOCKED: BRANCH   4   5
DOCKED: ATOM      5  C25 UNL     1      11.012  -5.209  -5.586 +0.00 +0.00    +0.108 C  
DOCKED: BRANCH   5   6
DOCKED: ATOM      6  C26 UNL     1      11.314  -5.936  -6.903 +0.00 +0.00    +0.220 C  
DOCKED: ATOM      7  O8  UNL     1      11.246  -5.332  -7.971 +0.00 -0.00    -0.275 OA 
DOCKED: ATOM      8  N6  UNL     1      11.652  -7.258  -6.813 +0.00 -0.00    -0.304 N  
DOCKED: ATOM      9  H44 UNL     1      11.552  -7.720  -5.910 +0.00 +0.00    +0.149 HD 
DOCKED: BRANCH   8  10
DOCKED: ATOM     10  C27 UNL     1      11.853  -8.165  -7.944 +0.00 +0.00    +0.156 C  
DOCKED: ATOM     11  C28 UNL     1      10.673  -9.061  -8.296 +0.00 +0.00    +0.038 C  
DOCKED: BRANCH  10  12
DOCKED: ATOM     12  C29 UNL     1      13.144  -9.004  -7.790 +0.00 +0.00    +0.234 C  
DOCKED: ATOM     13  O9  UNL     1      13.500  -9.869  -8.589 +0.00 -0.00    -0.274 OA 
DOCKED: ATOM     14  N7  UNL     1      13.898  -8.693  -6.672 +0.00 -0.00    -0.302 N  
DOCKED: ATOM     15  H49 UNL     1      13.405  -8.287  -5.876 +0.00 +0.00    +0.150 HD 
DOCKED: BRANCH  14  16
DOCKED: ATOM     16  C30 UNL     1      15.112  -9.453  -6.364 +0.00 +0.00    +0.159 C  
DOCKED: BRANCH  16  17
DOCKED: ATOM     17  C34 UNL     1      15.998  -8.550  -5.484 +0.00 +0.00    +0.234 C  
DOCKED: ATOM     18  O12 UNL     1      17.207  -8.417  -5.659 +0.00 -0.00    -0.274 OA 
DOCKED: ATOM     19  N8  UNL     1      15.334  -7.962  -4.434 +0.00 -0.00    -0.301 N  
DOCKED: ATOM     20  H56 UNL     1      14.321  -8.051  -4.366 +0.00 +0.00    +0.150 HD 
DOCKED: BRANCH  19  21
DOCKED: ATOM     21  C35 UNL     1      15.951  -6.908  -3.625 +0.00 +0.00    +0.186 C  
DOCKED: BRANCH  21  22
DOCKED: ATOM     22  C43 UNL     1      14.878  -6.291  -2.731 +0.00 +0.00    +0.326 C  
DOCKED: ATOM     23  O13 UNL     1      14.853  -5.136  -2.328 +0.00 -0.00    -0.249 OA 
DOCKED: BRANCH  22  24
DOCKED: ATOM     24  O14 UNL     1      13.920  -7.163  -2.352 +0.00 -0.00    -0.479 OA 
DOCKED: ATOM     25  H65 UNL     1      13.589  -7.520  -3.204 +0.00 +0.00    +0.295 HD 
DOCKED: ENDBRANCH  22  24
DOCKED: ENDBRANCH  21  22
DOCKED: BRANCH  21  26
DOCKED: ATOM     26  C36 UNL     1      17.175  -7.382  -2.826 +0.00 +0.00    +0.069 C  
DOCKED: BRANCH  26  27
DOCKED: ATOM     27  C37 UNL     1      17.064  -8.777  -2.253 +0.00 -0.00    -0.045 A  
DOCKED: ATOM     28  C38 UNL     1      16.211  -9.035  -1.171 +0.00 +0.00    +0.004 A  
DOCKED: ATOM     29  C39 UNL     1      16.100 -10.321  -0.644 +0.00 +0.00    +0.000 A  
DOCKED: ATOM     30  C40 UNL     1      16.844 -11.365  -1.188 +0.00 +0.00    +0.000 A  
DOCKED: ATOM     31  C41 UNL     1      17.698 -11.122  -2.262 +0.00 +0.00    +0.000 A  
DOCKED: ATOM     32  C42 UNL     1      17.808  -9.835  -2.793 +0.00 +0.00    +0.004 A  
DOCKED: ENDBRANCH  26  27
DOCKED: ENDBRANCH  21  26
DOCKED: ENDBRANCH  19  21
DOCKED: ENDBRANCH  16  17
DOCKED: BRANCH  16  33
DOCKED: ATOM     33  C31 UNL     1      14.748 -10.777  -5.668 +0.00 +0.00    +0.043 C  
DOCKED: BRANCH  33  34
DOCKED: ATOM     34  C32 UNL     1      13.341 -10.793  -5.078 +0.00 +0.00    +0.123 C  
DOCKED: BRANCH  34  35
DOCKED: ATOM     35  C33 UNL     1      13.152  -9.738  -4.028 +0.00 +0.00    +0.305 C  
DOCKED: ATOM     36  O10 UNL     1      13.765  -9.663  -2.975 +0.00 -0.00    -0.251 OA 
DOCKED: BRANCH  35  37
DOCKED: ATOM     37  O11 UNL     1      12.248  -8.807  -4.379 +0.00 -0.00    -0.481 OA 
DOCKED: ATOM     38  H55 UNL     1      11.412  -9.118  -3.972 +0.00 +0.00    +0.295 HD 
DOCKED: ENDBRANCH  35  37
DOCKED: ENDBRANCH  34  35
DOCKED: ENDBRANCH  33  34
DOCKED: ENDBRANCH  16  33
DOCKED: ENDBRANCH  14  16
DOCKED: ENDBRANCH  10  12
DOCKED: ENDBRANCH   8  10
DOCKED: ENDBRANCH   5   6
DOCKED: BRANCH   5  39
DOCKED: ATOM     39  C44 UNL     1      12.164  -5.181  -4.526 +0.00 +0.00    +0.072 C  
DOCKED: ATOM     40  C45 UNL     1      11.598  -4.745  -3.161 +0.00 +0.00    +0.042 C  
DOCKED: ATOM     41  C46 UNL     1      13.367  -4.277  -4.819 +0.00 +0.00    +0.042 C  
DOCKED: BRANCH  39  42
DOCKED: ATOM     42  O15 UNL     1      12.681  -6.506  -4.332 +0.00 -0.00    -0.388 OA 
DOCKED: ATOM     43  H72 UNL     1      12.122  -6.909  -3.632 +0.00 +0.00    +0.210 HD 
DOCKED: ENDBRANCH  39  42
DOCKED: ENDBRANCH   5  39
DOCKED: ENDBRANCH   4   5
DOCKED: ENDBRANCH   1   4
DOCKED: BRANCH   1  44
DOCKED: ATOM     44  C15 UNL     1       7.915  -7.402  -5.511 +0.00 +0.00    +0.102 C  
DOCKED: BRANCH  44  47
DOCKED: ATOM     45  C14 UNL     1       7.542  -9.649  -6.576 +0.00 +0.00    +0.234 C  
DOCKED: ATOM     46  O6  UNL     1       6.346  -9.418  -6.762 +0.00 -0.00    -0.274 OA 
DOCKED: ATOM     47  N5  UNL     1       8.393  -8.638  -6.188 +0.00 -0.00    -0.308 N  
DOCKED: ATOM     48  H24 UNL     1       9.296  -8.973  -5.842 +0.00 +0.00    +0.149 HD 
DOCKED: BRANCH  45  49
DOCKED: ATOM     49  C11 UNL     1       8.149 -11.069  -6.747 +0.00 +0.00    +0.168 C  
DOCKED: BRANCH  49  52
DOCKED: ATOM     50  C10 UNL     1       9.739 -10.915  -4.845 +0.00 +0.00    +0.234 C  
DOCKED: ATOM     51  O4  UNL     1      10.416 -10.075  -5.448 +0.00 -0.00    -0.274 OA 
DOCKED: ATOM     52  N3  UNL     1       8.637 -11.510  -5.428 +0.00 -0.00    -0.302 N  
DOCKED: ATOM     53  H18 UNL     1       7.923 -11.828  -4.790 +0.00 +0.00    +0.150 HD 
DOCKED: BRANCH  50  54
DOCKED: ATOM     54  C4  UNL     1      10.111 -11.418  -3.411 +0.00 +0.00    +0.161 C  
DOCKED: BRANCH  54  55
DOCKED: ATOM     55  N1  UNL     1      10.388 -10.216  -2.622 +0.00 -0.00    -0.302 N  
DOCKED: ATOM     56  C5  UNL     1      11.195 -10.258  -1.500 +0.00 +0.00    +0.230 C  
DOCKED: ATOM     57  O1  UNL     1      11.480 -11.297  -0.913 +0.00 -0.00    -0.274 OA 
DOCKED: ATOM     58  H9  UNL     1      10.390  -9.339  -3.126 +0.00 +0.00    +0.150 HD 
DOCKED: BRANCH  56  59
DOCKED: ATOM     59  C6  UNL     1      11.682  -8.868  -1.033 +0.00 +0.00    +0.138 C  
DOCKED: BRANCH  59  60
DOCKED: ATOM     60  N2  UNL     1      11.632  -7.927  -2.170 +0.00 -0.00    -0.320 NA 
DOCKED: ATOM     61  H11 UNL     1      10.815  -8.100  -2.758 +0.00 +0.00    +0.119 HD 
DOCKED: ATOM     62  H12 UNL     1      12.476  -8.038  -2.733 +0.00 +0.00    +0.119 HD 
DOCKED: ENDBRANCH  59  60
DOCKED: BRANCH  59  63
DOCKED: ATOM     63  C7  UNL     1      10.836  -8.398   0.160 +0.00 +0.00    +0.039 C  
DOCKED: BRANCH  63  64
DOCKED: ATOM     64  C8  UNL     1       9.335  -8.320  -0.130 +0.00 +0.00    +0.122 C  
DOCKED: BRANCH  64  65
DOCKED: ATOM     65  C9  UNL     1       9.049  -7.883  -1.544 +0.00 +0.00    +0.305 C  
DOCKED: ATOM     66  O2  UNL     1       8.482  -8.524  -2.416 +0.00 -0.00    -0.251 OA 
DOCKED: BRANCH  65  67
DOCKED: ATOM     67  O3  UNL     1       9.482  -6.630  -1.783 +0.00 -0.00    -0.481 OA 
DOCKED: ATOM     68  H17 UNL     1      10.352  -6.748  -2.217 +0.00 +0.00    +0.295 HD 
DOCKED: ENDBRANCH  65  67
DOCKED: ENDBRANCH  64  65
DOCKED: ENDBRANCH  63  64
DOCKED: ENDBRANCH  59  63
DOCKED: ENDBRANCH  56  59
DOCKED: ENDBRANCH  54  55
DOCKED: BRANCH  54  70
DOCKED: ATOM     69  C1  UNL     1       8.892 -13.674  -3.235 +0.00 +0.00    +0.009 C  
DOCKED: ATOM     70  C2  UNL     1       9.087 -12.279  -2.632 +0.00 +0.00    +0.012 C  
DOCKED: ATOM     71  C3  UNL     1       7.742 -11.594  -2.389 +0.00 +0.00    +0.009 C  
DOCKED: ENDBRANCH  54  70
DOCKED: ENDBRANCH  50  54
DOCKED: ENDBRANCH  49  52
DOCKED: BRANCH  49  72
DOCKED: ATOM     72  C12 UNL     1       7.137 -12.093  -7.265 +0.00 +0.00    +0.127 C  
DOCKED: BRANCH  72  73
DOCKED: ATOM     73  C13 UNL     1       6.087 -12.412  -6.226 +0.00 +0.00    +0.213 C  
DOCKED: ATOM     74  N4  UNL     1       4.906 -11.750  -6.377 +0.00 -0.00    -0.329 N  
DOCKED: ATOM     75  O5  UNL     1       6.236 -13.257  -5.351 +0.00 -0.00    -0.276 OA 
DOCKED: ATOM     76  H22 UNL     1       4.191 -11.905  -5.677 +0.00 +0.00    +0.145 HD 
DOCKED: ATOM     77  H23 UNL     1       4.794 -10.951  -6.988 +0.00 +0.00    +0.145 HD 
DOCKED: ENDBRANCH  72  73
DOCKED: ENDBRANCH  49  72
DOCKED: ENDBRANCH  45  49
DOCKED: ENDBRANCH  44  47
DOCKED: BRANCH  44  78
DOCKED: ATOM     78  C16 UNL     1       6.588  -7.768  -4.784 +0.00 +0.00    +0.028 C  
DOCKED: BRANCH  78  79
DOCKED: ATOM     79  C17 UNL     1       5.806  -6.614  -4.124 +0.00 -0.00    -0.009 C  
DOCKED: ATOM     80  C18 UNL     1       6.234  -6.451  -2.644 +0.00 +0.00    +0.003 C  
DOCKED: ATOM     81  C19 UNL     1       5.897  -5.080  -2.047 +0.00 +0.00    +0.000 C  
DOCKED: ATOM     82  C20 UNL     1       4.761  -4.390  -2.787 +0.00 +0.00    +0.000 C  
DOCKED: ATOM     83  C21 UNL     1       5.091  -4.185  -4.266 +0.00 +0.00    +0.000 C  
DOCKED: ATOM     84  C22 UNL     1       6.005  -5.272  -4.841 +0.00 +0.00    +0.003 C  
DOCKED: ENDBRANCH  78  79
DOCKED: ENDBRANCH  44  78
DOCKED: ENDBRANCH   1  44
DOCKED: TORSDOF 36
DOCKED: TER
DOCKED: ENDMDL
________________________________________________________________________________


    FINAL DOCKED STATE:
    ________________________


Run:   6 / 20
Time taken for this run:   7.574s

DOCKED: MODEL        6
DOCKED: USER    Run = 6
DOCKED: USER
DOCKED: USER    Estimated Free Energy of Binding    = +10.74 kcal/mol  [=(1)+(2)+(3)-(4)]
DOCKED: USER
DOCKED: USER    (1) Final Intermolecular Energy     =  +0.00 kcal/mol
DOCKED: USER        vdW + Hbond + desolv Energy     =  +0.00 kcal/mol
DOCKED: USER        Electrostatic Energy            =  +0.00 kcal/mol
DOCKED: USER        Moving Ligand-Fixed Receptor    =  +0.00 kcal/mol
DOCKED: USER        Moving Ligand-Moving Receptor   =  +0.00 kcal/mol
DOCKED: USER    (2) Final Total Internal Energy     = -32.39 kcal/mol
DOCKED: USER    (3) Torsional Free Energy           = +10.74 kcal/mol
DOCKED: USER    (4) Unbound System's Energy         = -32.39 kcal/mol
DOCKED: USER
DOCKED: USER
DOCKED: REMARK  Name = ligands/ligand_16.pdb
DOCKED: REMARK  41 active torsions:
DOCKED: REMARK  status: ('A' for Active; 'I' for Inactive)
DOCKED: REMARK    1  A    between atoms: C1_1  and  C2_2
DOCKED: REMARK    2  A    between atoms: C2_2  and  C3_3
DOCKED: REMARK    3  A    between atoms: C2_2  and  C4_4
DOCKED: REMARK    4  A    between atoms: C4_4  and  N1_5
DOCKED: REMARK    5  A    between atoms: C4_4  and  C10_15
DOCKED: REMARK    6  A    between atoms: C5_6  and  C6_8
DOCKED: REMARK    7  A    between atoms: C6_8  and  N2_9
DOCKED: REMARK    8  A    between atoms: C6_8  and  C7_10
DOCKED: REMARK    9  A    between atoms: C7_10  and  C8_11
DOCKED: REMARK   10  A    between atoms: C8_11  and  C9_12
DOCKED: REMARK   11  A    between atoms: C9_12  and  O3_14
DOCKED: REMARK   12  A    between atoms: N3_17  and  C11_18
DOCKED: REMARK   13  A    between atoms: C11_18  and  C12_19
DOCKED: REMARK   14  A    between atoms: C11_18  and  C14_23
DOCKED: REMARK   15  A    between atoms: C12_19  and  C13_20
DOCKED: REMARK   16  A    between atoms: N5_25  and  C15_26
DOCKED: REMARK   17  A    between atoms: C15_26  and  C16_27
DOCKED: REMARK   18  A    between atoms: C15_26  and  C23_34
DOCKED: REMARK   19  A    between atoms: C16_27  and  C17_28
DOCKED: REMARK   20  A    between atoms: C23_34  and  O7_35
DOCKED: REMARK   21  A    between atoms: C23_34  and  C24_36
DOCKED: REMARK   22  A    between atoms: C24_36  and  C25_37
DOCKED: REMARK   23  A    between atoms: C25_37  and  C26_38
DOCKED: REMARK   24  A    between atoms: C25_37  and  C44_66
DOCKED: REMARK   25  A    between atoms: N6_40  and  C27_41
DOCKED: REMARK   26  A    between atoms: C27_41  and  C28_42
DOCKED: REMARK   27  A    between atoms: C27_41  and  C29_43
DOCKED: REMARK   28  A    between atoms: N7_45  and  C30_46
DOCKED: REMARK   29  A    between atoms: C30_46  and  C31_47
DOCKED: REMARK   30  A    between atoms: C30_46  and  C34_52
DOCKED: REMARK   31  A    between atoms: C31_47  and  C32_48
DOCKED: REMARK   32  A    between atoms: C32_48  and  C33_49
DOCKED: REMARK   33  A    between atoms: C33_49  and  O11_51
DOCKED: REMARK   34  A    between atoms: N8_54  and  C35_55
DOCKED: REMARK   35  A    between atoms: C35_55  and  C36_56
DOCKED: REMARK   36  A    between atoms: C35_55  and  C43_63
DOCKED: REMARK   37  A    between atoms: C36_56  and  C37_57
DOCKED: REMARK   38  A    between atoms: C43_63  and  O14_65
DOCKED: REMARK   39  A    between atoms: C44_66  and  C45_67
DOCKED: REMARK   40  A    between atoms: C44_66  and  C46_68
DOCKED: REMARK   41  A    between atoms: C44_66  and  O15_69
DOCKED: REMARK                            x       y       z     vdW  Elec       q    Type
DOCKED: REMARK                         _______ _______ _______ _____ _____    ______ ____
DOCKED: USER                              x       y       z     vdW  Elec       q    Type
DOCKED: USER                           _______ _______ _______ _____ _____    ______ ____
DOCKED: ROOT
DOCKED: ATOM      1  C23 UNL     1      19.985  -5.059   4.314 +0.00 +0.00    +0.135 C  
DOCKED: ENDROOT
DOCKED: BRANCH   1   2
DOCKED: ATOM      2  O7  UNL     1      19.923  -3.785   3.678 +0.00 -0.00    -0.390 OA 
DOCKED: ATOM      3  H40 UNL     1      19.153  -3.807   3.087 +0.00 +0.00    +0.210 HD 
DOCKED: ENDBRANCH   1   2
DOCKED: BRANCH   1   4
DOCKED: ATOM      4  C24 UNL     1      19.192  -4.968   5.635 +0.00 +0.00    +0.048 C  
DOCKED: BRANCH   4   5
DOCKED: ATOM      5  C25 UNL     1      17.765  -4.357   5.725 +0.00 +0.00    +0.108 C  
DOCKED: BRANCH   5   6
DOCKED: ATOM      6  C26 UNL     1      16.649  -5.389   5.520 +0.00 +0.00    +0.220 C  
DOCKED: ATOM      7  O8  UNL     1      16.825  -6.562   5.843 +0.00 -0.00    -0.275 OA 
DOCKED: ATOM      8  N6  UNL     1      15.482  -4.933   4.971 +0.00 -0.00    -0.304 N  
DOCKED: ATOM      9  H44 UNL     1      15.461  -3.983   4.604 +0.00 +0.00    +0.149 HD 
DOCKED: BRANCH   8  10
DOCKED: ATOM     10  C27 UNL     1      14.344  -5.765   4.575 +0.00 +0.00    +0.156 C  
DOCKED: ATOM     11  C28 UNL     1      14.542  -7.269   4.706 +0.00 +0.00    +0.038 C  
DOCKED: BRANCH  10  12
DOCKED: ATOM     12  C29 UNL     1      13.829  -5.406   3.161 +0.00 +0.00    +0.234 C  
DOCKED: ATOM     13  O9  UNL     1      12.896  -5.982   2.604 +0.00 -0.00    -0.274 OA 
DOCKED: ATOM     14  N7  UNL     1      14.500  -4.355   2.559 +0.00 -0.00    -0.302 N  
DOCKED: ATOM     15  H49 UNL     1      15.461  -4.184   2.857 +0.00 +0.00    +0.150 HD 
DOCKED: BRANCH  14  16
DOCKED: ATOM     16  C30 UNL     1      14.164  -3.951   1.192 +0.00 +0.00    +0.159 C  
DOCKED: BRANCH  16  17
DOCKED: ATOM     17  C34 UNL     1      14.697  -2.518   1.002 +0.00 +0.00    +0.234 C  
DOCKED: ATOM     18  O12 UNL     1      13.984  -1.574   0.670 +0.00 -0.00    -0.274 OA 
DOCKED: ATOM     19  N8  UNL     1      16.056  -2.398   1.160 +0.00 -0.00    -0.301 N  
DOCKED: ATOM     20  H56 UNL     1      16.595  -3.195   1.497 +0.00 +0.00    +0.150 HD 
DOCKED: BRANCH  19  21
DOCKED: ATOM     21  C35 UNL     1      16.712  -1.090   1.235 +0.00 +0.00    +0.186 C  
DOCKED: BRANCH  21  22
DOCKED: ATOM     22  C43 UNL     1      18.224  -1.304   1.253 +0.00 +0.00    +0.326 C  
DOCKED: ATOM     23  O13 UNL     1      19.054  -0.630   0.658 +0.00 -0.00    -0.249 OA 
DOCKED: BRANCH  22  24
DOCKED: ATOM     24  O14 UNL     1      18.611  -2.376   1.975 +0.00 -0.00    -0.479 OA 
DOCKED: ATOM     25  H65 UNL     1      18.075  -3.107   1.601 +0.00 +0.00    +0.295 HD 
DOCKED: ENDBRANCH  22  24
DOCKED: ENDBRANCH  21  22
DOCKED: BRANCH  21  26
DOCKED: ATOM     26  C36 UNL     1      16.272  -0.118   0.129 +0.00 +0.00    +0.069 C  
DOCKED: BRANCH  26  27
DOCKED: ATOM     27  C37 UNL     1      16.483  -0.617  -1.283 +0.00 -0.00    -0.045 A  
DOCKED: ATOM     28  C38 UNL     1      17.684  -0.359  -1.955 +0.00 +0.00    +0.004 A  
DOCKED: ATOM     29  C39 UNL     1      17.886  -0.823  -3.255 +0.00 +0.00    +0.000 A  
DOCKED: ATOM     30  C40 UNL     1      16.887  -1.548  -3.900 +0.00 +0.00    +0.000 A  
DOCKED: ATOM     31  C41 UNL     1      15.686  -1.809  -3.243 +0.00 +0.00    +0.000 A  
DOCKED: ATOM     32  C42 UNL     1      15.483  -1.347  -1.941 +0.00 +0.00    +0.004 A  
DOCKED: ENDBRANCH  26  27
DOCKED: ENDBRANCH  21  26
DOCKED: ENDBRANCH  19  21
DOCKED: ENDBRANCH  16  17
DOCKED: BRANCH  16  33
DOCKED: ATOM     33  C31 UNL     1      14.768  -4.942   0.180 +0.00 +0.00    +0.043 C  
DOCKED: BRANCH  33  34
DOCKED: ATOM     34  C32 UNL     1      15.858  -5.832   0.770 +0.00 +0.00    +0.123 C  
DOCKED: BRANCH  34  35
DOCKED: ATOM     35  C33 UNL     1      17.134  -5.082   1.015 +0.00 +0.00    +0.305 C  
DOCKED: ATOM     36  O10 UNL     1      17.836  -4.572   0.159 +0.00 -0.00    -0.251 OA 
DOCKED: BRANCH  35  37
DOCKED: ATOM     37  O11 UNL     1      17.428  -4.967   2.322 +0.00 -0.00    -0.481 OA 
DOCKED: ATOM     38  H55 UNL     1      18.233  -4.408   2.340 +0.00 +0.00    +0.295 HD 
DOCKED: ENDBRANCH  35  37
DOCKED: ENDBRANCH  34  35
DOCKED: ENDBRANCH  33  34
DOCKED: ENDBRANCH  16  33
DOCKED: ENDBRANCH  14  16
DOCKED: ENDBRANCH  10  12
DOCKED: ENDBRANCH   8  10
DOCKED: ENDBRANCH   5   6
DOCKED: BRANCH   5  39
DOCKED: ATOM     39  C44 UNL     1      17.504  -2.925   5.150 +0.00 +0.00    +0.072 C  
DOCKED: ATOM     40  C45 UNL     1      18.787  -2.081   5.264 +0.00 +0.00    +0.042 C  
DOCKED: ATOM     41  C46 UNL     1      16.375  -2.106   5.787 +0.00 +0.00    +0.042 C  
DOCKED: BRANCH  39  42
DOCKED: ATOM     42  O15 UNL     1      17.212  -3.008   3.747 +0.00 -0.00    -0.388 OA 
DOCKED: ATOM     43  H72 UNL     1      18.076  -3.149   3.303 +0.00 +0.00    +0.210 HD 
DOCKED: ENDBRANCH  39  42
DOCKED: ENDBRANCH   5  39
DOCKED: ENDBRANCH   4   5
DOCKED: ENDBRANCH   1   4
DOCKED: BRANCH   1  44
DOCKED: ATOM     44  C15 UNL     1      19.611  -6.275   3.398 +0.00 +0.00    +0.102 C  
DOCKED: BRANCH  44  47
DOCKED: ATOM     45  C14 UNL     1      20.326  -5.409   1.149 +0.00 +0.00    +0.234 C  
DOCKED: ATOM     46  O6  UNL     1      19.947  -4.267   1.412 +0.00 -0.00    -0.274 OA 
DOCKED: ATOM     47  N5  UNL     1      20.399  -6.362   2.138 +0.00 -0.00    -0.308 N  
DOCKED: ATOM     48  H24 UNL     1      20.497  -7.317   1.782 +0.00 +0.00    +0.149 HD 
DOCKED: BRANCH  45  49
DOCKED: ATOM     49  C11 UNL     1      20.719  -5.840  -0.291 +0.00 +0.00    +0.168 C  
DOCKED: BRANCH  49  52
DOCKED: ATOM     50  C10 UNL     1      19.052  -7.682  -0.339 +0.00 +0.00    +0.234 C  
DOCKED: ATOM     51  O4  UNL     1      19.621  -8.251   0.599 +0.00 -0.00    -0.274 OA 
DOCKED: ATOM     52  N3  UNL     1      19.555  -6.519  -0.890 +0.00 -0.00    -0.302 N  
DOCKED: ATOM     53  H18 UNL     1      18.875  -5.909  -1.319 +0.00 +0.00    +0.150 HD 
DOCKED: BRANCH  50  54
DOCKED: ATOM     54  C4  UNL     1      17.770  -8.263  -1.019 +0.00 +0.00    +0.161 C  
DOCKED: BRANCH  54  55
DOCKED: ATOM     55  N1  UNL     1      17.333  -7.253  -1.986 +0.00 -0.00    -0.302 N  
DOCKED: ATOM     56  C5  UNL     1      16.001  -6.912  -2.123 +0.00 +0.00    +0.230 C  
DOCKED: ATOM     57  O1  UNL     1      15.081  -7.605  -1.702 +0.00 -0.00    -0.274 OA 
DOCKED: ATOM     58  H9  UNL     1      17.995  -6.515  -2.193 +0.00 +0.00    +0.150 HD 
DOCKED: BRANCH  56  59
DOCKED: ATOM     59  C6  UNL     1      15.775  -5.588  -2.888 +0.00 +0.00    +0.138 C  
DOCKED: BRANCH  59  60
DOCKED: ATOM     60  N2  UNL     1      16.843  -4.633  -2.534 +0.00 -0.00    -0.320 NA 
DOCKED: ATOM     61  H11 UNL     1      17.317  -4.281  -3.368 +0.00 +0.00    +0.119 HD 
DOCKED: ATOM     62  H12 UNL     1      17.525  -5.101  -1.936 +0.00 +0.00    +0.119 HD 
DOCKED: ENDBRANCH  59  60
DOCKED: BRANCH  59  63
DOCKED: ATOM     63  C7  UNL     1      15.710  -5.868  -4.398 +0.00 +0.00    +0.039 C  
DOCKED: BRANCH  63  64
DOCKED: ATOM     64  C8  UNL     1      16.997  -5.528  -5.153 +0.00 +0.00    +0.122 C  
DOCKED: BRANCH  64  65
DOCKED: ATOM     65  C9  UNL     1      18.154  -6.396  -4.728 +0.00 +0.00    +0.305 C  
DOCKED: ATOM     66  O2  UNL     1      18.603  -7.369  -5.315 +0.00 -0.00    -0.251 OA 
DOCKED: BRANCH  65  67
DOCKED: ATOM     67  O3  UNL     1      18.707  -5.974  -3.575 +0.00 -0.00    -0.481 OA 
DOCKED: ATOM     68  H17 UNL     1      18.663  -4.997  -3.623 +0.00 +0.00    +0.295 HD 
DOCKED: ENDBRANCH  65  67
DOCKED: ENDBRANCH  64  65
DOCKED: ENDBRANCH  63  64
DOCKED: ENDBRANCH  59  63
DOCKED: ENDBRANCH  56  59
DOCKED: ENDBRANCH  54  55
DOCKED: BRANCH  54  70
DOCKED: ATOM     69  C1  UNL     1      17.588  -9.514  -3.257 +0.00 +0.00    +0.009 C  
DOCKED: ATOM     70  C2  UNL     1      17.863  -9.622  -1.753 +0.00 +0.00    +0.012 C  
DOCKED: ATOM     71  C3  UNL     1      17.030 -10.738  -1.123 +0.00 +0.00    +0.009 C  
DOCKED: ENDBRANCH  54  70
DOCKED: ENDBRANCH  50  54
DOCKED: ENDBRANCH  49  52
DOCKED: BRANCH  49  72
DOCKED: ATOM     72  C12 UNL     1      21.112  -4.660  -1.182 +0.00 +0.00    +0.127 C  
DOCKED: BRANCH  72  73
DOCKED: ATOM     73  C13 UNL     1      19.919  -3.800  -1.525 +0.00 +0.00    +0.213 C  
DOCKED: ATOM     74  N4  UNL     1      19.653  -2.801  -0.638 +0.00 -0.00    -0.329 N  
DOCKED: ATOM     75  O5  UNL     1      19.271  -3.923  -2.558 +0.00 -0.00    -0.276 OA 
DOCKED: ATOM     76  H22 UNL     1      18.836  -2.228  -0.810 +0.00 +0.00    +0.145 HD 
DOCKED: ATOM     77  H23 UNL     1      20.067  -2.756   0.285 +0.00 +0.00    +0.145 HD 
DOCKED: ENDBRANCH  72  73
DOCKED: ENDBRANCH  49  72
DOCKED: ENDBRANCH  45  49
DOCKED: ENDBRANCH  44  47
DOCKED: BRANCH  44  78
DOCKED: ATOM     78  C16 UNL     1      19.732  -7.657   4.105 +0.00 +0.00    +0.028 C  
DOCKED: BRANCH  78  79
DOCKED: ATOM     79  C17 UNL     1      18.620  -8.689   3.830 +0.00 -0.00    -0.009 C  
DOCKED: ATOM     80  C18 UNL     1      17.465  -8.034   3.031 +0.00 +0.00    +0.003 C  
DOCKED: ATOM     81  C19 UNL     1      16.564  -9.039   2.304 +0.00 +0.00    +0.000 C  
DOCKED: ATOM     82  C20 UNL     1      16.616 -10.424   2.932 +0.00 +0.00    +0.000 C  
DOCKED: ATOM     83  C21 UNL     1      18.037 -10.989   2.935 +0.00 +0.00    +0.000 C  
DOCKED: ATOM     84  C22 UNL     1      19.121  -9.913   3.049 +0.00 +0.00    +0.003 C  
DOCKED: ENDBRANCH  78  79
DOCKED: ENDBRANCH  44  78
DOCKED: ENDBRANCH   1  44
DOCKED: TORSDOF 36
DOCKED: TER
DOCKED: ENDMDL
________________________________________________________________________________


    FINAL DOCKED STATE:
    ________________________


Run:   7 / 20
Time taken for this run:   7.574s

DOCKED: MODEL        7
DOCKED: USER    Run = 7
DOCKED: USER
DOCKED: USER    Estimated Free Energy of Binding    = +10.74 kcal/mol  [=(1)+(2)+(3)-(4)]
DOCKED: USER
DOCKED: USER    (1) Final Intermolecular Energy     =  +0.00 kcal/mol
DOCKED: USER        vdW + Hbond + desolv Energy     =  +0.00 kcal/mol
DOCKED: USER        Electrostatic Energy            =  +0.00 kcal/mol
DOCKED: USER        Moving Ligand-Fixed Receptor    =  +0.00 kcal/mol
DOCKED: USER        Moving Ligand-Moving Receptor   =  +0.00 kcal/mol
DOCKED: USER    (2) Final Total Internal Energy     = -31.79 kcal/mol
DOCKED: USER    (3) Torsional Free Energy           = +10.74 kcal/mol
DOCKED: USER    (4) Unbound System's Energy         = -31.79 kcal/mol
DOCKED: USER
DOCKED: USER
DOCKED: REMARK  Name = ligands/ligand_16.pdb
DOCKED: REMARK  41 active torsions:
DOCKED: REMARK  status: ('A' for Active; 'I' for Inactive)
DOCKED: REMARK    1  A    between atoms: C1_1  and  C2_2
DOCKED: REMARK    2  A    between atoms: C2_2  and  C3_3
DOCKED: REMARK    3  A    between atoms: C2_2  and  C4_4
DOCKED: REMARK    4  A    between atoms: C4_4  and  N1_5
DOCKED: REMARK    5  A    between atoms: C4_4  and  C10_15
DOCKED: REMARK    6  A    between atoms: C5_6  and  C6_8
DOCKED: REMARK    7  A    between atoms: C6_8  and  N2_9
DOCKED: REMARK    8  A    between atoms: C6_8  and  C7_10
DOCKED: REMARK    9  A    between atoms: C7_10  and  C8_11
DOCKED: REMARK   10  A    between atoms: C8_11  and  C9_12
DOCKED: REMARK   11  A    between atoms: C9_12  and  O3_14
DOCKED: REMARK   12  A    between atoms: N3_17  and  C11_18
DOCKED: REMARK   13  A    between atoms: C11_18  and  C12_19
DOCKED: REMARK   14  A    between atoms: C11_18  and  C14_23
DOCKED: REMARK   15  A    between atoms: C12_19  and  C13_20
DOCKED: REMARK   16  A    between atoms: N5_25  and  C15_26
DOCKED: REMARK   17  A    between atoms: C15_26  and  C16_27
DOCKED: REMARK   18  A    between atoms: C15_26  and  C23_34
DOCKED: REMARK   19  A    between atoms: C16_27  and  C17_28
DOCKED: REMARK   20  A    between atoms: C23_34  and  O7_35
DOCKED: REMARK   21  A    between atoms: C23_34  and  C24_36
DOCKED: REMARK   22  A    between atoms: C24_36  and  C25_37
DOCKED: REMARK   23  A    between atoms: C25_37  and  C26_38
DOCKED: REMARK   24  A    between atoms: C25_37  and  C44_66
DOCKED: REMARK   25  A    between atoms: N6_40  and  C27_41
DOCKED: REMARK   26  A    between atoms: C27_41  and  C28_42
DOCKED: REMARK   27  A    between atoms: C27_41  and  C29_43
DOCKED: REMARK   28  A    between atoms: N7_45  and  C30_46
DOCKED: REMARK   29  A    between atoms: C30_46  and  C31_47
DOCKED: REMARK   30  A    between atoms: C30_46  and  C34_52
DOCKED: REMARK   31  A    between atoms: C31_47  and  C32_48
DOCKED: REMARK   32  A    between atoms: C32_48  and  C33_49
DOCKED: REMARK   33  A    between atoms: C33_49  and  O11_51
DOCKED: REMARK   34  A    between atoms: N8_54  and  C35_55
DOCKED: REMARK   35  A    between atoms: C35_55  and  C36_56
DOCKED: REMARK   36  A    between atoms: C35_55  and  C43_63
DOCKED: REMARK   37  A    between atoms: C36_56  and  C37_57
DOCKED: REMARK   38  A    between atoms: C43_63  and  O14_65
DOCKED: REMARK   39  A    between atoms: C44_66  and  C45_67
DOCKED: REMARK   40  A    between atoms: C44_66  and  C46_68
DOCKED: REMARK   41  A    between atoms: C44_66  and  O15_69
DOCKED: REMARK                            x       y       z     vdW  Elec       q    Type
DOCKED: REMARK                         _______ _______ _______ _____ _____    ______ ____
DOCKED: USER                              x       y       z     vdW  Elec       q    Type
DOCKED: USER                           _______ _______ _______ _____ _____    ______ ____
DOCKED: ROOT
DOCKED: ATOM      1  C23 UNL     1      16.871  -7.737   0.118 +0.00 +0.00    +0.135 C  
DOCKED: ENDROOT
DOCKED: BRANCH   1   2
DOCKED: ATOM      2  O7  UNL     1      17.457  -6.474  -0.191 +0.00 -0.00    -0.390 OA 
DOCKED: ATOM      3  H40 UNL     1      17.337  -5.914   0.593 +0.00 +0.00    +0.210 HD 
DOCKED: ENDBRANCH   1   2
DOCKED: BRANCH   1   4
DOCKED: ATOM      4  C24 UNL     1      16.484  -7.726   1.612 +0.00 +0.00    +0.048 C  
DOCKED: BRANCH   4   5
DOCKED: ATOM      5  C25 UNL     1      16.614  -6.464   2.511 +0.00 +0.00    +0.108 C  
DOCKED: BRANCH   5   6
DOCKED: ATOM      6  C26 UNL     1      15.578  -5.380   2.188 +0.00 +0.00    +0.220 C  
DOCKED: ATOM      7  O8  UNL     1      15.828  -4.516   1.350 +0.00 -0.00    -0.275 OA 
DOCKED: ATOM      8  N6  UNL     1      14.395  -5.435   2.872 +0.00 -0.00    -0.304 N  
DOCKED: ATOM      9  H44 UNL     1      14.316  -6.093   3.646 +0.00 +0.00    +0.149 HD 
DOCKED: BRANCH   8  10
DOCKED: ATOM     10  C27 UNL     1      13.328  -4.434   2.812 +0.00 +0.00    +0.156 C  
DOCKED: ATOM     11  C28 UNL     1      12.609  -4.309   1.475 +0.00 +0.00    +0.038 C  
DOCKED: BRANCH  10  12
DOCKED: ATOM     12  C29 UNL     1      13.806  -3.048   3.303 +0.00 +0.00    +0.234 C  
DOCKED: ATOM     13  O9  UNL     1      13.431  -2.524   4.351 +0.00 -0.00    -0.274 OA 
DOCKED: ATOM     14  N7  UNL     1      14.721  -2.429   2.468 +0.00 -0.00    -0.302 N  
DOCKED: ATOM     15  H49 UNL     1      14.700  -2.689   1.481 +0.00 +0.00    +0.150 HD 
DOCKED: BRANCH  14  16
DOCKED: ATOM     16  C30 UNL     1      15.209  -1.082   2.774 +0.00 +0.00    +0.159 C  
DOCKED: BRANCH  16  17
DOCKED: ATOM     17  C34 UNL     1      16.482  -1.247   3.626 +0.00 +0.00    +0.234 C  
DOCKED: ATOM     18  O12 UNL     1      16.929  -0.358   4.346 +0.00 -0.00    -0.274 OA 
DOCKED: ATOM     19  N8  UNL     1      17.122  -2.451   3.455 +0.00 -0.00    -0.301 N  
DOCKED: ATOM     20  H56 UNL     1      16.679  -3.180   2.896 +0.00 +0.00    +0.150 HD 
DOCKED: BRANCH  19  21
DOCKED: ATOM     21  C35 UNL     1      18.214  -2.876   4.333 +0.00 +0.00    +0.186 C  
DOCKED: BRANCH  21  22
DOCKED: ATOM     22  C43 UNL     1      19.535  -2.405   3.728 +0.00 +0.00    +0.326 C  
DOCKED: ATOM     23  O13 UNL     1      20.397  -1.752   4.300 +0.00 -0.00    -0.249 OA 
DOCKED: BRANCH  22  24
DOCKED: ATOM     24  O14 UNL     1      19.686  -2.738   2.429 +0.00 -0.00    -0.479 OA 
DOCKED: ATOM     25  H65 UNL     1      18.762  -2.830   2.110 +0.00 +0.00    +0.295 HD 
DOCKED: ENDBRANCH  22  24
DOCKED: ENDBRANCH  21  22
DOCKED: BRANCH  21  26
DOCKED: ATOM     26  C36 UNL     1      18.045  -2.420   5.790 +0.00 +0.00    +0.069 C  
DOCKED: BRANCH  26  27
DOCKED: ATOM     27  C37 UNL     1      16.697  -2.726   6.404 +0.00 -0.00    -0.045 A  
DOCKED: ATOM     28  C38 UNL     1      16.055  -1.783   7.216 +0.00 +0.00    +0.004 A  
DOCKED: ATOM     29  C39 UNL     1      14.809  -2.057   7.778 +0.00 +0.00    +0.000 A  
DOCKED: ATOM     30  C40 UNL     1      14.190  -3.281   7.538 +0.00 +0.00    +0.000 A  
DOCKED: ATOM     31  C41 UNL     1      14.818  -4.230   6.734 +0.00 +0.00    +0.000 A  
DOCKED: ATOM     32  C42 UNL     1      16.065  -3.955   6.169 +0.00 +0.00    +0.004 A  
DOCKED: ENDBRANCH  26  27
DOCKED: ENDBRANCH  21  26
DOCKED: ENDBRANCH  19  21
DOCKED: ENDBRANCH  16  17
DOCKED: BRANCH  16  33
DOCKED: ATOM     33  C31 UNL     1      15.470  -0.302   1.473 +0.00 +0.00    +0.043 C  
DOCKED: BRANCH  33  34
DOCKED: ATOM     34  C32 UNL     1      16.948  -0.038   1.203 +0.00 +0.00    +0.123 C  
DOCKED: BRANCH  34  35
DOCKED: ATOM     35  C33 UNL     1      17.692  -1.288   0.836 +0.00 +0.00    +0.305 C  
DOCKED: ATOM     36  O10 UNL     1      18.868  -1.350   0.518 +0.00 -0.00    -0.251 OA 
DOCKED: BRANCH  35  37
DOCKED: ATOM     37  O11 UNL     1      16.936  -2.395   0.943 +0.00 -0.00    -0.481 OA 
DOCKED: ATOM     38  H55 UNL     1      17.533  -3.057   1.350 +0.00 +0.00    +0.295 HD 
DOCKED: ENDBRANCH  35  37
DOCKED: ENDBRANCH  34  35
DOCKED: ENDBRANCH  33  34
DOCKED: ENDBRANCH  16  33
DOCKED: ENDBRANCH  14  16
DOCKED: ENDBRANCH  10  12
DOCKED: ENDBRANCH   8  10
DOCKED: ENDBRANCH   5   6
DOCKED: BRANCH   5  39
DOCKED: ATOM     39  C44 UNL     1      18.035  -5.965   2.936 +0.00 +0.00    +0.072 C  
DOCKED: ATOM     40  C45 UNL     1      19.102  -6.950   2.423 +0.00 +0.00    +0.042 C  
DOCKED: ATOM     41  C46 UNL     1      18.293  -5.770   4.435 +0.00 +0.00    +0.042 C  
DOCKED: BRANCH  39  42
DOCKED: ATOM     42  O15 UNL     1      18.322  -4.710   2.301 +0.00 -0.00    -0.388 OA 
DOCKED: ATOM     43  H72 UNL     1      17.965  -4.786   1.389 +0.00 +0.00    +0.210 HD 
DOCKED: ENDBRANCH  39  42
DOCKED: ENDBRANCH   5  39
DOCKED: ENDBRANCH   4   5
DOCKED: ENDBRANCH   1   4
DOCKED: BRANCH   1  44
DOCKED: ATOM     44  C15 UNL     1      15.733  -8.195  -0.859 +0.00 +0.00    +0.102 C  
DOCKED: BRANCH  44  47
DOCKED: ATOM     45  C14 UNL     1      14.435  -7.354  -2.841 +0.00 +0.00    +0.234 C  
DOCKED: ATOM     46  O6  UNL     1      13.857  -8.433  -2.984 +0.00 -0.00    -0.274 OA 
DOCKED: ATOM     47  N5  UNL     1      15.175  -7.107  -1.707 +0.00 -0.00    -0.308 N  
DOCKED: ATOM     48  H24 UNL     1      15.791  -6.294  -1.789 +0.00 +0.00    +0.149 HD 
DOCKED: BRANCH  45  49
DOCKED: ATOM     49  C11 UNL     1      14.380  -6.236  -3.918 +0.00 +0.00    +0.168 C  
DOCKED: BRANCH  49  52
DOCKED: ATOM     50  C10 UNL     1      14.117  -4.466  -2.195 +0.00 +0.00    +0.234 C  
DOCKED: ATOM     51  O4  UNL     1      13.068  -4.981  -1.793 +0.00 -0.00    -0.274 OA 
DOCKED: ATOM     52  N3  UNL     1      14.804  -4.976  -3.280 +0.00 -0.00    -0.302 N  
DOCKED: ATOM     53  H18 UNL     1      15.797  -4.803  -3.289 +0.00 +0.00    +0.150 HD 
DOCKED: BRANCH  50  54
DOCKED: ATOM     54  C4  UNL     1      14.710  -3.166  -1.559 +0.00 +0.00    +0.161 C  
DOCKED: BRANCH  54  55
DOCKED: ATOM     55  N1  UNL     1      16.090  -3.492  -1.189 +0.00 -0.00    -0.302 N  
DOCKED: ATOM     56  C5  UNL     1      17.142  -3.273  -2.059 +0.00 +0.00    +0.230 C  
DOCKED: ATOM     57  O1  UNL     1      16.995  -3.095  -3.264 +0.00 -0.00    -0.274 OA 
DOCKED: ATOM     58  H9  UNL     1      16.318  -3.425  -0.206 +0.00 +0.00    +0.150 HD 
DOCKED: BRANCH  56  59
DOCKED: ATOM     59  C6  UNL     1      18.528  -3.306  -1.377 +0.00 +0.00    +0.138 C  
DOCKED: BRANCH  59  60
DOCKED: ATOM     60  N2  UNL     1      18.439  -4.094  -0.132 +0.00 -0.00    -0.320 NA 
DOCKED: ATOM     61  H11 UNL     1      17.471  -4.339   0.083 +0.00 +0.00    +0.119 HD 
DOCKED: ATOM     62  H12 UNL     1      18.823  -3.546   0.639 +0.00 +0.00    +0.119 HD 
DOCKED: ENDBRANCH  59  60
DOCKED: BRANCH  59  63
DOCKED: ATOM     63  C7  UNL     1      19.573  -3.863  -2.355 +0.00 +0.00    +0.039 C  
DOCKED: BRANCH  63  64
DOCKED: ATOM     64  C8  UNL     1      19.668  -5.391  -2.365 +0.00 +0.00    +0.122 C  
DOCKED: BRANCH  64  65
DOCKED: ATOM     65  C9  UNL     1      18.552  -6.028  -3.153 +0.00 +0.00    +0.305 C  
DOCKED: ATOM     66  O2  UNL     1      18.632  -6.558  -4.251 +0.00 -0.00    -0.251 OA 
DOCKED: BRANCH  65  67
DOCKED: ATOM     67  O3  UNL     1      17.377  -5.979  -2.496 +0.00 -0.00    -0.481 OA 
DOCKED: ATOM     68  H17 UNL     1      17.595  -5.582  -1.629 +0.00 +0.00    +0.295 HD 
DOCKED: ENDBRANCH  65  67
DOCKED: ENDBRANCH  64  65
DOCKED: ENDBRANCH  63  64
DOCKED: ENDBRANCH  59  63
DOCKED: ENDBRANCH  56  59
DOCKED: ENDBRANCH  54  55
DOCKED: BRANCH  54  70
DOCKED: ATOM     69  C1  UNL     1      14.304  -0.628  -1.602 +0.00 +0.00    +0.009 C  
DOCKED: ATOM     70  C2  UNL     1      14.733  -1.866  -2.398 +0.00 +0.00    +0.012 C  
DOCKED: ATOM     71  C3  UNL     1      13.973  -1.956  -3.722 +0.00 +0.00    +0.009 C  
DOCKED: ENDBRANCH  54  70
DOCKED: ENDBRANCH  50  54
DOCKED: ENDBRANCH  49  52
DOCKED: BRANCH  49  72
DOCKED: ATOM     72  C12 UNL     1      15.293  -6.512  -5.114 +0.00 +0.00    +0.127 C  
DOCKED: BRANCH  72  73
DOCKED: ATOM     73  C13 UNL     1      15.727  -5.233  -5.791 +0.00 +0.00    +0.213 C  
DOCKED: ATOM     74  N4  UNL     1      16.837  -4.648  -5.261 +0.00 -0.00    -0.329 N  
DOCKED: ATOM     75  O5  UNL     1      15.184  -4.779  -6.791 +0.00 -0.00    -0.276 OA 
DOCKED: ATOM     76  H22 UNL     1      17.136  -3.767  -5.660 +0.00 +0.00    +0.145 HD 
DOCKED: ATOM     77  H23 UNL     1      17.223  -4.906  -4.361 +0.00 +0.00    +0.145 HD 
DOCKED: ENDBRANCH  72  73
DOCKED: ENDBRANCH  49  72
DOCKED: ENDBRANCH  45  49
DOCKED: ENDBRANCH  44  47
DOCKED: BRANCH  44  78
DOCKED: ATOM     78  C16 UNL     1      16.153  -9.347  -1.819 +0.00 +0.00    +0.028 C  
DOCKED: BRANCH  78  79
DOCKED: ATOM     79  C17 UNL     1      17.468  -9.166  -2.603 +0.00 -0.00    -0.009 C  
DOCKED: ATOM     80  C18 UNL     1      18.657  -9.752  -1.801 +0.00 +0.00    +0.003 C  
DOCKED: ATOM     81  C19 UNL     1      19.892 -10.059  -2.656 +0.00 +0.00    +0.000 C  
DOCKED: ATOM     82  C20 UNL     1      19.925  -9.244  -3.940 +0.00 +0.00    +0.000 C  
DOCKED: ATOM     83  C21 UNL     1      18.687  -9.498  -4.801 +0.00 +0.00    +0.000 C  
DOCKED: ATOM     84  C22 UNL     1      17.435  -9.833  -3.985 +0.00 +0.00    +0.003 C  
DOCKED: ENDBRANCH  78  79
DOCKED: ENDBRANCH  44  78
DOCKED: ENDBRANCH   1  44
DOCKED: TORSDOF 36
DOCKED: TER
DOCKED: ENDMDL
________________________________________________________________________________


    FINAL DOCKED STATE:
    ________________________


Run:   8 / 20
Time taken for this run:   7.574s

DOCKED: MODEL        8
DOCKED: USER    Run = 8
DOCKED: USER
DOCKED: USER    Estimated Free Energy of Binding    = +10.74 kcal/mol  [=(1)+(2)+(3)-(4)]
DOCKED: USER
DOCKED: USER    (1) Final Intermolecular Energy     =  +0.00 kcal/mol
DOCKED: USER        vdW + Hbond + desolv Energy     =  +0.00 kcal/mol
DOCKED: USER        Electrostatic Energy            =  +0.00 kcal/mol
DOCKED: USER        Moving Ligand-Fixed Receptor    =  +0.00 kcal/mol
DOCKED: USER        Moving Ligand-Moving Receptor   =  +0.00 kcal/mol
DOCKED: USER    (2) Final Total Internal Energy     = -34.15 kcal/mol
DOCKED: USER    (3) Torsional Free Energy           = +10.74 kcal/mol
DOCKED: USER    (4) Unbound System's Energy         = -34.15 kcal/mol
DOCKED: USER
DOCKED: USER
DOCKED: REMARK  Name = ligands/ligand_16.pdb
DOCKED: REMARK  41 active torsions:
DOCKED: REMARK  status: ('A' for Active; 'I' for Inactive)
DOCKED: REMARK    1  A    between atoms: C1_1  and  C2_2
DOCKED: REMARK    2  A    between atoms: C2_2  and  C3_3
DOCKED: REMARK    3  A    between atoms: C2_2  and  C4_4
DOCKED: REMARK    4  A    between atoms: C4_4  and  N1_5
DOCKED: REMARK    5  A    between atoms: C4_4  and  C10_15
DOCKED: REMARK    6  A    between atoms: C5_6  and  C6_8
DOCKED: REMARK    7  A    between atoms: C6_8  and  N2_9
DOCKED: REMARK    8  A    between atoms: C6_8  and  C7_10
DOCKED: REMARK    9  A    between atoms: C7_10  and  C8_11
DOCKED: REMARK   10  A    between atoms: C8_11  and  C9_12
DOCKED: REMARK   11  A    between atoms: C9_12  and  O3_14
DOCKED: REMARK   12  A    between atoms: N3_17  and  C11_18
DOCKED: REMARK   13  A    between atoms: C11_18  and  C12_19
DOCKED: REMARK   14  A    between atoms: C11_18  and  C14_23
DOCKED: REMARK   15  A    between atoms: C12_19  and  C13_20
DOCKED: REMARK   16  A    between atoms: N5_25  and  C15_26
DOCKED: REMARK   17  A    between atoms: C15_26  and  C16_27
DOCKED: REMARK   18  A    between atoms: C15_26  and  C23_34
DOCKED: REMARK   19  A    between atoms: C16_27  and  C17_28
DOCKED: REMARK   20  A    between atoms: C23_34  and  O7_35
DOCKED: REMARK   21  A    between atoms: C23_34  and  C24_36
DOCKED: REMARK   22  A    between atoms: C24_36  and  C25_37
DOCKED: REMARK   23  A    between atoms: C25_37  and  C26_38
DOCKED: REMARK   24  A    between atoms: C25_37  and  C44_66
DOCKED: REMARK   25  A    between atoms: N6_40  and  C27_41
DOCKED: REMARK   26  A    between atoms: C27_41  and  C28_42
DOCKED: REMARK   27  A    between atoms: C27_41  and  C29_43
DOCKED: REMARK   28  A    between atoms: N7_45  and  C30_46
DOCKED: REMARK   29  A    between atoms: C30_46  and  C31_47
DOCKED: REMARK   30  A    between atoms: C30_46  and  C34_52
DOCKED: REMARK   31  A    between atoms: C31_47  and  C32_48
DOCKED: REMARK   32  A    between atoms: C32_48  and  C33_49
DOCKED: REMARK   33  A    between atoms: C33_49  and  O11_51
DOCKED: REMARK   34  A    between atoms: N8_54  and  C35_55
DOCKED: REMARK   35  A    between atoms: C35_55  and  C36_56
DOCKED: REMARK   36  A    between atoms: C35_55  and  C43_63
DOCKED: REMARK   37  A    between atoms: C36_56  and  C37_57
DOCKED: REMARK   38  A    between atoms: C43_63  and  O14_65
DOCKED: REMARK   39  A    between atoms: C44_66  and  C45_67
DOCKED: REMARK   40  A    between atoms: C44_66  and  C46_68
DOCKED: REMARK   41  A    between atoms: C44_66  and  O15_69
DOCKED: REMARK                            x       y       z     vdW  Elec       q    Type
DOCKED: REMARK                         _______ _______ _______ _____ _____    ______ ____
DOCKED: USER                              x       y       z     vdW  Elec       q    Type
DOCKED: USER                           _______ _______ _______ _____ _____    ______ ____
DOCKED: ROOT
DOCKED: ATOM      1  C23 UNL     1       8.426  -5.342  -5.810 +0.00 +0.00    +0.135 C  
DOCKED: ENDROOT
DOCKED: BRANCH   1   2
DOCKED: ATOM      2  O7  UNL     1       9.850  -5.320  -5.736 +0.00 -0.00    -0.390 OA 
DOCKED: ATOM      3  H40 UNL     1      10.080  -4.730  -4.999 +0.00 +0.00    +0.210 HD 
DOCKED: ENDBRANCH   1   2
DOCKED: BRANCH   1   4
DOCKED: ATOM      4  C24 UNL     1       7.918  -6.428  -4.839 +0.00 +0.00    +0.048 C  
DOCKED: BRANCH   4   5
DOCKED: ATOM      5  C25 UNL     1       8.263  -6.437  -3.322 +0.00 +0.00    +0.108 C  
DOCKED: BRANCH   5   6
DOCKED: ATOM      6  C26 UNL     1       7.462  -5.409  -2.513 +0.00 +0.00    +0.220 C  
DOCKED: ATOM      7  O8  UNL     1       6.335  -5.684  -2.106 +0.00 -0.00    -0.275 OA 
DOCKED: ATOM      8  N6  UNL     1       8.066  -4.204  -2.279 +0.00 -0.00    -0.304 N  
DOCKED: ATOM      9  H44 UNL     1       8.939  -4.001  -2.764 +0.00 +0.00    +0.149 HD 
DOCKED: BRANCH   8  10
DOCKED: ATOM     10  C27 UNL     1       7.438  -3.044  -1.644 +0.00 +0.00    +0.156 C  
DOCKED: ATOM     11  C28 UNL     1       6.359  -2.343  -2.458 +0.00 +0.00    +0.038 C  
DOCKED: BRANCH  10  12
DOCKED: ATOM     12  C29 UNL     1       8.485  -2.025  -1.136 +0.00 +0.00    +0.234 C  
DOCKED: ATOM     13  O9  UNL     1       8.199  -0.927  -0.659 +0.00 -0.00    -0.274 OA 
DOCKED: ATOM     14  N7  UNL     1       9.797  -2.451  -1.246 +0.00 -0.00    -0.302 N  
DOCKED: ATOM     15  H49 UNL     1      10.004  -3.142  -1.967 +0.00 +0.00    +0.150 HD 
DOCKED: BRANCH  14  16
DOCKED: ATOM     16  C30 UNL     1      10.897  -1.561  -0.867 +0.00 +0.00    +0.159 C  
DOCKED: BRANCH  16  17
DOCKED: ATOM     17  C34 UNL     1      12.081  -2.457  -0.456 +0.00 +0.00    +0.234 C  
DOCKED: ATOM     18  O12 UNL     1      12.743  -2.272   0.562 +0.00 -0.00    -0.274 OA 
DOCKED: ATOM     19  N8  UNL     1      12.385  -3.440  -1.367 +0.00 -0.00    -0.301 N  
DOCKED: ATOM     20  H56 UNL     1      11.769  -3.594  -2.164 +0.00 +0.00    +0.150 HD 
DOCKED: BRANCH  19  21
DOCKED: ATOM     21  C35 UNL     1      13.327  -4.517  -1.054 +0.00 +0.00    +0.186 C  
DOCKED: BRANCH  21  22
DOCKED: ATOM     22  C43 UNL     1      13.074  -5.678  -2.013 +0.00 +0.00    +0.326 C  
DOCKED: ATOM     23  O13 UNL     1      13.094  -6.867  -1.726 +0.00 -0.00    -0.249 OA 
DOCKED: BRANCH  22  24
DOCKED: ATOM     24  O14 UNL     1      12.858  -5.291  -3.288 +0.00 -0.00    -0.479 OA 
DOCKED: ATOM     25  H65 UNL     1      12.214  -4.556  -3.196 +0.00 +0.00    +0.295 HD 
DOCKED: ENDBRANCH  22  24
DOCKED: ENDBRANCH  21  22
DOCKED: BRANCH  21  26
DOCKED: ATOM     26  C36 UNL     1      14.796  -4.068  -1.055 +0.00 +0.00    +0.069 C  
DOCKED: BRANCH  26  27
DOCKED: ATOM     27  C37 UNL     1      15.202  -3.207  -2.229 +0.00 -0.00    -0.045 A  
DOCKED: ATOM     28  C38 UNL     1      15.068  -1.814  -2.168 +0.00 +0.00    +0.004 A  
DOCKED: ATOM     29  C39 UNL     1      15.447  -1.014  -3.245 +0.00 +0.00    +0.000 A  
DOCKED: ATOM     30  C40 UNL     1      15.962  -1.598  -4.400 +0.00 +0.00    +0.000 A  
DOCKED: ATOM     31  C41 UNL     1      16.099  -2.982  -4.475 +0.00 +0.00    +0.000 A  
DOCKED: ATOM     32  C42 UNL     1      15.721  -3.784  -3.396 +0.00 +0.00    +0.004 A  
DOCKED: ENDBRANCH  26  27
DOCKED: ENDBRANCH  21  26
DOCKED: ENDBRANCH  19  21
DOCKED: ENDBRANCH  16  17
DOCKED: BRANCH  16  33
DOCKED: ATOM     33  C31 UNL     1      11.249  -0.622  -2.035 +0.00 +0.00    +0.043 C  
DOCKED: BRANCH  33  34
DOCKED: ATOM     34  C32 UNL     1      10.748  -1.115  -3.390 +0.00 +0.00    +0.123 C  
DOCKED: BRANCH  34  35
DOCKED: ATOM     35  C33 UNL     1      11.436  -2.375  -3.826 +0.00 +0.00    +0.305 C  
DOCKED: ATOM     36  O10 UNL     1      12.642  -2.539  -3.900 +0.00 -0.00    -0.251 OA 
DOCKED: BRANCH  35  37
DOCKED: ATOM     37  O11 UNL     1      10.576  -3.374  -4.090 +0.00 -0.00    -0.481 OA 
DOCKED: ATOM     38  H55 UNL     1      11.151  -4.150  -4.259 +0.00 +0.00    +0.295 HD 
DOCKED: ENDBRANCH  35  37
DOCKED: ENDBRANCH  34  35
DOCKED: ENDBRANCH  33  34
DOCKED: ENDBRANCH  16  33
DOCKED: ENDBRANCH  14  16
DOCKED: ENDBRANCH  10  12
DOCKED: ENDBRANCH   8  10
DOCKED: ENDBRANCH   5   6
DOCKED: BRANCH   5  39
DOCKED: ATOM     39  C44 UNL     1       9.741  -6.681  -2.871 +0.00 +0.00    +0.072 C  
DOCKED: ATOM     40  C45 UNL     1      10.415  -7.679  -3.831 +0.00 +0.00    +0.042 C  
DOCKED: ATOM     41  C46 UNL     1       9.965  -7.209  -1.449 +0.00 +0.00    +0.042 C  
DOCKED: BRANCH  39  42
DOCKED: ATOM     42  O15 UNL     1      10.492  -5.462  -2.982 +0.00 -0.00    -0.388 OA 
DOCKED: ATOM     43  H72 UNL     1      10.924  -5.495  -3.863 +0.00 +0.00    +0.210 HD 
DOCKED: ENDBRANCH  39  42
DOCKED: ENDBRANCH   5  39
DOCKED: ENDBRANCH   4   5
DOCKED: ENDBRANCH   1   4
DOCKED: BRANCH   1  44
DOCKED: ATOM     44  C15 UNL     1       7.734  -3.942  -5.661 +0.00 +0.00    +0.102 C  
DOCKED: BRANCH  44  47
DOCKED: ATOM     45  C14 UNL     1       8.244  -1.482  -5.588 +0.00 +0.00    +0.234 C  
DOCKED: ATOM     46  O6  UNL     1       7.173  -1.225  -5.034 +0.00 -0.00    -0.274 OA 
DOCKED: ATOM     47  N5  UNL     1       8.668  -2.785  -5.710 +0.00 -0.00    -0.308 N  
DOCKED: ATOM     48  H24 UNL     1       9.436  -2.906  -6.376 +0.00 +0.00    +0.149 HD 
DOCKED: BRANCH  45  49
DOCKED: ATOM     49  C11 UNL     1       9.153  -0.373  -6.188 +0.00 +0.00    +0.168 C  
DOCKED: BRANCH  49  52
DOCKED: ATOM     50  C10 UNL     1      11.624  -0.153  -6.306 +0.00 +0.00    +0.234 C  
DOCKED: ATOM     51  O4  UNL     1      11.543   1.075  -6.193 +0.00 -0.00    -0.274 OA 
DOCKED: ATOM     52  N3  UNL     1      10.496  -0.949  -6.377 +0.00 -0.00    -0.302 N  
DOCKED: ATOM     53  H18 UNL     1      10.609  -1.896  -6.050 +0.00 +0.00    +0.150 HD 
DOCKED: BRANCH  50  54
DOCKED: ATOM     54  C4  UNL     1      12.994  -0.894  -6.447 +0.00 +0.00    +0.161 C  
DOCKED: BRANCH  54  55
DOCKED: ATOM     55  N1  UNL     1      12.674  -2.321  -6.534 +0.00 -0.00    -0.302 N  
DOCKED: ATOM     56  C5  UNL     1      13.649  -3.265  -6.798 +0.00 +0.00    +0.230 C  
DOCKED: ATOM     57  O1  UNL     1      14.746  -2.988  -7.270 +0.00 -0.00    -0.274 OA 
DOCKED: ATOM     58  H9  UNL     1      11.900  -2.642  -5.967 +0.00 +0.00    +0.150 HD 
DOCKED: BRANCH  56  59
DOCKED: ATOM     59  C6  UNL     1      13.215  -4.712  -6.472 +0.00 +0.00    +0.138 C  
DOCKED: BRANCH  59  60
DOCKED: ATOM     60  N2  UNL     1      12.166  -4.684  -5.433 +0.00 -0.00    -0.320 NA 
DOCKED: ATOM     61  H11 UNL     1      11.378  -4.100  -5.719 +0.00 +0.00    +0.119 HD 
DOCKED: ATOM     62  H12 UNL     1      12.561  -4.310  -4.569 +0.00 +0.00    +0.119 HD 
DOCKED: ENDBRANCH  59  60
DOCKED: BRANCH  59  63
DOCKED: ATOM     63  C7  UNL     1      12.755  -5.416  -7.757 +0.00 +0.00    +0.039 C  
DOCKED: BRANCH  63  64
DOCKED: ATOM     64  C8  UNL     1      12.298  -4.461  -8.863 +0.00 +0.00    +0.122 C  
DOCKED: BRANCH  64  65
DOCKED: ATOM     65  C9  UNL     1      10.874  -4.007  -8.672 +0.00 +0.00    +0.305 C  
DOCKED: ATOM     66  O2  UNL     1       9.985  -3.986  -9.511 +0.00 -0.00    -0.251 OA 
DOCKED: BRANCH  65  67
DOCKED: ATOM     67  O3  UNL     1      10.634  -3.612  -7.407 +0.00 -0.00    -0.481 OA 
DOCKED: ATOM     68  H17 UNL     1      10.595  -4.444  -6.892 +0.00 +0.00    +0.295 HD 
DOCKED: ENDBRANCH  65  67
DOCKED: ENDBRANCH  64  65
DOCKED: ENDBRANCH  63  64
DOCKED: ENDBRANCH  59  63
DOCKED: ENDBRANCH  56  59
DOCKED: ENDBRANCH  54  55
DOCKED: BRANCH  54  70
DOCKED: ATOM     69  C1  UNL     1      14.646   0.800  -7.452 +0.00 +0.00    +0.009 C  
DOCKED: ATOM     70  C2  UNL     1      13.918  -0.536  -7.637 +0.00 +0.00    +0.012 C  
DOCKED: ATOM     71  C3  UNL     1      13.242  -0.608  -9.005 +0.00 +0.00    +0.009 C  
DOCKED: ENDBRANCH  54  70
DOCKED: ENDBRANCH  50  54
DOCKED: ENDBRANCH  49  52
DOCKED: BRANCH  49  72
DOCKED: ATOM     72  C12 UNL     1       8.648   0.151  -7.533 +0.00 +0.00    +0.127 C  
DOCKED: BRANCH  72  73
DOCKED: ATOM     73  C13 UNL     1       9.588  -0.210  -8.659 +0.00 +0.00    +0.213 C  
DOCKED: ATOM     74  N4  UNL     1       9.630  -1.535  -8.973 +0.00 -0.00    -0.329 N  
DOCKED: ATOM     75  O5  UNL     1      10.216   0.618  -9.308 +0.00 -0.00    -0.276 OA 
DOCKED: ATOM     76  H22 UNL     1      10.279  -1.824  -9.695 +0.00 +0.00    +0.145 HD 
DOCKED: ATOM     77  H23 UNL     1       9.245  -2.258  -8.378 +0.00 +0.00    +0.145 HD 
DOCKED: ENDBRANCH  72  73
DOCKED: ENDBRANCH  49  72
DOCKED: ENDBRANCH  45  49
DOCKED: ENDBRANCH  44  47
DOCKED: BRANCH  44  78
DOCKED: ATOM     78  C16 UNL     1       6.624  -3.673  -6.720 +0.00 +0.00    +0.028 C  
DOCKED: BRANCH  78  79
DOCKED: ATOM     79  C17 UNL     1       7.083  -3.381  -8.162 +0.00 -0.00    -0.009 C  
DOCKED: ATOM     80  C18 UNL     1       7.028  -4.673  -9.015 +0.00 +0.00    +0.003 C  
DOCKED: ATOM     81  C19 UNL     1       6.993  -4.418 -10.527 +0.00 +0.00    +0.000 C  
DOCKED: ATOM     82  C20 UNL     1       7.570  -3.060 -10.899 +0.00 +0.00    +0.000 C  
DOCKED: ATOM     83  C21 UNL     1       6.813  -1.920 -10.217 +0.00 +0.00    +0.000 C  
DOCKED: ATOM     84  C22 UNL     1       6.234  -2.304  -8.852 +0.00 +0.00    +0.003 C  
DOCKED: ENDBRANCH  78  79
DOCKED: ENDBRANCH  44  78
DOCKED: ENDBRANCH   1  44
DOCKED: TORSDOF 36
DOCKED: TER
DOCKED: ENDMDL
________________________________________________________________________________


    FINAL DOCKED STATE:
    ________________________


Run:   9 / 20
Time taken for this run:   7.574s

DOCKED: MODEL        9
DOCKED: USER    Run = 9
DOCKED: USER
DOCKED: USER    Estimated Free Energy of Binding    = +10.74 kcal/mol  [=(1)+(2)+(3)-(4)]
DOCKED: USER
DOCKED: USER    (1) Final Intermolecular Energy     =  +0.00 kcal/mol
DOCKED: USER        vdW + Hbond + desolv Energy     =  +0.00 kcal/mol
DOCKED: USER        Electrostatic Energy            =  +0.00 kcal/mol
DOCKED: USER        Moving Ligand-Fixed Receptor    =  +0.00 kcal/mol
DOCKED: USER        Moving Ligand-Moving Receptor   =  +0.00 kcal/mol
DOCKED: USER    (2) Final Total Internal Energy     = -33.71 kcal/mol
DOCKED: USER    (3) Torsional Free Energy           = +10.74 kcal/mol
DOCKED: USER    (4) Unbound System's Energy         = -33.71 kcal/mol
DOCKED: USER
DOCKED: USER
DOCKED: REMARK  Name = ligands/ligand_16.pdb
DOCKED: REMARK  41 active torsions:
DOCKED: REMARK  status: ('A' for Active; 'I' for Inactive)
DOCKED: REMARK    1  A    between atoms: C1_1  and  C2_2
DOCKED: REMARK    2  A    between atoms: C2_2  and  C3_3
DOCKED: REMARK    3  A    between atoms: C2_2  and  C4_4
DOCKED: REMARK    4  A    between atoms: C4_4  and  N1_5
DOCKED: REMARK    5  A    between atoms: C4_4  and  C10_15
DOCKED: REMARK    6  A    between atoms: C5_6  and  C6_8
DOCKED: REMARK    7  A    between atoms: C6_8  and  N2_9
DOCKED: REMARK    8  A    between atoms: C6_8  and  C7_10
DOCKED: REMARK    9  A    between atoms: C7_10  and  C8_11
DOCKED: REMARK   10  A    between atoms: C8_11  and  C9_12
DOCKED: REMARK   11  A    between atoms: C9_12  and  O3_14
DOCKED: REMARK   12  A    between atoms: N3_17  and  C11_18
DOCKED: REMARK   13  A    between atoms: C11_18  and  C12_19
DOCKED: REMARK   14  A    between atoms: C11_18  and  C14_23
DOCKED: REMARK   15  A    between atoms: C12_19  and  C13_20
DOCKED: REMARK   16  A    between atoms: N5_25  and  C15_26
DOCKED: REMARK   17  A    between atoms: C15_26  and  C16_27
DOCKED: REMARK   18  A    between atoms: C15_26  and  C23_34
DOCKED: REMARK   19  A    between atoms: C16_27  and  C17_28
DOCKED: REMARK   20  A    between atoms: C23_34  and  O7_35
DOCKED: REMARK   21  A    between atoms: C23_34  and  C24_36
DOCKED: REMARK   22  A    between atoms: C24_36  and  C25_37
DOCKED: REMARK   23  A    between atoms: C25_37  and  C26_38
DOCKED: REMARK   24  A    between atoms: C25_37  and  C44_66
DOCKED: REMARK   25  A    between atoms: N6_40  and  C27_41
DOCKED: REMARK   26  A    between atoms: C27_41  and  C28_42
DOCKED: REMARK   27  A    between atoms: C27_41  and  C29_43
DOCKED: REMARK   28  A    between atoms: N7_45  and  C30_46
DOCKED: REMARK   29  A    between atoms: C30_46  and  C31_47
DOCKED: REMARK   30  A    between atoms: C30_46  and  C34_52
DOCKED: REMARK   31  A    between atoms: C31_47  and  C32_48
DOCKED: REMARK   32  A    between atoms: C32_48  and  C33_49
DOCKED: REMARK   33  A    between atoms: C33_49  and  O11_51
DOCKED: REMARK   34  A    between atoms: N8_54  and  C35_55
DOCKED: REMARK   35  A    between atoms: C35_55  and  C36_56
DOCKED: REMARK   36  A    between atoms: C35_55  and  C43_63
DOCKED: REMARK   37  A    between atoms: C36_56  and  C37_57
DOCKED: REMARK   38  A    between atoms: C43_63  and  O14_65
DOCKED: REMARK   39  A    between atoms: C44_66  and  C45_67
DOCKED: REMARK   40  A    between atoms: C44_66  and  C46_68
DOCKED: REMARK   41  A    between atoms: C44_66  and  O15_69
DOCKED: REMARK                            x       y       z     vdW  Elec       q    Type
DOCKED: REMARK                         _______ _______ _______ _____ _____    ______ ____
DOCKED: USER                              x       y       z     vdW  Elec       q    Type
DOCKED: USER                           _______ _______ _______ _____ _____    ______ ____
DOCKED: ROOT
DOCKED: ATOM      1  C23 UNL     1      11.874  -1.687   5.680 +0.00 +0.00    +0.135 C  
DOCKED: ENDROOT
DOCKED: BRANCH   1   2
DOCKED: ATOM      2  O7  UNL     1      11.136  -0.720   4.936 +0.00 -0.00    -0.390 OA 
DOCKED: ATOM      3  H40 UNL     1      11.257  -0.941   3.997 +0.00 +0.00    +0.210 HD 
DOCKED: ENDBRANCH   1   2
DOCKED: BRANCH   1   4
DOCKED: ATOM      4  C24 UNL     1      10.863  -2.632   6.362 +0.00 +0.00    +0.048 C  
DOCKED: BRANCH   4   5
DOCKED: ATOM      5  C25 UNL     1       9.333  -2.581   6.081 +0.00 +0.00    +0.108 C  
DOCKED: BRANCH   5   6
DOCKED: ATOM      6  C26 UNL     1       8.873  -3.610   5.041 +0.00 +0.00    +0.220 C  
DOCKED: ATOM      7  O8  UNL     1       8.182  -3.258   4.087 +0.00 -0.00    -0.275 OA 
DOCKED: ATOM      8  N6  UNL     1       9.268  -4.904   5.238 +0.00 -0.00    -0.304 N  
DOCKED: ATOM      9  H44 UNL     1       9.720  -5.141   6.121 +0.00 +0.00    +0.149 HD 
DOCKED: BRANCH   8  10
DOCKED: ATOM     10  C27 UNL     1       8.840  -6.058   4.444 +0.00 +0.00    +0.156 C  
DOCKED: ATOM     11  C28 UNL     1       9.129  -7.425   5.048 +0.00 +0.00    +0.038 C  
DOCKED: BRANCH  10  12
DOCKED: ATOM     12  C29 UNL     1       9.361  -5.985   2.990 +0.00 +0.00    +0.234 C  
DOCKED: ATOM     13  O9  UNL     1      10.185  -6.767   2.516 +0.00 -0.00    -0.274 OA 
DOCKED: ATOM     14  N7  UNL     1       8.811  -4.962   2.236 +0.00 -0.00    -0.302 N  
DOCKED: ATOM     15  H49 UNL     1       8.465  -4.145   2.740 +0.00 +0.00    +0.150 HD 
DOCKED: BRANCH  14  16
DOCKED: ATOM     16  C30 UNL     1       9.262  -4.733   0.861 +0.00 +0.00    +0.159 C  
DOCKED: BRANCH  16  17
DOCKED: ATOM     17  C34 UNL     1       8.282  -3.728   0.227 +0.00 +0.00    +0.234 C  
DOCKED: ATOM     18  O12 UNL     1       7.870  -3.827  -0.926 +0.00 -0.00    -0.274 OA 
DOCKED: ATOM     19  N8  UNL     1       7.963  -2.665   1.037 +0.00 -0.00    -0.301 N  
DOCKED: ATOM     20  H56 UNL     1       8.279  -2.659   2.006 +0.00 +0.00    +0.150 HD 
DOCKED: BRANCH  19  21
DOCKED: ATOM     21  C35 UNL     1       6.887  -1.731   0.697 +0.00 +0.00    +0.186 C  
DOCKED: BRANCH  21  22
DOCKED: ATOM     22  C43 UNL     1       6.888  -0.595   1.718 +0.00 +0.00    +0.326 C  
DOCKED: ATOM     23  O13 UNL     1       6.025   0.263   1.841 +0.00 -0.00    -0.249 OA 
DOCKED: BRANCH  22  24
DOCKED: ATOM     24  O14 UNL     1       7.988  -0.568   2.498 +0.00 -0.00    -0.479 OA 
DOCKED: ATOM     25  H65 UNL     1       7.938  -1.415   2.990 +0.00 +0.00    +0.295 HD 
DOCKED: ENDBRANCH  22  24
DOCKED: ENDBRANCH  21  22
DOCKED: BRANCH  21  26
DOCKED: ATOM     26  C36 UNL     1       6.954  -1.216  -0.749 +0.00 +0.00    +0.069 C  
DOCKED: BRANCH  26  27
DOCKED: ATOM     27  C37 UNL     1       8.293  -0.648  -1.165 +0.00 -0.00    -0.045 A  
DOCKED: ATOM     28  C38 UNL     1       9.158  -1.391  -1.979 +0.00 +0.00    +0.004 A  
DOCKED: ATOM     29  C39 UNL     1      10.389  -0.869  -2.371 +0.00 +0.00    +0.000 A  
DOCKED: ATOM     30  C40 UNL     1      10.774   0.402  -1.951 +0.00 +0.00    +0.000 A  
DOCKED: ATOM     31  C41 UNL     1       9.925   1.151  -1.139 +0.00 +0.00    +0.000 A  
DOCKED: ATOM     32  C42 UNL     1       8.690   0.630  -0.748 +0.00 +0.00    +0.004 A  
DOCKED: ENDBRANCH  26  27
DOCKED: ENDBRANCH  21  26
DOCKED: ENDBRANCH  19  21
DOCKED: ENDBRANCH  16  17
DOCKED: BRANCH  16  33
DOCKED: ATOM     33  C31 UNL     1      10.714  -4.220   0.857 +0.00 +0.00    +0.043 C  
DOCKED: BRANCH  33  34
DOCKED: ATOM     34  C32 UNL     1      10.838  -2.735   0.526 +0.00 +0.00    +0.123 C  
DOCKED: BRANCH  34  35
DOCKED: ATOM     35  C33 UNL     1      10.963  -1.886   1.756 +0.00 +0.00    +0.305 C  
DOCKED: ATOM     36  O10 UNL     1      11.814  -1.035   1.952 +0.00 -0.00    -0.251 OA 
DOCKED: BRANCH  35  37
DOCKED: ATOM     37  O11 UNL     1       9.982  -2.113   2.648 +0.00 -0.00    -0.481 OA 
DOCKED: ATOM     38  H55 UNL     1       9.952  -1.295   3.186 +0.00 +0.00    +0.295 HD 
DOCKED: ENDBRANCH  35  37
DOCKED: ENDBRANCH  34  35
DOCKED: ENDBRANCH  33  34
DOCKED: ENDBRANCH  16  33
DOCKED: ENDBRANCH  14  16
DOCKED: ENDBRANCH  10  12
DOCKED: ENDBRANCH   8  10
DOCKED: ENDBRANCH   5   6
DOCKED: BRANCH   5  39
DOCKED: ATOM     39  C44 UNL     1       8.600  -1.198   6.066 +0.00 +0.00    +0.072 C  
DOCKED: ATOM     40  C45 UNL     1       9.242  -0.263   7.107 +0.00 +0.00    +0.042 C  
DOCKED: ATOM     41  C46 UNL     1       7.091  -1.199   6.337 +0.00 +0.00    +0.042 C  
DOCKED: BRANCH  39  42
DOCKED: ATOM     42  O15 UNL     1       8.790  -0.560   4.795 +0.00 -0.00    -0.388 OA 
DOCKED: ATOM     43  H72 UNL     1       9.147  -1.254   4.198 +0.00 +0.00    +0.210 HD 
DOCKED: ENDBRANCH  39  42
DOCKED: ENDBRANCH   5  39
DOCKED: ENDBRANCH   4   5
DOCKED: ENDBRANCH   1   4
DOCKED: BRANCH   1  44
DOCKED: ATOM     44  C15 UNL     1      13.018  -2.403   4.882 +0.00 +0.00    +0.102 C  
DOCKED: BRANCH  44  47
DOCKED: ATOM     45  C14 UNL     1      14.351  -2.226   2.758 +0.00 +0.00    +0.234 C  
DOCKED: ATOM     46  O6  UNL     1      14.538  -3.443   2.715 +0.00 -0.00    -0.274 OA 
DOCKED: ATOM     47  N5  UNL     1      13.443  -1.694   3.645 +0.00 -0.00    -0.308 N  
DOCKED: ATOM     48  H24 UNL     1      13.530  -0.681   3.762 +0.00 +0.00    +0.149 HD 
DOCKED: BRANCH  45  49
DOCKED: ATOM     49  C11 UNL     1      15.125  -1.236   1.845 +0.00 +0.00    +0.168 C  
DOCKED: BRANCH  49  52
DOCKED: ATOM     50  C10 UNL     1      13.950   0.302   0.288 +0.00 +0.00    +0.234 C  
DOCKED: ATOM     51  O4  UNL     1      14.497  -0.228  -0.686 +0.00 -0.00    -0.274 OA 
DOCKED: ATOM     52  N3  UNL     1      14.243  -0.084   1.581 +0.00 -0.00    -0.302 N  
DOCKED: ATOM     53  H18 UNL     1      13.508   0.058   2.257 +0.00 +0.00    +0.150 HD 
DOCKED: BRANCH  50  54
DOCKED: ATOM     54  C4  UNL     1      12.942   1.488   0.139 +0.00 +0.00    +0.161 C  
DOCKED: BRANCH  54  55
DOCKED: ATOM     55  N1  UNL     1      12.139   1.490   1.364 +0.00 -0.00    -0.302 N  
DOCKED: ATOM     56  C5  UNL     1      11.095   2.380   1.543 +0.00 +0.00    +0.230 C  
DOCKED: ATOM     57  O1  UNL     1      10.955   3.397   0.872 +0.00 -0.00    -0.274 OA 
DOCKED: ATOM     58  H9  UNL     1      12.036   0.601   1.835 +0.00 +0.00    +0.150 HD 
DOCKED: BRANCH  56  59
DOCKED: ATOM     59  C6  UNL     1      10.137   1.990   2.691 +0.00 +0.00    +0.138 C  
DOCKED: BRANCH  59  60
DOCKED: ATOM     60  N2  UNL     1      10.316   0.560   3.010 +0.00 -0.00    -0.320 NA 
DOCKED: ATOM     61  H11 UNL     1       9.468   0.028   2.812 +0.00 +0.00    +0.119 HD 
DOCKED: ATOM     62  H12 UNL     1      10.546   0.465   4.000 +0.00 +0.00    +0.119 HD 
DOCKED: ENDBRANCH  59  60
DOCKED: BRANCH  59  63
DOCKED: ATOM     63  C7  UNL     1      10.385   2.901   3.903 +0.00 +0.00    +0.039 C  
DOCKED: BRANCH  63  64
DOCKED: ATOM     64  C8  UNL     1      11.358   2.320   4.933 +0.00 +0.00    +0.122 C  
DOCKED: BRANCH  64  65
DOCKED: ATOM     65  C9  UNL     1      12.697   1.986   4.328 +0.00 +0.00    +0.305 C  
DOCKED: ATOM     66  O2  UNL     1      13.673   2.716   4.245 +0.00 -0.00    -0.251 OA 
DOCKED: BRANCH  65  67
DOCKED: ATOM     67  O3  UNL     1      12.744   0.720   3.870 +0.00 -0.00    -0.481 OA 
DOCKED: ATOM     68  H17 UNL     1      11.893   0.595   3.403 +0.00 +0.00    +0.295 HD 
DOCKED: ENDBRANCH  65  67
DOCKED: ENDBRANCH  64  65
DOCKED: ENDBRANCH  63  64
DOCKED: ENDBRANCH  59  63
DOCKED: ENDBRANCH  56  59
DOCKED: ENDBRANCH  54  55
DOCKED: BRANCH  54  70
DOCKED: ATOM     69  C1  UNL     1      14.201   3.095  -1.423 +0.00 +0.00    +0.009 C  
DOCKED: ATOM     70  C2  UNL     1      13.496   2.918  -0.074 +0.00 +0.00    +0.012 C  
DOCKED: ATOM     71  C3  UNL     1      14.366   3.434   1.071 +0.00 +0.00    +0.009 C  
DOCKED: ENDBRANCH  54  70
DOCKED: ENDBRANCH  50  54
DOCKED: ENDBRANCH  49  52
DOCKED: BRANCH  49  72
DOCKED: ATOM     72  C12 UNL     1      16.422  -0.728   2.478 +0.00 +0.00    +0.127 C  
DOCKED: BRANCH  72  73
DOCKED: ATOM     73  C13 UNL     1      16.487   0.781   2.478 +0.00 +0.00    +0.213 C  
DOCKED: ATOM     74  N4  UNL     1      15.650   1.395   3.361 +0.00 -0.00    -0.329 N  
DOCKED: ATOM     75  O5  UNL     1      17.280   1.425   1.801 +0.00 -0.00    -0.276 OA 
DOCKED: ATOM     76  H22 UNL     1      15.633   2.407   3.363 +0.00 +0.00    +0.145 HD 
DOCKED: ATOM     77  H23 UNL     1      14.889   0.916   3.826 +0.00 +0.00    +0.145 HD 
DOCKED: ENDBRANCH  72  73
DOCKED: ENDBRANCH  49  72
DOCKED: ENDBRANCH  45  49
DOCKED: ENDBRANCH  44  47
DOCKED: BRANCH  44  78
DOCKED: ATOM     78  C16 UNL     1      14.305  -2.660   5.721 +0.00 +0.00    +0.028 C  
DOCKED: BRANCH  78  79
DOCKED: ATOM     79  C17 UNL     1      15.385  -1.560   5.708 +0.00 -0.00    -0.009 C  
DOCKED: ATOM     80  C18 UNL     1      14.798  -0.224   6.227 +0.00 +0.00    +0.003 C  
DOCKED: ATOM     81  C19 UNL     1      15.858   0.777   6.704 +0.00 +0.00    +0.000 C  
DOCKED: ATOM     82  C20 UNL     1      17.221   0.520   6.077 +0.00 +0.00    +0.000 C  
DOCKED: ATOM     83  C21 UNL     1      17.732  -0.886   6.395 +0.00 +0.00    +0.000 C  
DOCKED: ATOM     84  C22 UNL     1      16.612  -1.918   6.559 +0.00 +0.00    +0.003 C  
DOCKED: ENDBRANCH  78  79
DOCKED: ENDBRANCH  44  78
DOCKED: ENDBRANCH   1  44
DOCKED: TORSDOF 36
DOCKED: TER
DOCKED: ENDMDL
________________________________________________________________________________


    FINAL DOCKED STATE:
    ________________________


Run:   10 / 20
Time taken for this run:   7.574s

DOCKED: MODEL        10
DOCKED: USER    Run = 10
DOCKED: USER
DOCKED: USER    Estimated Free Energy of Binding    = +10.74 kcal/mol  [=(1)+(2)+(3)-(4)]
DOCKED: USER
DOCKED: USER    (1) Final Intermolecular Energy     =  +0.00 kcal/mol
DOCKED: USER        vdW + Hbond + desolv Energy     =  +0.00 kcal/mol
DOCKED: USER        Electrostatic Energy            =  +0.00 kcal/mol
DOCKED: USER        Moving Ligand-Fixed Receptor    =  +0.00 kcal/mol
DOCKED: USER        Moving Ligand-Moving Receptor   =  +0.00 kcal/mol
DOCKED: USER    (2) Final Total Internal Energy     = -32.49 kcal/mol
DOCKED: USER    (3) Torsional Free Energy           = +10.74 kcal/mol
DOCKED: USER    (4) Unbound System's Energy         = -32.49 kcal/mol
DOCKED: USER
DOCKED: USER
DOCKED: REMARK  Name = ligands/ligand_16.pdb
DOCKED: REMARK  41 active torsions:
DOCKED: REMARK  status: ('A' for Active; 'I' for Inactive)
DOCKED: REMARK    1  A    between atoms: C1_1  and  C2_2
DOCKED: REMARK    2  A    between atoms: C2_2  and  C3_3
DOCKED: REMARK    3  A    between atoms: C2_2  and  C4_4
DOCKED: REMARK    4  A    between atoms: C4_4  and  N1_5
DOCKED: REMARK    5  A    between atoms: C4_4  and  C10_15
DOCKED: REMARK    6  A    between atoms: C5_6  and  C6_8
DOCKED: REMARK    7  A    between atoms: C6_8  and  N2_9
DOCKED: REMARK    8  A    between atoms: C6_8  and  C7_10
DOCKED: REMARK    9  A    between atoms: C7_10  and  C8_11
DOCKED: REMARK   10  A    between atoms: C8_11  and  C9_12
DOCKED: REMARK   11  A    between atoms: C9_12  and  O3_14
DOCKED: REMARK   12  A    between atoms: N3_17  and  C11_18
DOCKED: REMARK   13  A    between atoms: C11_18  and  C12_19
DOCKED: REMARK   14  A    between atoms: C11_18  and  C14_23
DOCKED: REMARK   15  A    between atoms: C12_19  and  C13_20
DOCKED: REMARK   16  A    between atoms: N5_25  and  C15_26
DOCKED: REMARK   17  A    between atoms: C15_26  and  C16_27
DOCKED: REMARK   18  A    between atoms: C15_26  and  C23_34
DOCKED: REMARK   19  A    between atoms: C16_27  and  C17_28
DOCKED: REMARK   20  A    between atoms: C23_34  and  O7_35
DOCKED: REMARK   21  A    between atoms: C23_34  and  C24_36
DOCKED: REMARK   22  A    between atoms: C24_36  and  C25_37
DOCKED: REMARK   23  A    between atoms: C25_37  and  C26_38
DOCKED: REMARK   24  A    between atoms: C25_37  and  C44_66
DOCKED: REMARK   25  A    between atoms: N6_40  and  C27_41
DOCKED: REMARK   26  A    between atoms: C27_41  and  C28_42
DOCKED: REMARK   27  A    between atoms: C27_41  and  C29_43
DOCKED: REMARK   28  A    between atoms: N7_45  and  C30_46
DOCKED: REMARK   29  A    between atoms: C30_46  and  C31_47
DOCKED: REMARK   30  A    between atoms: C30_46  and  C34_52
DOCKED: REMARK   31  A    between atoms: C31_47  and  C32_48
DOCKED: REMARK   32  A    between atoms: C32_48  and  C33_49
DOCKED: REMARK   33  A    between atoms: C33_49  and  O11_51
DOCKED: REMARK   34  A    between atoms: N8_54  and  C35_55
DOCKED: REMARK   35  A    between atoms: C35_55  and  C36_56
DOCKED: REMARK   36  A    between atoms: C35_55  and  C43_63
DOCKED: REMARK   37  A    between atoms: C36_56  and  C37_57
DOCKED: REMARK   38  A    between atoms: C43_63  and  O14_65
DOCKED: REMARK   39  A    between atoms: C44_66  and  C45_67
DOCKED: REMARK   40  A    between atoms: C44_66  and  C46_68
DOCKED: REMARK   41  A    between atoms: C44_66  and  O15_69
DOCKED: REMARK                            x       y       z     vdW  Elec       q    Type
DOCKED: REMARK                         _______ _______ _______ _____ _____    ______ ____
DOCKED: USER                              x       y       z     vdW  Elec       q    Type
DOCKED: USER                           _______ _______ _______ _____ _____    ______ ____
DOCKED: ROOT
DOCKED: ATOM      1  C23 UNL     1      11.863  -9.929   1.475 +0.00 +0.00    +0.135 C  
DOCKED: ENDROOT
DOCKED: BRANCH   1   2
DOCKED: ATOM      2  O7  UNL     1      11.382 -10.033   2.813 +0.00 -0.00    -0.390 OA 
DOCKED: ATOM      3  H40 UNL     1      10.689  -9.360   2.912 +0.00 +0.00    +0.210 HD 
DOCKED: ENDBRANCH   1   2
DOCKED: BRANCH   1   4
DOCKED: ATOM      4  C24 UNL     1      11.696 -11.307   0.803 +0.00 +0.00    +0.048 C  
DOCKED: BRANCH   4   5
DOCKED: ATOM      5  C25 UNL     1      10.391 -12.147   0.906 +0.00 +0.00    +0.108 C  
DOCKED: BRANCH   5   6
DOCKED: ATOM      6  C26 UNL     1      10.440 -13.210   2.012 +0.00 +0.00    +0.220 C  
DOCKED: ATOM      7  O8  UNL     1      10.492 -14.403   1.720 +0.00 -0.00    -0.275 OA 
DOCKED: ATOM      8  N6  UNL     1      10.421 -12.758   3.302 +0.00 -0.00    -0.304 N  
DOCKED: ATOM      9  H44 UNL     1      10.238 -11.768   3.463 +0.00 +0.00    +0.149 HD 
DOCKED: BRANCH   8  10
DOCKED: ATOM     10  C27 UNL     1      10.333 -13.597   4.499 +0.00 +0.00    +0.156 C  
DOCKED: ATOM     11  C28 UNL     1       8.935 -13.797   5.069 +0.00 +0.00    +0.038 C  
DOCKED: BRANCH  10  12
DOCKED: ATOM     12  C29 UNL     1      11.309 -13.131   5.605 +0.00 +0.00    +0.234 C  
DOCKED: ATOM     13  O9  UNL     1      11.499 -13.744   6.655 +0.00 -0.00    -0.274 OA 
DOCKED: ATOM     14  N7  UNL     1      11.982 -11.956   5.317 +0.00 -0.00    -0.302 N  
DOCKED: ATOM     15  H49 UNL     1      11.531 -11.308   4.669 +0.00 +0.00    +0.150 HD 
DOCKED: BRANCH  14  16
DOCKED: ATOM     16  C30 UNL     1      12.887 -11.361   6.302 +0.00 +0.00    +0.159 C  
DOCKED: BRANCH  16  17
DOCKED: ATOM     17  C34 UNL     1      13.776 -10.354   5.548 +0.00 +0.00    +0.234 C  
DOCKED: ATOM     18  O12 UNL     1      15.004 -10.388   5.575 +0.00 -0.00    -0.274 OA 
DOCKED: ATOM     19  N8  UNL     1      13.078  -9.363   4.901 +0.00 -0.00    -0.301 N  
DOCKED: ATOM     20  H56 UNL     1      12.061  -9.413   4.854 +0.00 +0.00    +0.150 HD 
DOCKED: BRANCH  19  21
DOCKED: ATOM     21  C35 UNL     1      13.729  -8.450   3.958 +0.00 +0.00    +0.186 C  
DOCKED: BRANCH  21  22
DOCKED: ATOM     22  C43 UNL     1      12.755  -7.324   3.619 +0.00 +0.00    +0.326 C  
DOCKED: ATOM     23  O13 UNL     1      13.037  -6.140   3.498 +0.00 -0.00    -0.249 OA 
DOCKED: BRANCH  22  24
DOCKED: ATOM     24  O14 UNL     1      11.475  -7.733   3.497 +0.00 -0.00    -0.479 OA 
DOCKED: ATOM     25  H65 UNL     1      11.376  -8.388   4.220 +0.00 +0.00    +0.295 HD 
DOCKED: ENDBRANCH  22  24
DOCKED: ENDBRANCH  21  22
DOCKED: BRANCH  21  26
DOCKED: ATOM     26  C36 UNL     1      15.085  -7.921   4.452 +0.00 +0.00    +0.069 C  
DOCKED: BRANCH  26  27
DOCKED: ATOM     27  C37 UNL     1      16.281  -8.379   3.649 +0.00 -0.00    -0.045 A  
DOCKED: ATOM     28  C38 UNL     1      16.255  -9.604   2.970 +0.00 +0.00    +0.004 A  
DOCKED: ATOM     29  C39 UNL     1      17.353 -10.027   2.223 +0.00 +0.00    +0.000 A  
DOCKED: ATOM     30  C40 UNL     1      18.494  -9.232   2.147 +0.00 +0.00    +0.000 A  
DOCKED: ATOM     31  C41 UNL     1      18.535  -8.012   2.819 +0.00 +0.00    +0.000 A  
DOCKED: ATOM     32  C42 UNL     1      17.435  -7.586   3.567 +0.00 +0.00    +0.004 A  
DOCKED: ENDBRANCH  26  27
DOCKED: ENDBRANCH  21  26
DOCKED: ENDBRANCH  19  21
DOCKED: ENDBRANCH  16  17
DOCKED: BRANCH  16  33
DOCKED: ATOM     33  C31 UNL     1      12.081 -10.701   7.435 +0.00 +0.00    +0.043 C  
DOCKED: BRANCH  33  34
DOCKED: ATOM     34  C32 UNL     1      10.600 -10.526   7.112 +0.00 +0.00    +0.123 C  
DOCKED: BRANCH  34  35
DOCKED: ATOM     35  C33 UNL     1      10.370  -9.515   6.027 +0.00 +0.00    +0.305 C  
DOCKED: ATOM     36  O10 UNL     1      10.482  -8.306   6.143 +0.00 -0.00    -0.251 OA 
DOCKED: BRANCH  35  37
DOCKED: ATOM     37  O11 UNL     1      10.068 -10.080   4.844 +0.00 -0.00    -0.481 OA 
DOCKED: ATOM     38  H55 UNL     1      10.045  -9.327   4.217 +0.00 +0.00    +0.295 HD 
DOCKED: ENDBRANCH  35  37
DOCKED: ENDBRANCH  34  35
DOCKED: ENDBRANCH  33  34
DOCKED: ENDBRANCH  16  33
DOCKED: ENDBRANCH  14  16
DOCKED: ENDBRANCH  10  12
DOCKED: ENDBRANCH   8  10
DOCKED: ENDBRANCH   5   6
DOCKED: BRANCH   5  39
DOCKED: ATOM     39  C44 UNL     1       9.621 -12.535  -0.400 +0.00 +0.00    +0.072 C  
DOCKED: ATOM     40  C45 UNL     1      10.547 -13.348  -1.323 +0.00 +0.00    +0.042 C  
DOCKED: ATOM     41  C46 UNL     1       9.044 -11.391  -1.242 +0.00 +0.00    +0.042 C  
DOCKED: BRANCH  39  42
DOCKED: ATOM     42  O15 UNL     1       8.524 -13.405  -0.080 +0.00 -0.00    -0.388 OA 
DOCKED: ATOM     43  H72 UNL     1       8.929 -14.212   0.307 +0.00 +0.00    +0.210 HD 
DOCKED: ENDBRANCH  39  42
DOCKED: ENDBRANCH   5  39
DOCKED: ENDBRANCH   4   5
DOCKED: ENDBRANCH   1   4
DOCKED: BRANCH   1  44
DOCKED: ATOM     44  C15 UNL     1      11.291  -8.718   0.659 +0.00 +0.00    +0.102 C  
DOCKED: BRANCH  44  47
DOCKED: ATOM     45  C14 UNL     1       9.434  -7.024   0.699 +0.00 +0.00    +0.234 C  
DOCKED: ATOM     46  O6  UNL     1       9.737  -6.590  -0.413 +0.00 -0.00    -0.274 OA 
DOCKED: ATOM     47  N5  UNL     1       9.996  -8.189   1.168 +0.00 -0.00    -0.308 N  
DOCKED: ATOM     48  H24 UNL     1       9.860  -8.336   2.172 +0.00 +0.00    +0.149 HD 
DOCKED: BRANCH  45  49
DOCKED: ATOM     49  C11 UNL     1       8.432  -6.287   1.631 +0.00 +0.00    +0.168 C  
DOCKED: BRANCH  49  52
DOCKED: ATOM     50  C10 UNL     1       6.133  -7.188   1.353 +0.00 +0.00    +0.234 C  
DOCKED: ATOM     51  O4  UNL     1       5.850  -6.283   0.560 +0.00 -0.00    -0.274 OA 
DOCKED: ATOM     52  N3  UNL     1       7.362  -7.239   1.982 +0.00 -0.00    -0.302 N  
DOCKED: ATOM     53  H18 UNL     1       7.677  -8.159   2.252 +0.00 +0.00    +0.150 HD 
DOCKED: BRANCH  50  54
DOCKED: ATOM     54  C4  UNL     1       5.110  -8.299   1.757 +0.00 +0.00    +0.161 C  
DOCKED: BRANCH  54  55
DOCKED: ATOM     55  N1  UNL     1       5.898  -9.365   2.380 +0.00 -0.00    -0.302 N  
DOCKED: ATOM     56  C5  UNL     1       6.608 -10.276   1.620 +0.00 +0.00    +0.230 C  
DOCKED: ATOM     57  O1  UNL     1       6.404 -10.463   0.426 +0.00 -0.00    -0.274 OA 
DOCKED: ATOM     58  H9  UNL     1       6.288  -9.161   3.291 +0.00 +0.00    +0.150 HD 
DOCKED: BRANCH  56  59
DOCKED: ATOM     59  C6  UNL     1       7.666 -11.064   2.426 +0.00 +0.00    +0.138 C  
DOCKED: BRANCH  59  60
DOCKED: ATOM     60  N2  UNL     1       8.747 -10.147   2.839 +0.00 -0.00    -0.320 NA 
DOCKED: ATOM     61  H11 UNL     1       9.520 -10.656   3.268 +0.00 +0.00    +0.119 HD 
DOCKED: ATOM     62  H12 UNL     1       8.376  -9.475   3.512 +0.00 +0.00    +0.119 HD 
DOCKED: ENDBRANCH  59  60
DOCKED: BRANCH  59  63
DOCKED: ATOM     63  C7  UNL     1       6.994 -11.760   3.619 +0.00 +0.00    +0.039 C  
DOCKED: BRANCH  63  64
DOCKED: ATOM     64  C8  UNL     1       7.392 -11.187   4.982 +0.00 +0.00    +0.122 C  
DOCKED: BRANCH  64  65
DOCKED: ATOM     65  C9  UNL     1       6.770  -9.838   5.238 +0.00 +0.00    +0.305 C  
DOCKED: ATOM     66  O2  UNL     1       5.580  -9.574   5.307 +0.00 -0.00    -0.251 OA 
DOCKED: BRANCH  65  67
DOCKED: ATOM     67  O3  UNL     1       7.699  -8.879   5.415 +0.00 -0.00    -0.481 OA 
DOCKED: ATOM     68  H17 UNL     1       8.453  -9.158   4.856 +0.00 +0.00    +0.295 HD 
DOCKED: ENDBRANCH  65  67
DOCKED: ENDBRANCH  64  65
DOCKED: ENDBRANCH  63  64
DOCKED: ENDBRANCH  59  63
DOCKED: ENDBRANCH  56  59
DOCKED: ENDBRANCH  54  55
DOCKED: BRANCH  54  70
DOCKED: ATOM     69  C1  UNL     1       4.390  -7.027   3.872 +0.00 +0.00    +0.009 C  
DOCKED: ATOM     70  C2  UNL     1       3.952  -7.935   2.717 +0.00 +0.00    +0.012 C  
DOCKED: ATOM     71  C3  UNL     1       3.160  -9.135   3.234 +0.00 +0.00    +0.009 C  
DOCKED: ENDBRANCH  54  70
DOCKED: ENDBRANCH  50  54
DOCKED: ENDBRANCH  49  52
DOCKED: BRANCH  49  72
DOCKED: ATOM     72  C12 UNL     1       9.079  -5.776   2.920 +0.00 +0.00    +0.127 C  
DOCKED: BRANCH  72  73
DOCKED: ATOM     73  C13 UNL     1       9.061  -6.827   4.005 +0.00 +0.00    +0.213 C  
DOCKED: ATOM     74  N4  UNL     1       8.755  -6.365   5.250 +0.00 -0.00    -0.329 N  
DOCKED: ATOM     75  O5  UNL     1       9.228  -8.022   3.793 +0.00 -0.00    -0.276 OA 
DOCKED: ATOM     76  H22 UNL     1       8.774  -7.031   6.013 +0.00 +0.00    +0.145 HD 
DOCKED: ATOM     77  H23 UNL     1       8.754  -5.382   5.490 +0.00 +0.00    +0.145 HD 
DOCKED: ENDBRANCH  72  73
DOCKED: ENDBRANCH  49  72
DOCKED: ENDBRANCH  45  49
DOCKED: ENDBRANCH  44  47
DOCKED: BRANCH  44  78
DOCKED: ATOM     78  C16 UNL     1      12.266  -7.509   0.558 +0.00 +0.00    +0.028 C  
DOCKED: BRANCH  78  79
DOCKED: ATOM     79  C17 UNL     1      13.761  -7.825   0.352 +0.00 -0.00    -0.009 C  
DOCKED: ATOM     80  C18 UNL     1      13.965  -8.629  -0.957 +0.00 +0.00    +0.003 C  
DOCKED: ATOM     81  C19 UNL     1      15.398  -8.581  -1.499 +0.00 +0.00    +0.000 C  
DOCKED: ATOM     82  C20 UNL     1      16.417  -8.259  -0.416 +0.00 +0.00    +0.000 C  
DOCKED: ATOM     83  C21 UNL     1      16.126  -6.914   0.251 +0.00 +0.00    +0.000 C  
DOCKED: ATOM     84  C22 UNL     1      14.635  -6.564   0.291 +0.00 +0.00    +0.003 C  
DOCKED: ENDBRANCH  78  79
DOCKED: ENDBRANCH  44  78
DOCKED: ENDBRANCH   1  44
DOCKED: TORSDOF 36
DOCKED: TER
DOCKED: ENDMDL
________________________________________________________________________________


    FINAL DOCKED STATE:
    ________________________


Run:   11 / 20
Time taken for this run:   7.574s

DOCKED: MODEL        11
DOCKED: USER    Run = 11
DOCKED: USER
DOCKED: USER    Estimated Free Energy of Binding    = +10.74 kcal/mol  [=(1)+(2)+(3)-(4)]
DOCKED: USER
DOCKED: USER    (1) Final Intermolecular Energy     =  +0.00 kcal/mol
DOCKED: USER        vdW + Hbond + desolv Energy     =  +0.00 kcal/mol
DOCKED: USER        Electrostatic Energy            =  +0.00 kcal/mol
DOCKED: USER        Moving Ligand-Fixed Receptor    =  +0.00 kcal/mol
DOCKED: USER        Moving Ligand-Moving Receptor   =  +0.00 kcal/mol
DOCKED: USER    (2) Final Total Internal Energy     = -32.09 kcal/mol
DOCKED: USER    (3) Torsional Free Energy           = +10.74 kcal/mol
DOCKED: USER    (4) Unbound System's Energy         = -32.09 kcal/mol
DOCKED: USER
DOCKED: USER
DOCKED: REMARK  Name = ligands/ligand_16.pdb
DOCKED: REMARK  41 active torsions:
DOCKED: REMARK  status: ('A' for Active; 'I' for Inactive)
DOCKED: REMARK    1  A    between atoms: C1_1  and  C2_2
DOCKED: REMARK    2  A    between atoms: C2_2  and  C3_3
DOCKED: REMARK    3  A    between atoms: C2_2  and  C4_4
DOCKED: REMARK    4  A    between atoms: C4_4  and  N1_5
DOCKED: REMARK    5  A    between atoms: C4_4  and  C10_15
DOCKED: REMARK    6  A    between atoms: C5_6  and  C6_8
DOCKED: REMARK    7  A    between atoms: C6_8  and  N2_9
DOCKED: REMARK    8  A    between atoms: C6_8  and  C7_10
DOCKED: REMARK    9  A    between atoms: C7_10  and  C8_11
DOCKED: REMARK   10  A    between atoms: C8_11  and  C9_12
DOCKED: REMARK   11  A    between atoms: C9_12  and  O3_14
DOCKED: REMARK   12  A    between atoms: N3_17  and  C11_18
DOCKED: REMARK   13  A    between atoms: C11_18  and  C12_19
DOCKED: REMARK   14  A    between atoms: C11_18  and  C14_23
DOCKED: REMARK   15  A    between atoms: C12_19  and  C13_20
DOCKED: REMARK   16  A    between atoms: N5_25  and  C15_26
DOCKED: REMARK   17  A    between atoms: C15_26  and  C16_27
DOCKED: REMARK   18  A    between atoms: C15_26  and  C23_34
DOCKED: REMARK   19  A    between atoms: C16_27  and  C17_28
DOCKED: REMARK   20  A    between atoms: C23_34  and  O7_35
DOCKED: REMARK   21  A    between atoms: C23_34  and  C24_36
DOCKED: REMARK   22  A    between atoms: C24_36  and  C25_37
DOCKED: REMARK   23  A    between atoms: C25_37  and  C26_38
DOCKED: REMARK   24  A    between atoms: C25_37  and  C44_66
DOCKED: REMARK   25  A    between atoms: N6_40  and  C27_41
DOCKED: REMARK   26  A    between atoms: C27_41  and  C28_42
DOCKED: REMARK   27  A    between atoms: C27_41  and  C29_43
DOCKED: REMARK   28  A    between atoms: N7_45  and  C30_46
DOCKED: REMARK   29  A    between atoms: C30_46  and  C31_47
DOCKED: REMARK   30  A    between atoms: C30_46  and  C34_52
DOCKED: REMARK   31  A    between atoms: C31_47  and  C32_48
DOCKED: REMARK   32  A    between atoms: C32_48  and  C33_49
DOCKED: REMARK   33  A    between atoms: C33_49  and  O11_51
DOCKED: REMARK   34  A    between atoms: N8_54  and  C35_55
DOCKED: REMARK   35  A    between atoms: C35_55  and  C36_56
DOCKED: REMARK   36  A    between atoms: C35_55  and  C43_63
DOCKED: REMARK   37  A    between atoms: C36_56  and  C37_57
DOCKED: REMARK   38  A    between atoms: C43_63  and  O14_65
DOCKED: REMARK   39  A    between atoms: C44_66  and  C45_67
DOCKED: REMARK   40  A    between atoms: C44_66  and  C46_68
DOCKED: REMARK   41  A    between atoms: C44_66  and  O15_69
DOCKED: REMARK                            x       y       z     vdW  Elec       q    Type
DOCKED: REMARK                         _______ _______ _______ _____ _____    ______ ____
DOCKED: USER                              x       y       z     vdW  Elec       q    Type
DOCKED: USER                           _______ _______ _______ _____ _____    ______ ____
DOCKED: ROOT
DOCKED: ATOM      1  C23 UNL     1      12.814  -8.805  -2.056 +0.00 +0.00    +0.135 C  
DOCKED: ENDROOT
DOCKED: BRANCH   1   2
DOCKED: ATOM      2  O7  UNL     1      13.009  -7.416  -2.307 +0.00 -0.00    -0.390 OA 
DOCKED: ATOM      3  H40 UNL     1      13.019  -7.307  -3.273 +0.00 +0.00    +0.210 HD 
DOCKED: ENDBRANCH   1   2
DOCKED: BRANCH   1   4
DOCKED: ATOM      4  C24 UNL     1      12.705  -9.000  -0.529 +0.00 +0.00    +0.048 C  
DOCKED: BRANCH   4   5
DOCKED: ATOM      5  C25 UNL     1      11.400  -8.720   0.269 +0.00 +0.00    +0.108 C  
DOCKED: BRANCH   5   6
DOCKED: ATOM      6  C26 UNL     1      11.296  -7.276   0.775 +0.00 +0.00    +0.220 C  
DOCKED: ATOM      7  O8  UNL     1      11.137  -7.050   1.973 +0.00 -0.00    -0.275 OA 
DOCKED: ATOM      8  N6  UNL     1      11.387  -6.286  -0.165 +0.00 -0.00    -0.304 N  
DOCKED: ATOM      9  H44 UNL     1      11.379  -6.553  -1.148 +0.00 +0.00    +0.149 HD 
DOCKED: BRANCH   8  10
DOCKED: ATOM     10  C27 UNL     1      11.189  -4.856   0.081 +0.00 +0.00    +0.156 C  
DOCKED: ATOM     11  C28 UNL     1      10.046  -4.203  -0.685 +0.00 +0.00    +0.038 C  
DOCKED: BRANCH  10  12
DOCKED: ATOM     12  C29 UNL     1      12.496  -4.051  -0.104 +0.00 +0.00    +0.234 C  
DOCKED: ATOM     13  O9  UNL     1      12.630  -2.874   0.231 +0.00 -0.00    -0.274 OA 
DOCKED: ATOM     14  N7  UNL     1      13.535  -4.768  -0.672 +0.00 -0.00    -0.302 N  
DOCKED: ATOM     15  H49 UNL     1      13.284  -5.559  -1.267 +0.00 +0.00    +0.150 HD 
DOCKED: BRANCH  14  16
DOCKED: ATOM     16  C30 UNL     1      14.811  -4.113  -0.967 +0.00 +0.00    +0.159 C  
DOCKED: BRANCH  16  17
DOCKED: ATOM     17  C34 UNL     1      15.888  -5.215  -0.992 +0.00 +0.00    +0.234 C  
DOCKED: ATOM     18  O12 UNL     1      16.870  -5.212  -0.253 +0.00 -0.00    -0.274 OA 
DOCKED: ATOM     19  N8  UNL     1      15.699  -6.165  -1.966 +0.00 -0.00    -0.301 N  
DOCKED: ATOM     20  H56 UNL     1      14.838  -6.160  -2.512 +0.00 +0.00    +0.150 HD 
DOCKED: BRANCH  19  21
DOCKED: ATOM     21  C35 UNL     1      16.488  -7.399  -2.004 +0.00 +0.00    +0.186 C  
DOCKED: BRANCH  21  22
DOCKED: ATOM     22  C43 UNL     1      16.208  -8.114  -3.324 +0.00 +0.00    +0.326 C  
DOCKED: ATOM     23  O13 UNL     1      17.023  -8.736  -3.993 +0.00 -0.00    -0.249 OA 
DOCKED: BRANCH  22  24
DOCKED: ATOM     24  O14 UNL     1      14.938  -7.974  -3.759 +0.00 -0.00    -0.479 OA 
DOCKED: ATOM     25  H65 UNL     1      14.831  -7.002  -3.836 +0.00 +0.00    +0.295 HD 
DOCKED: ENDBRANCH  22  24
DOCKED: ENDBRANCH  21  22
DOCKED: BRANCH  21  26
DOCKED: ATOM     26  C36 UNL     1      17.989  -7.176  -1.767 +0.00 +0.00    +0.069 C  
DOCKED: BRANCH  26  27
DOCKED: ATOM     27  C37 UNL     1      18.686  -6.341  -2.817 +0.00 -0.00    -0.045 A  
DOCKED: ATOM     28  C38 UNL     1      18.624  -4.943  -2.770 +0.00 +0.00    +0.004 A  
DOCKED: ATOM     29  C39 UNL     1      19.272  -4.169  -3.732 +0.00 +0.00    +0.000 A  
DOCKED: ATOM     30  C40 UNL     1      19.986  -4.783  -4.757 +0.00 +0.00    +0.000 A  
DOCKED: ATOM     31  C41 UNL     1      20.054  -6.174  -4.818 +0.00 +0.00    +0.000 A  
DOCKED: ATOM     32  C42 UNL     1      19.408  -6.950  -3.853 +0.00 +0.00    +0.004 A  
DOCKED: ENDBRANCH  26  27
DOCKED: ENDBRANCH  21  26
DOCKED: ENDBRANCH  19  21
DOCKED: ENDBRANCH  16  17
DOCKED: BRANCH  16  33
DOCKED: ATOM     33  C31 UNL     1      14.721  -3.350  -2.301 +0.00 +0.00    +0.043 C  
DOCKED: BRANCH  33  34
DOCKED: ATOM     34  C32 UNL     1      13.367  -3.481  -2.992 +0.00 +0.00    +0.123 C  
DOCKED: BRANCH  34  35
DOCKED: ATOM     35  C33 UNL     1      12.991  -4.912  -3.239 +0.00 +0.00    +0.305 C  
DOCKED: ATOM     36  O10 UNL     1      11.919  -5.425  -2.963 +0.00 -0.00    -0.251 OA 
DOCKED: BRANCH  35  37
DOCKED: ATOM     37  O11 UNL     1      13.957  -5.605  -3.867 +0.00 -0.00    -0.481 OA 
DOCKED: ATOM     38  H55 UNL     1      13.501  -6.404  -4.205 +0.00 +0.00    +0.295 HD 
DOCKED: ENDBRANCH  35  37
DOCKED: ENDBRANCH  34  35
DOCKED: ENDBRANCH  33  34
DOCKED: ENDBRANCH  16  33
DOCKED: ENDBRANCH  14  16
DOCKED: ENDBRANCH  10  12
DOCKED: ENDBRANCH   8  10
DOCKED: ENDBRANCH   5   6
DOCKED: BRANCH   5  39
DOCKED: ATOM     39  C44 UNL     1      10.820  -9.831   1.207 +0.00 +0.00    +0.072 C  
DOCKED: ATOM     40  C45 UNL     1      11.803 -10.096   2.361 +0.00 +0.00    +0.042 C  
DOCKED: ATOM     41  C46 UNL     1      10.498 -11.189   0.573 +0.00 +0.00    +0.042 C  
DOCKED: BRANCH  39  42
DOCKED: ATOM     42  O15 UNL     1       9.609  -9.366   1.822 +0.00 -0.00    -0.388 OA 
DOCKED: ATOM     43  H72 UNL     1       9.853  -8.545   2.303 +0.00 +0.00    +0.210 HD 
DOCKED: ENDBRANCH  39  42
DOCKED: ENDBRANCH   5  39
DOCKED: ENDBRANCH   4   5
DOCKED: ENDBRANCH   1   4
DOCKED: BRANCH   1  44
DOCKED: ATOM     44  C15 UNL     1      11.671  -9.475  -2.894 +0.00 +0.00    +0.102 C  
DOCKED: BRANCH  44  47
DOCKED: ATOM     45  C14 UNL     1      11.812  -7.894  -4.843 +0.00 +0.00    +0.234 C  
DOCKED: ATOM     46  O6  UNL     1      12.949  -8.272  -5.132 +0.00 -0.00    -0.274 OA 
DOCKED: ATOM     47  N5  UNL     1      11.061  -8.589  -3.923 +0.00 -0.00    -0.308 N  
DOCKED: ATOM     48  H24 UNL     1      10.243  -8.074  -3.587 +0.00 +0.00    +0.149 HD 
DOCKED: BRANCH  45  49
DOCKED: ATOM     49  C11 UNL     1      11.176  -6.624  -5.474 +0.00 +0.00    +0.168 C  
DOCKED: BRANCH  49  52
DOCKED: ATOM     50  C10 UNL     1      12.108  -4.404  -6.083 +0.00 +0.00    +0.234 C  
DOCKED: ATOM     51  O4  UNL     1      11.014  -3.864  -5.884 +0.00 -0.00    -0.274 OA 
DOCKED: ATOM     52  N3  UNL     1      12.272  -5.771  -5.968 +0.00 -0.00    -0.302 N  
DOCKED: ATOM     53  H18 UNL     1      13.201  -6.081  -5.726 +0.00 +0.00    +0.150 HD 
DOCKED: BRANCH  50  54
DOCKED: ATOM     54  C4  UNL     1      13.368  -3.600  -6.544 +0.00 +0.00    +0.161 C  
DOCKED: BRANCH  54  55
DOCKED: ATOM     55  N1  UNL     1      14.501  -4.519  -6.417 +0.00 -0.00    -0.302 N  
DOCKED: ATOM     56  C5  UNL     1      15.806  -4.078  -6.536 +0.00 +0.00    +0.230 C  
DOCKED: ATOM     57  O1  UNL     1      16.111  -3.004  -7.043 +0.00 -0.00    -0.274 OA 
DOCKED: ATOM     58  H9  UNL     1      14.366  -5.317  -5.809 +0.00 +0.00    +0.150 HD 
DOCKED: BRANCH  56  59
DOCKED: ATOM     59  C6  UNL     1      16.852  -5.081  -5.999 +0.00 +0.00    +0.138 C  
DOCKED: BRANCH  59  60
DOCKED: ATOM     60  N2  UNL     1      16.308  -5.757  -4.804 +0.00 -0.00    -0.320 NA 
DOCKED: ATOM     61  H11 UNL     1      16.371  -6.773  -4.893 +0.00 +0.00    +0.119 HD 
DOCKED: ATOM     62  H12 UNL     1      15.329  -5.493  -4.687 +0.00 +0.00    +0.119 HD 
DOCKED: ENDBRANCH  59  60
DOCKED: BRANCH  59  63
DOCKED: ATOM     63  C7  UNL     1      17.240  -6.068  -7.110 +0.00 +0.00    +0.039 C  
DOCKED: BRANCH  63  64
DOCKED: ATOM     64  C8  UNL     1      16.724  -7.492  -6.890 +0.00 +0.00    +0.122 C  
DOCKED: BRANCH  64  65
DOCKED: ATOM     65  C9  UNL     1      15.231  -7.592  -7.071 +0.00 +0.00    +0.305 C  
DOCKED: ATOM     66  O2  UNL     1      14.631  -8.171  -7.964 +0.00 -0.00    -0.251 OA 
DOCKED: BRANCH  65  67
DOCKED: ATOM     67  O3  UNL     1      14.559  -6.962  -6.087 +0.00 -0.00    -0.481 OA 
DOCKED: ATOM     68  H17 UNL     1      14.916  -7.345  -5.260 +0.00 +0.00    +0.295 HD 
DOCKED: ENDBRANCH  65  67
DOCKED: ENDBRANCH  64  65
DOCKED: ENDBRANCH  63  64
DOCKED: ENDBRANCH  59  63
DOCKED: ENDBRANCH  56  59
DOCKED: ENDBRANCH  54  55
DOCKED: BRANCH  54  70
DOCKED: ATOM     69  C1  UNL     1      12.245  -2.018  -8.231 +0.00 +0.00    +0.009 C  
DOCKED: ATOM     70  C2  UNL     1      13.392  -3.002  -7.971 +0.00 +0.00    +0.012 C  
DOCKED: ATOM     71  C3  UNL     1      13.486  -4.041  -9.089 +0.00 +0.00    +0.009 C  
DOCKED: ENDBRANCH  54  70
DOCKED: ENDBRANCH  50  54
DOCKED: ENDBRANCH  49  52
DOCKED: BRANCH  49  72
DOCKED: ATOM     72  C12 UNL     1      10.237  -6.942  -6.639 +0.00 +0.00    +0.127 C  
DOCKED: BRANCH  72  73
DOCKED: ATOM     73  C13 UNL     1      10.967  -6.933  -7.961 +0.00 +0.00    +0.213 C  
DOCKED: ATOM     74  N4  UNL     1      12.209  -7.492  -7.938 +0.00 -0.00    -0.329 N  
DOCKED: ATOM     75  O5  UNL     1      10.470  -6.530  -9.006 +0.00 -0.00    -0.276 OA 
DOCKED: ATOM     76  H22 UNL     1      12.748  -7.469  -8.795 +0.00 +0.00    +0.145 HD 
DOCKED: ATOM     77  H23 UNL     1      12.706  -7.701  -7.081 +0.00 +0.00    +0.145 HD 
DOCKED: ENDBRANCH  72  73
DOCKED: ENDBRANCH  49  72
DOCKED: ENDBRANCH  45  49
DOCKED: ENDBRANCH  44  47
DOCKED: BRANCH  44  78
DOCKED: ATOM     78  C16 UNL     1      12.105 -10.782  -3.621 +0.00 +0.00    +0.028 C  
DOCKED: BRANCH  78  79
DOCKED: ATOM     79  C17 UNL     1      13.555 -10.849  -4.141 +0.00 -0.00    -0.009 C  
DOCKED: ATOM     80  C18 UNL     1      14.356 -11.924  -3.365 +0.00 +0.00    +0.003 C  
DOCKED: ATOM     81  C19 UNL     1      15.617 -12.405  -4.092 +0.00 +0.00    +0.000 C  
DOCKED: ATOM     82  C20 UNL     1      16.128 -11.387  -5.101 +0.00 +0.00    +0.000 C  
DOCKED: ATOM     83  C21 UNL     1      15.074 -11.065  -6.161 +0.00 +0.00    +0.000 C  
DOCKED: ATOM     84  C22 UNL     1      13.637 -11.168  -5.641 +0.00 +0.00    +0.003 C  
DOCKED: ENDBRANCH  78  79
DOCKED: ENDBRANCH  44  78
DOCKED: ENDBRANCH   1  44
DOCKED: TORSDOF 36
DOCKED: TER
DOCKED: ENDMDL
________________________________________________________________________________


    FINAL DOCKED STATE:
    ________________________


Run:   12 / 20
Time taken for this run:   7.574s

DOCKED: MODEL        12
DOCKED: USER    Run = 12
DOCKED: USER
DOCKED: USER    Estimated Free Energy of Binding    = +10.74 kcal/mol  [=(1)+(2)+(3)-(4)]
DOCKED: USER
DOCKED: USER    (1) Final Intermolecular Energy     =  +0.00 kcal/mol
DOCKED: USER        vdW + Hbond + desolv Energy     =  +0.00 kcal/mol
DOCKED: USER        Electrostatic Energy            =  +0.00 kcal/mol
DOCKED: USER        Moving Ligand-Fixed Receptor    =  +0.00 kcal/mol
DOCKED: USER        Moving Ligand-Moving Receptor   =  +0.00 kcal/mol
DOCKED: USER    (2) Final Total Internal Energy     = -31.08 kcal/mol
DOCKED: USER    (3) Torsional Free Energy           = +10.74 kcal/mol
DOCKED: USER    (4) Unbound System's Energy         = -31.08 kcal/mol
DOCKED: USER
DOCKED: USER
DOCKED: REMARK  Name = ligands/ligand_16.pdb
DOCKED: REMARK  41 active torsions:
DOCKED: REMARK  status: ('A' for Active; 'I' for Inactive)
DOCKED: REMARK    1  A    between atoms: C1_1  and  C2_2
DOCKED: REMARK    2  A    between atoms: C2_2  and  C3_3
DOCKED: REMARK    3  A    between atoms: C2_2  and  C4_4
DOCKED: REMARK    4  A    between atoms: C4_4  and  N1_5
DOCKED: REMARK    5  A    between atoms: C4_4  and  C10_15
DOCKED: REMARK    6  A    between atoms: C5_6  and  C6_8
DOCKED: REMARK    7  A    between atoms: C6_8  and  N2_9
DOCKED: REMARK    8  A    between atoms: C6_8  and  C7_10
DOCKED: REMARK    9  A    between atoms: C7_10  and  C8_11
DOCKED: REMARK   10  A    between atoms: C8_11  and  C9_12
DOCKED: REMARK   11  A    between atoms: C9_12  and  O3_14
DOCKED: REMARK   12  A    between atoms: N3_17  and  C11_18
DOCKED: REMARK   13  A    between atoms: C11_18  and  C12_19
DOCKED: REMARK   14  A    between atoms: C11_18  and  C14_23
DOCKED: REMARK   15  A    between atoms: C12_19  and  C13_20
DOCKED: REMARK   16  A    between atoms: N5_25  and  C15_26
DOCKED: REMARK   17  A    between atoms: C15_26  and  C16_27
DOCKED: REMARK   18  A    between atoms: C15_26  and  C23_34
DOCKED: REMARK   19  A    between atoms: C16_27  and  C17_28
DOCKED: REMARK   20  A    between atoms: C23_34  and  O7_35
DOCKED: REMARK   21  A    between atoms: C23_34  and  C24_36
DOCKED: REMARK   22  A    between atoms: C24_36  and  C25_37
DOCKED: REMARK   23  A    between atoms: C25_37  and  C26_38
DOCKED: REMARK   24  A    between atoms: C25_37  and  C44_66
DOCKED: REMARK   25  A    between atoms: N6_40  and  C27_41
DOCKED: REMARK   26  A    between atoms: C27_41  and  C28_42
DOCKED: REMARK   27  A    between atoms: C27_41  and  C29_43
DOCKED: REMARK   28  A    between atoms: N7_45  and  C30_46
DOCKED: REMARK   29  A    between atoms: C30_46  and  C31_47
DOCKED: REMARK   30  A    between atoms: C30_46  and  C34_52
DOCKED: REMARK   31  A    between atoms: C31_47  and  C32_48
DOCKED: REMARK   32  A    between atoms: C32_48  and  C33_49
DOCKED: REMARK   33  A    between atoms: C33_49  and  O11_51
DOCKED: REMARK   34  A    between atoms: N8_54  and  C35_55
DOCKED: REMARK   35  A    between atoms: C35_55  and  C36_56
DOCKED: REMARK   36  A    between atoms: C35_55  and  C43_63
DOCKED: REMARK   37  A    between atoms: C36_56  and  C37_57
DOCKED: REMARK   38  A    between atoms: C43_63  and  O14_65
DOCKED: REMARK   39  A    between atoms: C44_66  and  C45_67
DOCKED: REMARK   40  A    between atoms: C44_66  and  C46_68
DOCKED: REMARK   41  A    between atoms: C44_66  and  O15_69
DOCKED: REMARK                            x       y       z     vdW  Elec       q    Type
DOCKED: REMARK                         _______ _______ _______ _____ _____    ______ ____
DOCKED: USER                              x       y       z     vdW  Elec       q    Type
DOCKED: USER                           _______ _______ _______ _____ _____    ______ ____
DOCKED: ROOT
DOCKED: ATOM      1  C23 UNL     1      13.355  -5.339  -5.302 +0.00 +0.00    +0.135 C  
DOCKED: ENDROOT
DOCKED: BRANCH   1   2
DOCKED: ATOM      2  O7  UNL     1      13.994  -4.157  -4.827 +0.00 -0.00    -0.390 OA 
DOCKED: ATOM      3  H40 UNL     1      13.503  -3.873  -4.039 +0.00 +0.00    +0.210 HD 
DOCKED: ENDBRANCH   1   2
DOCKED: BRANCH   1   4
DOCKED: ATOM      4  C24 UNL     1      14.359  -6.504  -5.175 +0.00 +0.00    +0.048 C  
DOCKED: BRANCH   4   5
DOCKED: ATOM      5  C25 UNL     1      14.809  -7.090  -3.807 +0.00 +0.00    +0.108 C  
DOCKED: BRANCH   5   6
DOCKED: ATOM      6  C26 UNL     1      13.977  -8.300  -3.363 +0.00 +0.00    +0.220 C  
DOCKED: ATOM      7  O8  UNL     1      14.038  -9.356  -3.991 +0.00 -0.00    -0.275 OA 
DOCKED: ATOM      8  N6  UNL     1      13.189  -8.134  -2.258 +0.00 -0.00    -0.304 N  
DOCKED: ATOM      9  H44 UNL     1      13.086  -7.194  -1.876 +0.00 +0.00    +0.149 HD 
DOCKED: BRANCH   8  10
DOCKED: ATOM     10  C27 UNL     1      12.227  -9.110  -1.742 +0.00 +0.00    +0.156 C  
DOCKED: ATOM     11  C28 UNL     1      12.806 -10.451  -1.312 +0.00 +0.00    +0.038 C  
DOCKED: BRANCH  10  12
DOCKED: ATOM     12  C29 UNL     1      11.037  -9.317  -2.708 +0.00 +0.00    +0.234 C  
DOCKED: ATOM     13  O9  UNL     1       9.857  -9.212  -2.376 +0.00 -0.00    -0.274 OA 
DOCKED: ATOM     14  N7  UNL     1      11.403  -9.620  -4.009 +0.00 -0.00    -0.302 N  
DOCKED: ATOM     15  H49 UNL     1      12.310 -10.068  -4.145 +0.00 +0.00    +0.150 HD 
DOCKED: BRANCH  14  16
DOCKED: ATOM     16  C30 UNL     1      10.380  -9.909  -5.016 +0.00 +0.00    +0.159 C  
DOCKED: BRANCH  16  17
DOCKED: ATOM     17  C34 UNL     1      10.854  -9.269  -6.335 +0.00 +0.00    +0.234 C  
DOCKED: ATOM     18  O12 UNL     1      10.092  -8.983  -7.256 +0.00 -0.00    -0.274 OA 
DOCKED: ATOM     19  N8  UNL     1      12.216  -9.115  -6.428 +0.00 -0.00    -0.301 N  
DOCKED: ATOM     20  H56 UNL     1      12.800  -9.308  -5.616 +0.00 +0.00    +0.150 HD 
DOCKED: BRANCH  19  21
DOCKED: ATOM     21  C35 UNL     1      12.832  -8.333  -7.503 +0.00 +0.00    +0.186 C  
DOCKED: BRANCH  21  22
DOCKED: ATOM     22  C43 UNL     1      14.320  -8.672  -7.559 +0.00 +0.00    +0.326 C  
DOCKED: ATOM     23  O13 UNL     1      15.052  -8.544  -8.531 +0.00 -0.00    -0.249 OA 
DOCKED: BRANCH  22  24
DOCKED: ATOM     24  O14 UNL     1      14.801  -9.196  -6.412 +0.00 -0.00    -0.479 OA 
DOCKED: ATOM     25  H65 UNL     1      14.104  -9.833  -6.144 +0.00 +0.00    +0.295 HD 
DOCKED: ENDBRANCH  22  24
DOCKED: ENDBRANCH  21  22
DOCKED: BRANCH  21  26
DOCKED: ATOM     26  C36 UNL     1      12.142  -8.508  -8.864 +0.00 +0.00    +0.069 C  
DOCKED: BRANCH  26  27
DOCKED: ATOM     27  C37 UNL     1      11.512  -7.253  -9.428 +0.00 -0.00    -0.045 A  
DOCKED: ATOM     28  C38 UNL     1      10.459  -7.339 -10.348 +0.00 +0.00    +0.004 A  
DOCKED: ATOM     29  C39 UNL     1       9.871  -6.186 -10.865 +0.00 +0.00    +0.000 A  
DOCKED: ATOM     30  C40 UNL     1      10.331  -4.931 -10.472 +0.00 +0.00    +0.000 A  
DOCKED: ATOM     31  C41 UNL     1      11.379  -4.832  -9.560 +0.00 +0.00    +0.000 A  
DOCKED: ATOM     32  C42 UNL     1      11.968  -5.986  -9.039 +0.00 +0.00    +0.004 A  
DOCKED: ENDBRANCH  26  27
DOCKED: ENDBRANCH  21  26
DOCKED: ENDBRANCH  19  21
DOCKED: ENDBRANCH  16  17
DOCKED: BRANCH  16  33
DOCKED: ATOM     33  C31 UNL     1      10.170 -11.428  -5.142 +0.00 +0.00    +0.043 C  
DOCKED: BRANCH  33  34
DOCKED: ATOM     34  C32 UNL     1      11.376 -12.169  -5.712 +0.00 +0.00    +0.123 C  
DOCKED: BRANCH  34  35
DOCKED: ATOM     35  C33 UNL     1      12.627 -11.909  -4.926 +0.00 +0.00    +0.305 C  
DOCKED: ATOM     36  O10 UNL     1      12.824 -12.243  -3.769 +0.00 -0.00    -0.251 OA 
DOCKED: BRANCH  35  37
DOCKED: ATOM     37  O11 UNL     1      13.580 -11.295  -5.649 +0.00 -0.00    -0.481 OA 
DOCKED: ATOM     38  H55 UNL     1      14.011 -10.687  -5.013 +0.00 +0.00    +0.295 HD 
DOCKED: ENDBRANCH  35  37
DOCKED: ENDBRANCH  34  35
DOCKED: ENDBRANCH  33  34
DOCKED: ENDBRANCH  16  33
DOCKED: ENDBRANCH  14  16
DOCKED: ENDBRANCH  10  12
DOCKED: ENDBRANCH   8  10
DOCKED: ENDBRANCH   5   6
DOCKED: BRANCH   5  39
DOCKED: ATOM     39  C44 UNL     1      15.287  -6.120  -2.675 +0.00 +0.00    +0.072 C  
DOCKED: ATOM     40  C45 UNL     1      16.525  -5.339  -3.154 +0.00 +0.00    +0.042 C  
DOCKED: ATOM     41  C46 UNL     1      15.649  -6.743  -1.322 +0.00 +0.00    +0.042 C  
DOCKED: BRANCH  39  42
DOCKED: ATOM     42  O15 UNL     1      14.276  -5.134  -2.418 +0.00 -0.00    -0.388 OA 
DOCKED: ATOM     43  H72 UNL     1      14.155  -4.650  -3.264 +0.00 +0.00    +0.210 HD 
DOCKED: ENDBRANCH  39  42
DOCKED: ENDBRANCH   5  39
DOCKED: ENDBRANCH   4   5
DOCKED: ENDBRANCH   1   4
DOCKED: BRANCH   1  44
DOCKED: ATOM     44  C15 UNL     1      11.937  -5.616  -4.691 +0.00 +0.00    +0.102 C  
DOCKED: BRANCH  44  47
DOCKED: ATOM     45  C14 UNL     1      10.758  -5.761  -2.475 +0.00 +0.00    +0.234 C  
DOCKED: ATOM     46  O6  UNL     1      10.046  -6.690  -2.859 +0.00 -0.00    -0.274 OA 
DOCKED: ATOM     47  N5  UNL     1      11.836  -5.355  -3.229 +0.00 -0.00    -0.308 N  
DOCKED: ATOM     48  H24 UNL     1      12.214  -4.446  -2.948 +0.00 +0.00    +0.149 HD 
DOCKED: BRANCH  45  49
DOCKED: ATOM     49  C11 UNL     1      10.479  -4.994  -1.153 +0.00 +0.00    +0.168 C  
DOCKED: BRANCH  49  52
DOCKED: ATOM     50  C10 UNL     1      12.718  -5.263  -0.110 +0.00 +0.00    +0.234 C  
DOCKED: ATOM     51  O4  UNL     1      12.495  -6.457   0.117 +0.00 -0.00    -0.274 OA 
DOCKED: ATOM     52  N3  UNL     1      11.760  -4.443  -0.675 +0.00 -0.00    -0.302 N  
DOCKED: ATOM     53  H18 UNL     1      12.113  -3.658  -1.201 +0.00 +0.00    +0.150 HD 
DOCKED: BRANCH  50  54
DOCKED: ATOM     54  C4  UNL     1      14.063  -4.572   0.286 +0.00 +0.00    +0.161 C  
DOCKED: BRANCH  54  55
DOCKED: ATOM     55  N1  UNL     1      14.264  -3.494  -0.685 +0.00 -0.00    -0.302 N  
DOCKED: ATOM     56  C5  UNL     1      15.439  -2.766  -0.724 +0.00 +0.00    +0.230 C  
DOCKED: ATOM     57  O1  UNL     1      16.247  -2.740   0.198 +0.00 -0.00    -0.274 OA 
DOCKED: ATOM     58  H9  UNL     1      13.785  -3.594  -1.571 +0.00 +0.00    +0.150 HD 
DOCKED: BRANCH  56  59
DOCKED: ATOM     59  C6  UNL     1      15.625  -1.958  -2.028 +0.00 +0.00    +0.138 C  
DOCKED: BRANCH  59  60
DOCKED: ATOM     60  N2  UNL     1      15.241  -2.797  -3.180 +0.00 -0.00    -0.320 NA 
DOCKED: ATOM     61  H11 UNL     1      14.601  -2.302  -3.802 +0.00 +0.00    +0.119 HD 
DOCKED: ATOM     62  H12 UNL     1      14.785  -3.645  -2.839 +0.00 +0.00    +0.119 HD 
DOCKED: ENDBRANCH  59  60
DOCKED: BRANCH  59  63
DOCKED: ATOM     63  C7  UNL     1      14.813  -0.656  -1.950 +0.00 +0.00    +0.039 C  
DOCKED: BRANCH  63  64
DOCKED: ATOM     64  C8  UNL     1      13.513  -0.680  -2.758 +0.00 +0.00    +0.122 C  
DOCKED: BRANCH  64  65
DOCKED: ATOM     65  C9  UNL     1      12.570  -1.758  -2.289 +0.00 +0.00    +0.305 C  
DOCKED: ATOM     66  O2  UNL     1      11.748  -1.681  -1.389 +0.00 -0.00    -0.251 OA 
DOCKED: BRANCH  65  67
DOCKED: ATOM     67  O3  UNL     1      12.701  -2.891  -3.006 +0.00 -0.00    -0.481 OA 
DOCKED: ATOM     68  H17 UNL     1      13.651  -3.117  -2.939 +0.00 +0.00    +0.295 HD 
DOCKED: ENDBRANCH  65  67
DOCKED: ENDBRANCH  64  65
DOCKED: ENDBRANCH  63  64
DOCKED: ENDBRANCH  59  63
DOCKED: ENDBRANCH  56  59
DOCKED: ENDBRANCH  54  55
DOCKED: BRANCH  54  70
DOCKED: ATOM     69  C1  UNL     1      14.243  -5.035   2.808 +0.00 +0.00    +0.009 C  
DOCKED: ATOM     70  C2  UNL     1      14.206  -3.971   1.706 +0.00 +0.00    +0.012 C  
DOCKED: ATOM     71  C3  UNL     1      13.190  -2.877   2.033 +0.00 +0.00    +0.009 C  
DOCKED: ENDBRANCH  54  70
DOCKED: ENDBRANCH  50  54
DOCKED: ENDBRANCH  49  52
DOCKED: BRANCH  49  72
DOCKED: ATOM     72  C12 UNL     1       9.483  -3.846  -1.327 +0.00 +0.00    +0.127 C  
DOCKED: BRANCH  72  73
DOCKED: ATOM     73  C13 UNL     1       9.101  -3.656  -2.776 +0.00 +0.00    +0.213 C  
DOCKED: ATOM     74  N4  UNL     1       9.919  -2.829  -3.485 +0.00 -0.00    -0.329 N  
DOCKED: ATOM     75  O5  UNL     1       8.176  -4.251  -3.316 +0.00 -0.00    -0.276 OA 
DOCKED: ATOM     76  H22 UNL     1       9.673  -2.642  -4.449 +0.00 +0.00    +0.145 HD 
DOCKED: ATOM     77  H23 UNL     1      10.595  -2.213  -3.050 +0.00 +0.00    +0.145 HD 
DOCKED: ENDBRANCH  72  73
DOCKED: ENDBRANCH  49  72
DOCKED: ENDBRANCH  45  49
DOCKED: ENDBRANCH  44  47
DOCKED: BRANCH  44  78
DOCKED: ATOM     78  C16 UNL     1      10.790  -4.816  -5.375 +0.00 +0.00    +0.028 C  
DOCKED: BRANCH  78  79
DOCKED: ATOM     79  C17 UNL     1       9.851  -5.597  -6.316 +0.00 -0.00    -0.009 C  
DOCKED: ATOM     80  C18 UNL     1       9.027  -6.634  -5.513 +0.00 +0.00    +0.003 C  
DOCKED: ATOM     81  C19 UNL     1       7.759  -7.112  -6.232 +0.00 +0.00    +0.000 C  
DOCKED: ATOM     82  C20 UNL     1       7.847  -6.933  -7.740 +0.00 +0.00    +0.000 C  
DOCKED: ATOM     83  C21 UNL     1       8.076  -5.470  -8.123 +0.00 +0.00    +0.000 C  
DOCKED: ATOM     84  C22 UNL     1       8.879  -4.687  -7.080 +0.00 +0.00    +0.003 C  
DOCKED: ENDBRANCH  78  79
DOCKED: ENDBRANCH  44  78
DOCKED: ENDBRANCH   1  44
DOCKED: TORSDOF 36
DOCKED: TER
DOCKED: ENDMDL
________________________________________________________________________________


    FINAL DOCKED STATE:
    ________________________


Run:   13 / 20
Time taken for this run:   7.574s

DOCKED: MODEL        13
DOCKED: USER    Run = 13
DOCKED: USER
DOCKED: USER    Estimated Free Energy of Binding    = +10.74 kcal/mol  [=(1)+(2)+(3)-(4)]
DOCKED: USER
DOCKED: USER    (1) Final Intermolecular Energy     =  +0.00 kcal/mol
DOCKED: USER        vdW + Hbond + desolv Energy     =  +0.00 kcal/mol
DOCKED: USER        Electrostatic Energy            =  +0.00 kcal/mol
DOCKED: USER        Moving Ligand-Fixed Receptor    =  +0.00 kcal/mol
DOCKED: USER        Moving Ligand-Moving Receptor   =  +0.00 kcal/mol
DOCKED: USER    (2) Final Total Internal Energy     = -32.82 kcal/mol
DOCKED: USER    (3) Torsional Free Energy           = +10.74 kcal/mol
DOCKED: USER    (4) Unbound System's Energy         = -32.82 kcal/mol
DOCKED: USER
DOCKED: USER
DOCKED: REMARK  Name = ligands/ligand_16.pdb
DOCKED: REMARK  41 active torsions:
DOCKED: REMARK  status: ('A' for Active; 'I' for Inactive)
DOCKED: REMARK    1  A    between atoms: C1_1  and  C2_2
DOCKED: REMARK    2  A    between atoms: C2_2  and  C3_3
DOCKED: REMARK    3  A    between atoms: C2_2  and  C4_4
DOCKED: REMARK    4  A    between atoms: C4_4  and  N1_5
DOCKED: REMARK    5  A    between atoms: C4_4  and  C10_15
DOCKED: REMARK    6  A    between atoms: C5_6  and  C6_8
DOCKED: REMARK    7  A    between atoms: C6_8  and  N2_9
DOCKED: REMARK    8  A    between atoms: C6_8  and  C7_10
DOCKED: REMARK    9  A    between atoms: C7_10  and  C8_11
DOCKED: REMARK   10  A    between atoms: C8_11  and  C9_12
DOCKED: REMARK   11  A    between atoms: C9_12  and  O3_14
DOCKED: REMARK   12  A    between atoms: N3_17  and  C11_18
DOCKED: REMARK   13  A    between atoms: C11_18  and  C12_19
DOCKED: REMARK   14  A    between atoms: C11_18  and  C14_23
DOCKED: REMARK   15  A    between atoms: C12_19  and  C13_20
DOCKED: REMARK   16  A    between atoms: N5_25  and  C15_26
DOCKED: REMARK   17  A    between atoms: C15_26  and  C16_27
DOCKED: REMARK   18  A    between atoms: C15_26  and  C23_34
DOCKED: REMARK   19  A    between atoms: C16_27  and  C17_28
DOCKED: REMARK   20  A    between atoms: C23_34  and  O7_35
DOCKED: REMARK   21  A    between atoms: C23_34  and  C24_36
DOCKED: REMARK   22  A    between atoms: C24_36  and  C25_37
DOCKED: REMARK   23  A    between atoms: C25_37  and  C26_38
DOCKED: REMARK   24  A    between atoms: C25_37  and  C44_66
DOCKED: REMARK   25  A    between atoms: N6_40  and  C27_41
DOCKED: REMARK   26  A    between atoms: C27_41  and  C28_42
DOCKED: REMARK   27  A    between atoms: C27_41  and  C29_43
DOCKED: REMARK   28  A    between atoms: N7_45  and  C30_46
DOCKED: REMARK   29  A    between atoms: C30_46  and  C31_47
DOCKED: REMARK   30  A    between atoms: C30_46  and  C34_52
DOCKED: REMARK   31  A    between atoms: C31_47  and  C32_48
DOCKED: REMARK   32  A    between atoms: C32_48  and  C33_49
DOCKED: REMARK   33  A    between atoms: C33_49  and  O11_51
DOCKED: REMARK   34  A    between atoms: N8_54  and  C35_55
DOCKED: REMARK   35  A    between atoms: C35_55  and  C36_56
DOCKED: REMARK   36  A    between atoms: C35_55  and  C43_63
DOCKED: REMARK   37  A    between atoms: C36_56  and  C37_57
DOCKED: REMARK   38  A    between atoms: C43_63  and  O14_65
DOCKED: REMARK   39  A    between atoms: C44_66  and  C45_67
DOCKED: REMARK   40  A    between atoms: C44_66  and  C46_68
DOCKED: REMARK   41  A    between atoms: C44_66  and  O15_69
DOCKED: REMARK                            x       y       z     vdW  Elec       q    Type
DOCKED: REMARK                         _______ _______ _______ _____ _____    ______ ____
DOCKED: USER                              x       y       z     vdW  Elec       q    Type
DOCKED: USER                           _______ _______ _______ _____ _____    ______ ____
DOCKED: ROOT
DOCKED: ATOM      1  C23 UNL     1       8.788  -0.464   0.981 +0.00 +0.00    +0.135 C  
DOCKED: ENDROOT
DOCKED: BRANCH   1   2
DOCKED: ATOM      2  O7  UNL     1       9.720   0.123   0.077 +0.00 -0.00    -0.390 OA 
DOCKED: ATOM      3  H40 UNL     1      10.482   0.407   0.609 +0.00 +0.00    +0.210 HD 
DOCKED: ENDBRANCH   1   2
DOCKED: BRANCH   1   4
DOCKED: ATOM      4  C24 UNL     1       7.372  -0.251   0.406 +0.00 +0.00    +0.048 C  
DOCKED: BRANCH   4   5
DOCKED: ATOM      5  C25 UNL     1       6.301   0.639   1.099 +0.00 +0.00    +0.108 C  
DOCKED: BRANCH   5   6
DOCKED: ATOM      6  C26 UNL     1       6.300   2.089   0.596 +0.00 +0.00    +0.220 C  
DOCKED: ATOM      7  O8  UNL     1       7.340   2.604   0.192 +0.00 -0.00    -0.275 OA 
DOCKED: ATOM      8  N6  UNL     1       5.103   2.750   0.626 +0.00 -0.00    -0.304 N  
DOCKED: ATOM      9  H44 UNL     1       4.319   2.305   1.102 +0.00 +0.00    +0.149 HD 
DOCKED: BRANCH   8  10
DOCKED: ATOM     10  C27 UNL     1       4.903   4.166   0.316 +0.00 +0.00    +0.156 C  
DOCKED: ATOM     11  C28 UNL     1       5.410   4.627  -1.045 +0.00 +0.00    +0.038 C  
DOCKED: BRANCH  10  12
DOCKED: ATOM     12  C29 UNL     1       5.443   5.086   1.436 +0.00 +0.00    +0.234 C  
DOCKED: ATOM     13  O9  UNL     1       4.761   5.923   2.025 +0.00 -0.00    -0.274 OA 
DOCKED: ATOM     14  N7  UNL     1       6.777   4.885   1.748 +0.00 -0.00    -0.302 N  
DOCKED: ATOM     15  H49 UNL     1       7.373   4.498   1.015 +0.00 +0.00    +0.150 HD 
DOCKED: BRANCH  14  16
DOCKED: ATOM     16  C30 UNL     1       7.439   5.732   2.743 +0.00 +0.00    +0.159 C  
DOCKED: BRANCH  16  17
DOCKED: ATOM     17  C34 UNL     1       8.532   4.874   3.409 +0.00 +0.00    +0.234 C  
DOCKED: ATOM     18  O12 UNL     1       8.704   4.829   4.625 +0.00 -0.00    -0.274 OA 
DOCKED: ATOM     19  N8  UNL     1       9.351   4.218   2.522 +0.00 -0.00    -0.301 N  
DOCKED: ATOM     20  H56 UNL     1       9.131   4.235   1.527 +0.00 +0.00    +0.150 HD 
DOCKED: BRANCH  19  21
DOCKED: ATOM     21  C35 UNL     1      10.299   3.192   2.961 +0.00 +0.00    +0.186 C  
DOCKED: BRANCH  21  22
DOCKED: ATOM     22  C43 UNL     1      10.587   2.260   1.786 +0.00 +0.00    +0.326 C  
DOCKED: ATOM     23  O13 UNL     1      11.393   1.340   1.776 +0.00 -0.00    -0.249 OA 
DOCKED: BRANCH  22  24
DOCKED: ATOM     24  O14 UNL     1       9.885   2.559   0.672 +0.00 -0.00    -0.479 OA 
DOCKED: ATOM     25  H65 UNL     1       9.311   1.773   0.548 +0.00 +0.00    +0.295 HD 
DOCKED: ENDBRANCH  22  24
DOCKED: ENDBRANCH  21  22
DOCKED: BRANCH  21  26
DOCKED: ATOM     26  C36 UNL     1      11.583   3.765   3.579 +0.00 +0.00    +0.069 C  
DOCKED: BRANCH  26  27
DOCKED: ATOM     27  C37 UNL     1      12.818   3.652   2.713 +0.00 -0.00    -0.045 A  
DOCKED: ATOM     28  C38 UNL     1      13.001   4.512   1.622 +0.00 +0.00    +0.004 A  
DOCKED: ATOM     29  C39 UNL     1      14.140   4.416   0.825 +0.00 +0.00    +0.000 A  
DOCKED: ATOM     30  C40 UNL     1      15.110   3.456   1.105 +0.00 +0.00    +0.000 A  
DOCKED: ATOM     31  C41 UNL     1      14.939   2.593   2.185 +0.00 +0.00    +0.000 A  
DOCKED: ATOM     32  C42 UNL     1      13.799   2.689   2.986 +0.00 +0.00    +0.004 A  
DOCKED: ENDBRANCH  26  27
DOCKED: ENDBRANCH  21  26
DOCKED: ENDBRANCH  19  21
DOCKED: ENDBRANCH  16  17
DOCKED: BRANCH  16  33
DOCKED: ATOM     33  C31 UNL     1       8.011   6.994   2.072 +0.00 +0.00    +0.043 C  
DOCKED: BRANCH  33  34
DOCKED: ATOM     34  C32 UNL     1       8.152   6.872   0.557 +0.00 +0.00    +0.123 C  
DOCKED: BRANCH  34  35
DOCKED: ATOM     35  C33 UNL     1       9.114   5.791   0.161 +0.00 +0.00    +0.305 C  
DOCKED: ATOM     36  O10 UNL     1      10.299   5.751   0.448 +0.00 -0.00    -0.251 OA 
DOCKED: BRANCH  35  37
DOCKED: ATOM     37  O11 UNL     1       8.526   4.795  -0.525 +0.00 -0.00    -0.481 OA 
DOCKED: ATOM     38  H55 UNL     1       8.937   3.980  -0.167 +0.00 +0.00    +0.295 HD 
DOCKED: ENDBRANCH  35  37
DOCKED: ENDBRANCH  34  35
DOCKED: ENDBRANCH  33  34
DOCKED: ENDBRANCH  16  33
DOCKED: ENDBRANCH  14  16
DOCKED: ENDBRANCH  10  12
DOCKED: ENDBRANCH   8  10
DOCKED: ENDBRANCH   5   6
DOCKED: BRANCH   5  39
DOCKED: ATOM     39  C44 UNL     1       5.992   0.428   2.618 +0.00 +0.00    +0.072 C  
DOCKED: ATOM     40  C45 UNL     1       6.977   1.256   3.465 +0.00 +0.00    +0.042 C  
DOCKED: ATOM     41  C46 UNL     1       6.043  -1.008   3.154 +0.00 +0.00    +0.042 C  
DOCKED: BRANCH  39  42
DOCKED: ATOM     42  O15 UNL     1       4.686   0.937   2.926 +0.00 -0.00    -0.388 OA 
DOCKED: ATOM     43  H72 UNL     1       4.803   1.513   3.713 +0.00 +0.00    +0.210 HD 
DOCKED: ENDBRANCH  39  42
DOCKED: ENDBRANCH   5  39
DOCKED: ENDBRANCH   4   5
DOCKED: ENDBRANCH   1   4
DOCKED: BRANCH   1  44
DOCKED: ATOM     44  C15 UNL     1       9.116  -1.937   1.407 +0.00 +0.00    +0.102 C  
DOCKED: BRANCH  44  47
DOCKED: ATOM     45  C14 UNL     1      11.535  -1.882   0.724 +0.00 +0.00    +0.234 C  
DOCKED: ATOM     46  O6  UNL     1      11.809  -1.036   1.577 +0.00 -0.00    -0.274 OA 
DOCKED: ATOM     47  N5  UNL     1      10.314  -2.518   0.743 +0.00 -0.00    -0.308 N  
DOCKED: ATOM     48  H24 UNL     1      10.100  -3.019  -0.123 +0.00 +0.00    +0.149 HD 
DOCKED: BRANCH  45  49
DOCKED: ATOM     49  C11 UNL     1      12.523  -2.263  -0.412 +0.00 +0.00    +0.168 C  
DOCKED: BRANCH  49  52
DOCKED: ATOM     50  C10 UNL     1      11.026  -1.824  -2.345 +0.00 +0.00    +0.234 C  
DOCKED: ATOM     51  O4  UNL     1      10.365  -2.837  -2.093 +0.00 -0.00    -0.274 OA 
DOCKED: ATOM     52  N3  UNL     1      12.148  -1.491  -1.611 +0.00 -0.00    -0.302 N  
DOCKED: ATOM     53  H18 UNL     1      12.372  -0.508  -1.577 +0.00 +0.00    +0.150 HD 
DOCKED: BRANCH  50  54
DOCKED: ATOM     54  C4  UNL     1      10.692  -0.883  -3.548 +0.00 +0.00    +0.161 C  
DOCKED: BRANCH  54  55
DOCKED: ATOM     55  N1  UNL     1      10.508   0.453  -2.976 +0.00 -0.00    -0.302 N  
DOCKED: ATOM     56  C5  UNL     1       9.962   1.487  -3.714 +0.00 +0.00    +0.230 C  
DOCKED: ATOM     57  O1  UNL     1       9.880   1.471  -4.938 +0.00 -0.00    -0.274 OA 
DOCKED: ATOM     58  H9  UNL     1      10.339   0.494  -1.979 +0.00 +0.00    +0.150 HD 
DOCKED: BRANCH  56  59
DOCKED: ATOM     59  C6  UNL     1       9.493   2.683  -2.855 +0.00 +0.00    +0.138 C  
DOCKED: BRANCH  59  60
DOCKED: ATOM     60  N2  UNL     1       9.098   2.196  -1.518 +0.00 -0.00    -0.320 NA 
DOCKED: ATOM     61  H11 UNL     1       9.123   2.949  -0.828 +0.00 +0.00    +0.119 HD 
DOCKED: ATOM     62  H12 UNL     1       9.740   1.457  -1.228 +0.00 +0.00    +0.119 HD 
DOCKED: ENDBRANCH  59  60
DOCKED: BRANCH  59  63
DOCKED: ATOM     63  C7  UNL     1      10.604   3.742  -2.793 +0.00 +0.00    +0.039 C  
DOCKED: BRANCH  63  64
DOCKED: ATOM     64  C8  UNL     1      11.461   3.676  -1.526 +0.00 +0.00    +0.122 C  
DOCKED: BRANCH  64  65
DOCKED: ATOM     65  C9  UNL     1      12.303   2.427  -1.471 +0.00 +0.00    +0.305 C  
DOCKED: ATOM     66  O2  UNL     1      13.436   2.279  -1.902 +0.00 -0.00    -0.251 OA 
DOCKED: BRANCH  65  67
DOCKED: ATOM     67  O3  UNL     1      11.667   1.416  -0.847 +0.00 -0.00    -0.481 OA 
DOCKED: ATOM     68  H17 UNL     1      10.949   1.850  -0.343 +0.00 +0.00    +0.295 HD 
DOCKED: ENDBRANCH  65  67
DOCKED: ENDBRANCH  64  65
DOCKED: ENDBRANCH  63  64
DOCKED: ENDBRANCH  59  63
DOCKED: ENDBRANCH  56  59
DOCKED: ENDBRANCH  54  55
DOCKED: BRANCH  54  70
DOCKED: ATOM     69  C1  UNL     1      12.032  -2.122  -5.358 +0.00 +0.00    +0.009 C  
DOCKED: ATOM     70  C2  UNL     1      11.703  -0.770  -4.714 +0.00 +0.00    +0.012 C  
DOCKED: ATOM     71  C3  UNL     1      12.979  -0.002  -4.370 +0.00 +0.00    +0.009 C  
DOCKED: ENDBRANCH  54  70
DOCKED: ENDBRANCH  50  54
DOCKED: ENDBRANCH  49  52
DOCKED: BRANCH  49  72
DOCKED: ATOM     72  C12 UNL     1      13.981  -1.954  -0.065 +0.00 +0.00    +0.127 C  
DOCKED: BRANCH  72  73
DOCKED: ATOM     73  C13 UNL     1      14.339  -0.523  -0.388 +0.00 +0.00    +0.213 C  
DOCKED: ATOM     74  N4  UNL     1      13.569   0.417   0.228 +0.00 -0.00    -0.329 N  
DOCKED: ATOM     75  O5  UNL     1      15.295  -0.205  -1.085 +0.00 -0.00    -0.276 OA 
DOCKED: ATOM     76  H22 UNL     1      13.750   1.389   0.006 +0.00 +0.00    +0.145 HD 
DOCKED: ATOM     77  H23 UNL     1      12.694   0.201   0.688 +0.00 +0.00    +0.145 HD 
DOCKED: ENDBRANCH  72  73
DOCKED: ENDBRANCH  49  72
DOCKED: ENDBRANCH  45  49
DOCKED: ENDBRANCH  44  47
DOCKED: BRANCH  44  78
DOCKED: ATOM     78  C16 UNL     1       9.316  -2.120   2.941 +0.00 +0.00    +0.028 C  
DOCKED: BRANCH  78  79
DOCKED: ATOM     79  C17 UNL     1       9.642  -0.857   3.763 +0.00 -0.00    -0.009 C  
DOCKED: ATOM     80  C18 UNL     1       8.732  -0.780   5.015 +0.00 +0.00    +0.003 C  
DOCKED: ATOM     81  C19 UNL     1       9.273   0.132   6.122 +0.00 +0.00    +0.000 C  
DOCKED: ATOM     82  C20 UNL     1      10.242   1.177   5.589 +0.00 +0.00    +0.000 C  
DOCKED: ATOM     83  C21 UNL     1      11.440   0.532   4.891 +0.00 +0.00    +0.000 C  
DOCKED: ATOM     84  C22 UNL     1      11.107  -0.805   4.221 +0.00 +0.00    +0.003 C  
DOCKED: ENDBRANCH  78  79
DOCKED: ENDBRANCH  44  78
DOCKED: ENDBRANCH   1  44
DOCKED: TORSDOF 36
DOCKED: TER
DOCKED: ENDMDL
________________________________________________________________________________


    FINAL DOCKED STATE:
    ________________________


Run:   14 / 20
Time taken for this run:   7.574s

DOCKED: MODEL        14
DOCKED: USER    Run = 14
DOCKED: USER
DOCKED: USER    Estimated Free Energy of Binding    = +10.74 kcal/mol  [=(1)+(2)+(3)-(4)]
DOCKED: USER
DOCKED: USER    (1) Final Intermolecular Energy     =  +0.00 kcal/mol
DOCKED: USER        vdW + Hbond + desolv Energy     =  +0.00 kcal/mol
DOCKED: USER        Electrostatic Energy            =  +0.00 kcal/mol
DOCKED: USER        Moving Ligand-Fixed Receptor    =  +0.00 kcal/mol
DOCKED: USER        Moving Ligand-Moving Receptor   =  +0.00 kcal/mol
DOCKED: USER    (2) Final Total Internal Energy     = -34.28 kcal/mol
DOCKED: USER    (3) Torsional Free Energy           = +10.74 kcal/mol
DOCKED: USER    (4) Unbound System's Energy         = -34.28 kcal/mol
DOCKED: USER
DOCKED: USER
DOCKED: REMARK  Name = ligands/ligand_16.pdb
DOCKED: REMARK  41 active torsions:
DOCKED: REMARK  status: ('A' for Active; 'I' for Inactive)
DOCKED: REMARK    1  A    between atoms: C1_1  and  C2_2
DOCKED: REMARK    2  A    between atoms: C2_2  and  C3_3
DOCKED: REMARK    3  A    between atoms: C2_2  and  C4_4
DOCKED: REMARK    4  A    between atoms: C4_4  and  N1_5
DOCKED: REMARK    5  A    between atoms: C4_4  and  C10_15
DOCKED: REMARK    6  A    between atoms: C5_6  and  C6_8
DOCKED: REMARK    7  A    between atoms: C6_8  and  N2_9
DOCKED: REMARK    8  A    between atoms: C6_8  and  C7_10
DOCKED: REMARK    9  A    between atoms: C7_10  and  C8_11
DOCKED: REMARK   10  A    between atoms: C8_11  and  C9_12
DOCKED: REMARK   11  A    between atoms: C9_12  and  O3_14
DOCKED: REMARK   12  A    between atoms: N3_17  and  C11_18
DOCKED: REMARK   13  A    between atoms: C11_18  and  C12_19
DOCKED: REMARK   14  A    between atoms: C11_18  and  C14_23
DOCKED: REMARK   15  A    between atoms: C12_19  and  C13_20
DOCKED: REMARK   16  A    between atoms: N5_25  and  C15_26
DOCKED: REMARK   17  A    between atoms: C15_26  and  C16_27
DOCKED: REMARK   18  A    between atoms: C15_26  and  C23_34
DOCKED: REMARK   19  A    between atoms: C16_27  and  C17_28
DOCKED: REMARK   20  A    between atoms: C23_34  and  O7_35
DOCKED: REMARK   21  A    between atoms: C23_34  and  C24_36
DOCKED: REMARK   22  A    between atoms: C24_36  and  C25_37
DOCKED: REMARK   23  A    between atoms: C25_37  and  C26_38
DOCKED: REMARK   24  A    between atoms: C25_37  and  C44_66
DOCKED: REMARK   25  A    between atoms: N6_40  and  C27_41
DOCKED: REMARK   26  A    between atoms: C27_41  and  C28_42
DOCKED: REMARK   27  A    between atoms: C27_41  and  C29_43
DOCKED: REMARK   28  A    between atoms: N7_45  and  C30_46
DOCKED: REMARK   29  A    between atoms: C30_46  and  C31_47
DOCKED: REMARK   30  A    between atoms: C30_46  and  C34_52
DOCKED: REMARK   31  A    between atoms: C31_47  and  C32_48
DOCKED: REMARK   32  A    between atoms: C32_48  and  C33_49
DOCKED: REMARK   33  A    between atoms: C33_49  and  O11_51
DOCKED: REMARK   34  A    between atoms: N8_54  and  C35_55
DOCKED: REMARK   35  A    between atoms: C35_55  and  C36_56
DOCKED: REMARK   36  A    between atoms: C35_55  and  C43_63
DOCKED: REMARK   37  A    between atoms: C36_56  and  C37_57
DOCKED: REMARK   38  A    between atoms: C43_63  and  O14_65
DOCKED: REMARK   39  A    between atoms: C44_66  and  C45_67
DOCKED: REMARK   40  A    between atoms: C44_66  and  C46_68
DOCKED: REMARK   41  A    between atoms: C44_66  and  O15_69
DOCKED: REMARK                            x       y       z     vdW  Elec       q    Type
DOCKED: REMARK                         _______ _______ _______ _____ _____    ______ ____
DOCKED: USER                              x       y       z     vdW  Elec       q    Type
DOCKED: USER                           _______ _______ _______ _____ _____    ______ ____
DOCKED: ROOT
DOCKED: ATOM      1  C23 UNL     1      16.961  -4.431  -1.694 +0.00 +0.00    +0.135 C  
DOCKED: ENDROOT
DOCKED: BRANCH   1   2
DOCKED: ATOM      2  O7  UNL     1      16.524  -3.087  -1.505 +0.00 -0.00    -0.390 OA 
DOCKED: ATOM      3  H40 UNL     1      15.558  -3.093  -1.605 +0.00 +0.00    +0.210 HD 
DOCKED: ENDBRANCH   1   2
DOCKED: BRANCH   1   4
DOCKED: ATOM      4  C24 UNL     1      16.928  -5.137  -0.323 +0.00 +0.00    +0.048 C  
DOCKED: BRANCH   4   5
DOCKED: ATOM      5  C25 UNL     1      15.682  -5.121   0.609 +0.00 +0.00    +0.108 C  
DOCKED: BRANCH   5   6
DOCKED: ATOM      6  C26 UNL     1      14.617  -6.151   0.214 +0.00 +0.00    +0.220 C  
DOCKED: ATOM      7  O8  UNL     1      14.692  -7.307   0.625 +0.00 -0.00    -0.275 OA 
DOCKED: ATOM      8  N6  UNL     1      13.608  -5.714  -0.600 +0.00 -0.00    -0.304 N  
DOCKED: ATOM      9  H44 UNL     1      13.690  -4.784  -1.010 +0.00 +0.00    +0.149 HD 
DOCKED: BRANCH   8  10
DOCKED: ATOM     10  C27 UNL     1      12.567  -6.554  -1.195 +0.00 +0.00    +0.156 C  
DOCKED: ATOM     11  C28 UNL     1      13.004  -7.424  -2.366 +0.00 +0.00    +0.038 C  
DOCKED: BRANCH  10  12
DOCKED: ATOM     12  C29 UNL     1      11.307  -5.737  -1.567 +0.00 +0.00    +0.234 C  
DOCKED: ATOM     13  O9  UNL     1      10.316  -6.216  -2.116 +0.00 -0.00    -0.274 OA 
DOCKED: ATOM     14  N7  UNL     1      11.368  -4.399  -1.214 +0.00 -0.00    -0.302 N  
DOCKED: ATOM     15  H49 UNL     1      12.295  -3.980  -1.136 +0.00 +0.00    +0.150 HD 
DOCKED: BRANCH  14  16
DOCKED: ATOM     16  C30 UNL     1      10.273  -3.492  -1.565 +0.00 +0.00    +0.159 C  
DOCKED: BRANCH  16  17
DOCKED: ATOM     17  C34 UNL     1      10.234  -2.394  -0.485 +0.00 +0.00    +0.234 C  
DOCKED: ATOM     18  O12 UNL     1       9.192  -1.991   0.027 +0.00 -0.00    -0.274 OA 
DOCKED: ATOM     19  N8  UNL     1      11.460  -1.847  -0.194 +0.00 -0.00    -0.301 N  
DOCKED: ATOM     20  H56 UNL     1      12.302  -2.257  -0.597 +0.00 +0.00    +0.150 HD 
DOCKED: BRANCH  19  21
DOCKED: ATOM     21  C35 UNL     1      11.655  -0.954   0.951 +0.00 +0.00    +0.186 C  
DOCKED: BRANCH  21  22
DOCKED: ATOM     22  C43 UNL     1      13.151  -0.849   1.237 +0.00 +0.00    +0.326 C  
DOCKED: ATOM     23  O13 UNL     1      13.671  -0.799   2.344 +0.00 -0.00    -0.249 OA 
DOCKED: BRANCH  22  24
DOCKED: ATOM     24  O14 UNL     1      13.911  -0.765   0.126 +0.00 -0.00    -0.479 OA 
DOCKED: ATOM     25  H65 UNL     1      13.586  -1.507  -0.428 +0.00 +0.00    +0.295 HD 
DOCKED: ENDBRANCH  22  24
DOCKED: ENDBRANCH  21  22
DOCKED: BRANCH  21  26
DOCKED: ATOM     26  C36 UNL     1      10.995   0.422   0.776 +0.00 +0.00    +0.069 C  
DOCKED: BRANCH  26  27
DOCKED: ATOM     27  C37 UNL     1      11.259   1.094  -0.553 +0.00 -0.00    -0.045 A  
DOCKED: ATOM     28  C38 UNL     1      12.347   1.964  -0.706 +0.00 +0.00    +0.004 A  
DOCKED: ATOM     29  C39 UNL     1      12.598   2.580  -1.931 +0.00 +0.00    +0.000 A  
DOCKED: ATOM     30  C40 UNL     1      11.763   2.338  -3.018 +0.00 +0.00    +0.000 A  
DOCKED: ATOM     31  C41 UNL     1      10.676   1.477  -2.880 +0.00 +0.00    +0.000 A  
DOCKED: ATOM     32  C42 UNL     1      10.424   0.858  -1.654 +0.00 +0.00    +0.004 A  
DOCKED: ENDBRANCH  26  27
DOCKED: ENDBRANCH  21  26
DOCKED: ENDBRANCH  19  21
DOCKED: ENDBRANCH  16  17
DOCKED: BRANCH  16  33
DOCKED: ATOM     33  C31 UNL     1      10.489  -2.919  -2.977 +0.00 +0.00    +0.043 C  
DOCKED: BRANCH  33  34
DOCKED: ATOM     34  C32 UNL     1      11.930  -3.027  -3.469 +0.00 +0.00    +0.123 C  
DOCKED: BRANCH  34  35
DOCKED: ATOM     35  C33 UNL     1      12.877  -2.212  -2.638 +0.00 +0.00    +0.305 C  
DOCKED: ATOM     36  O10 UNL     1      12.744  -1.033  -2.355 +0.00 -0.00    -0.251 OA 
DOCKED: BRANCH  35  37
DOCKED: ATOM     37  O11 UNL     1      13.907  -2.934  -2.163 +0.00 -0.00    -0.481 OA 
DOCKED: ATOM     38  H55 UNL     1      14.421  -2.296  -1.625 +0.00 +0.00    +0.295 HD 
DOCKED: ENDBRANCH  35  37
DOCKED: ENDBRANCH  34  35
DOCKED: ENDBRANCH  33  34
DOCKED: ENDBRANCH  16  33
DOCKED: ENDBRANCH  14  16
DOCKED: ENDBRANCH  10  12
DOCKED: ENDBRANCH   8  10
DOCKED: ENDBRANCH   5   6
DOCKED: BRANCH   5  39
DOCKED: ATOM     39  C44 UNL     1      15.159  -3.757   1.169 +0.00 +0.00    +0.072 C  
DOCKED: ATOM     40  C45 UNL     1      16.346  -2.802   1.395 +0.00 +0.00    +0.042 C  
DOCKED: ATOM     41  C46 UNL     1      14.361  -3.793   2.477 +0.00 +0.00    +0.042 C  
DOCKED: BRANCH  39  42
DOCKED: ATOM     42  O15 UNL     1      14.322  -3.117   0.193 +0.00 -0.00    -0.388 OA 
DOCKED: ATOM     43  H72 UNL     1      14.895  -2.461  -0.260 +0.00 +0.00    +0.210 HD 
DOCKED: ENDBRANCH  39  42
DOCKED: ENDBRANCH   5  39
DOCKED: ENDBRANCH   4   5
DOCKED: ENDBRANCH   1   4
DOCKED: BRANCH   1  44
DOCKED: ATOM     44  C15 UNL     1      16.243  -5.203  -2.856 +0.00 +0.00    +0.102 C  
DOCKED: BRANCH  44  47
DOCKED: ATOM     45  C14 UNL     1      14.532  -4.885  -4.670 +0.00 +0.00    +0.234 C  
DOCKED: ATOM     46  O6  UNL     1      14.192  -6.068  -4.626 +0.00 -0.00    -0.274 OA 
DOCKED: ATOM     47  N5  UNL     1      15.348  -4.360  -3.694 +0.00 -0.00    -0.308 N  
DOCKED: ATOM     48  H24 UNL     1      15.753  -3.453  -3.942 +0.00 +0.00    +0.149 HD 
DOCKED: BRANCH  45  49
DOCKED: ATOM     49  C11 UNL     1      14.085  -3.936  -5.816 +0.00 +0.00    +0.168 C  
DOCKED: BRANCH  49  52
DOCKED: ATOM     50  C10 UNL     1      13.412  -1.546  -5.869 +0.00 +0.00    +0.234 C  
DOCKED: ATOM     51  O4  UNL     1      12.703  -1.743  -6.862 +0.00 -0.00    -0.274 OA 
DOCKED: ATOM     52  N3  UNL     1      14.182  -2.553  -5.318 +0.00 -0.00    -0.302 N  
DOCKED: ATOM     53  H18 UNL     1      14.378  -2.463  -4.333 +0.00 +0.00    +0.150 HD 
DOCKED: BRANCH  50  54
DOCKED: ATOM     54  C4  UNL     1      13.548  -0.138  -5.202 +0.00 +0.00    +0.161 C  
DOCKED: BRANCH  54  55
DOCKED: ATOM     55  N1  UNL     1      14.537  -0.292  -4.133 +0.00 -0.00    -0.302 N  
DOCKED: ATOM     56  C5  UNL     1      15.030   0.800  -3.442 +0.00 +0.00    +0.230 C  
DOCKED: ATOM     57  O1  UNL     1      14.932   1.954  -3.846 +0.00 -0.00    -0.274 OA 
DOCKED: ATOM     58  H9  UNL     1      14.501  -1.157  -3.610 +0.00 +0.00    +0.150 HD 
DOCKED: BRANCH  56  59
DOCKED: ATOM     59  C6  UNL     1      15.746   0.428  -2.124 +0.00 +0.00    +0.138 C  
DOCKED: BRANCH  59  60
DOCKED: ATOM     60  N2  UNL     1      15.372  -0.947  -1.738 +0.00 -0.00    -0.320 NA 
DOCKED: ATOM     61  H11 UNL     1      15.450  -1.588  -2.528 +0.00 +0.00    +0.119 HD 
DOCKED: ATOM     62  H12 UNL     1      14.407  -0.949  -1.402 +0.00 +0.00    +0.119 HD 
DOCKED: ENDBRANCH  59  60
DOCKED: BRANCH  59  63
DOCKED: ATOM     63  C7  UNL     1      17.263   0.601  -2.294 +0.00 +0.00    +0.039 C  
DOCKED: BRANCH  63  64
DOCKED: ATOM     64  C8  UNL     1      18.006  -0.694  -2.632 +0.00 +0.00    +0.122 C  
DOCKED: BRANCH  64  65
DOCKED: ATOM     65  C9  UNL     1      17.568  -1.276  -3.951 +0.00 +0.00    +0.305 C  
DOCKED: ATOM     66  O2  UNL     1      18.132  -1.169  -5.030 +0.00 -0.00    -0.251 OA 
DOCKED: BRANCH  65  67
DOCKED: ATOM     67  O3  UNL     1      16.431  -1.990  -3.837 +0.00 -0.00    -0.481 OA 
DOCKED: ATOM     68  H17 UNL     1      16.469  -2.372  -2.937 +0.00 +0.00    +0.295 HD 
DOCKED: ENDBRANCH  65  67
DOCKED: ENDBRANCH  64  65
DOCKED: ENDBRANCH  63  64
DOCKED: ENDBRANCH  59  63
DOCKED: ENDBRANCH  56  59
DOCKED: ENDBRANCH  54  55
DOCKED: BRANCH  54  70
DOCKED: ATOM     69  C1  UNL     1      12.817   1.649  -6.900 +0.00 +0.00    +0.009 C  
DOCKED: ATOM     70  C2  UNL     1      13.972   1.066  -6.078 +0.00 +0.00    +0.012 C  
DOCKED: ATOM     71  C3  UNL     1      15.194   0.806  -6.959 +0.00 +0.00    +0.009 C  
DOCKED: ENDBRANCH  54  70
DOCKED: ENDBRANCH  50  54
DOCKED: ENDBRANCH  49  52
DOCKED: BRANCH  49  72
DOCKED: ATOM     72  C12 UNL     1      14.948  -4.069  -7.072 +0.00 +0.00    +0.127 C  
DOCKED: BRANCH  72  73
DOCKED: ATOM     73  C13 UNL     1      16.413  -4.205  -6.729 +0.00 +0.00    +0.213 C  
DOCKED: ATOM     74  N4  UNL     1      16.950  -3.145  -6.063 +0.00 -0.00    -0.329 N  
DOCKED: ATOM     75  O5  UNL     1      17.069  -5.215  -6.951 +0.00 -0.00    -0.276 OA 
DOCKED: ATOM     76  H22 UNL     1      17.940  -3.179  -5.851 +0.00 +0.00    +0.145 HD 
DOCKED: ATOM     77  H23 UNL     1      16.490  -2.246  -5.990 +0.00 +0.00    +0.145 HD 
DOCKED: ENDBRANCH  72  73
DOCKED: ENDBRANCH  49  72
DOCKED: ENDBRANCH  45  49
DOCKED: ENDBRANCH  44  47
DOCKED: BRANCH  44  78
DOCKED: ATOM     78  C16 UNL     1      17.220  -5.931  -3.826 +0.00 +0.00    +0.028 C  
DOCKED: BRANCH  78  79
DOCKED: ATOM     79  C17 UNL     1      17.152  -7.470  -3.868 +0.00 -0.00    -0.009 C  
DOCKED: ATOM     80  C18 UNL     1      16.414  -8.011  -2.618 +0.00 +0.00    +0.003 C  
DOCKED: ATOM     81  C19 UNL     1      15.876  -9.437  -2.783 +0.00 +0.00    +0.000 C  
DOCKED: ATOM     82  C20 UNL     1      16.622 -10.218  -3.854 +0.00 +0.00    +0.000 C  
DOCKED: ATOM     83  C21 UNL     1      16.538  -9.528  -5.217 +0.00 +0.00    +0.000 C  
DOCKED: ATOM     84  C22 UNL     1      16.444  -8.002  -5.122 +0.00 +0.00    +0.003 C  
DOCKED: ENDBRANCH  78  79
DOCKED: ENDBRANCH  44  78
DOCKED: ENDBRANCH   1  44
DOCKED: TORSDOF 36
DOCKED: TER
DOCKED: ENDMDL
________________________________________________________________________________


    FINAL DOCKED STATE:
    ________________________


Run:   15 / 20
Time taken for this run:   7.574s

DOCKED: MODEL        15
DOCKED: USER    Run = 15
DOCKED: USER
DOCKED: USER    Estimated Free Energy of Binding    = +10.74 kcal/mol  [=(1)+(2)+(3)-(4)]
DOCKED: USER
DOCKED: USER    (1) Final Intermolecular Energy     =  +0.00 kcal/mol
DOCKED: USER        vdW + Hbond + desolv Energy     =  +0.00 kcal/mol
DOCKED: USER        Electrostatic Energy            =  +0.00 kcal/mol
DOCKED: USER        Moving Ligand-Fixed Receptor    =  +0.00 kcal/mol
DOCKED: USER        Moving Ligand-Moving Receptor   =  +0.00 kcal/mol
DOCKED: USER    (2) Final Total Internal Energy     = -31.72 kcal/mol
DOCKED: USER    (3) Torsional Free Energy           = +10.74 kcal/mol
DOCKED: USER    (4) Unbound System's Energy         = -31.72 kcal/mol
DOCKED: USER
DOCKED: USER
DOCKED: REMARK  Name = ligands/ligand_16.pdb
DOCKED: REMARK  41 active torsions:
DOCKED: REMARK  status: ('A' for Active; 'I' for Inactive)
DOCKED: REMARK    1  A    between atoms: C1_1  and  C2_2
DOCKED: REMARK    2  A    between atoms: C2_2  and  C3_3
DOCKED: REMARK    3  A    between atoms: C2_2  and  C4_4
DOCKED: REMARK    4  A    between atoms: C4_4  and  N1_5
DOCKED: REMARK    5  A    between atoms: C4_4  and  C10_15
DOCKED: REMARK    6  A    between atoms: C5_6  and  C6_8
DOCKED: REMARK    7  A    between atoms: C6_8  and  N2_9
DOCKED: REMARK    8  A    between atoms: C6_8  and  C7_10
DOCKED: REMARK    9  A    between atoms: C7_10  and  C8_11
DOCKED: REMARK   10  A    between atoms: C8_11  and  C9_12
DOCKED: REMARK   11  A    between atoms: C9_12  and  O3_14
DOCKED: REMARK   12  A    between atoms: N3_17  and  C11_18
DOCKED: REMARK   13  A    between atoms: C11_18  and  C12_19
DOCKED: REMARK   14  A    between atoms: C11_18  and  C14_23
DOCKED: REMARK   15  A    between atoms: C12_19  and  C13_20
DOCKED: REMARK   16  A    between atoms: N5_25  and  C15_26
DOCKED: REMARK   17  A    between atoms: C15_26  and  C16_27
DOCKED: REMARK   18  A    between atoms: C15_26  and  C23_34
DOCKED: REMARK   19  A    between atoms: C16_27  and  C17_28
DOCKED: REMARK   20  A    between atoms: C23_34  and  O7_35
DOCKED: REMARK   21  A    between atoms: C23_34  and  C24_36
DOCKED: REMARK   22  A    between atoms: C24_36  and  C25_37
DOCKED: REMARK   23  A    between atoms: C25_37  and  C26_38
DOCKED: REMARK   24  A    between atoms: C25_37  and  C44_66
DOCKED: REMARK   25  A    between atoms: N6_40  and  C27_41
DOCKED: REMARK   26  A    between atoms: C27_41  and  C28_42
DOCKED: REMARK   27  A    between atoms: C27_41  and  C29_43
DOCKED: REMARK   28  A    between atoms: N7_45  and  C30_46
DOCKED: REMARK   29  A    between atoms: C30_46  and  C31_47
DOCKED: REMARK   30  A    between atoms: C30_46  and  C34_52
DOCKED: REMARK   31  A    between atoms: C31_47  and  C32_48
DOCKED: REMARK   32  A    between atoms: C32_48  and  C33_49
DOCKED: REMARK   33  A    between atoms: C33_49  and  O11_51
DOCKED: REMARK   34  A    between atoms: N8_54  and  C35_55
DOCKED: REMARK   35  A    between atoms: C35_55  and  C36_56
DOCKED: REMARK   36  A    between atoms: C35_55  and  C43_63
DOCKED: REMARK   37  A    between atoms: C36_56  and  C37_57
DOCKED: REMARK   38  A    between atoms: C43_63  and  O14_65
DOCKED: REMARK   39  A    between atoms: C44_66  and  C45_67
DOCKED: REMARK   40  A    between atoms: C44_66  and  C46_68
DOCKED: REMARK   41  A    between atoms: C44_66  and  O15_69
DOCKED: REMARK                            x       y       z     vdW  Elec       q    Type
DOCKED: REMARK                         _______ _______ _______ _____ _____    ______ ____
DOCKED: USER                              x       y       z     vdW  Elec       q    Type
DOCKED: USER                           _______ _______ _______ _____ _____    ______ ____
DOCKED: ROOT
DOCKED: ATOM      1  C23 UNL     1      10.467  -4.120   5.257 +0.00 +0.00    +0.135 C  
DOCKED: ENDROOT
DOCKED: BRANCH   1   2
DOCKED: ATOM      2  O7  UNL     1      10.107  -5.498   5.317 +0.00 -0.00    -0.390 OA 
DOCKED: ATOM      3  H40 UNL     1       9.150  -5.528   5.485 +0.00 +0.00    +0.210 HD 
DOCKED: ENDBRANCH   1   2
DOCKED: BRANCH   1   4
DOCKED: ATOM      4  C24 UNL     1      11.931  -3.992   5.727 +0.00 +0.00    +0.048 C  
DOCKED: BRANCH   4   5
DOCKED: ATOM      5  C25 UNL     1      12.974  -5.136   5.570 +0.00 +0.00    +0.108 C  
DOCKED: BRANCH   5   6
DOCKED: ATOM      6  C26 UNL     1      13.312  -5.452   4.107 +0.00 +0.00    +0.220 C  
DOCKED: ATOM      7  O8  UNL     1      13.594  -6.601   3.772 +0.00 -0.00    -0.275 OA 
DOCKED: ATOM      8  N6  UNL     1      13.281  -4.404   3.228 +0.00 -0.00    -0.304 N  
DOCKED: ATOM      9  H44 UNL     1      13.176  -3.463   3.604 +0.00 +0.00    +0.149 HD 
DOCKED: BRANCH   8  10
DOCKED: ATOM     10  C27 UNL     1      13.691  -4.458   1.823 +0.00 +0.00    +0.156 C  
DOCKED: ATOM     11  C28 UNL     1      14.340  -3.196   1.272 +0.00 +0.00    +0.038 C  
DOCKED: BRANCH  10  12
DOCKED: ATOM     12  C29 UNL     1      12.538  -4.923   0.902 +0.00 +0.00    +0.234 C  
DOCKED: ATOM     13  O9  UNL     1      12.057  -4.233   0.004 +0.00 -0.00    -0.274 OA 
DOCKED: ATOM     14  N7  UNL     1      12.084  -6.206   1.157 +0.00 -0.00    -0.302 N  
DOCKED: ATOM     15  H49 UNL     1      12.217  -6.568   2.102 +0.00 +0.00    +0.150 HD 
DOCKED: BRANCH  14  16
DOCKED: ATOM     16  C30 UNL     1      10.951  -6.751   0.406 +0.00 +0.00    +0.159 C  
DOCKED: BRANCH  16  17
DOCKED: ATOM     17  C34 UNL     1      11.510  -7.287  -0.926 +0.00 +0.00    +0.234 C  
DOCKED: ATOM     18  O12 UNL     1      11.805  -8.466  -1.107 +0.00 -0.00    -0.274 OA 
DOCKED: ATOM     19  N8  UNL     1      11.723  -6.318  -1.877 +0.00 -0.00    -0.301 N  
DOCKED: ATOM     20  H56 UNL     1      11.405  -5.365  -1.704 +0.00 +0.00    +0.150 HD 
DOCKED: BRANCH  19  21
DOCKED: ATOM     21  C35 UNL     1      12.039  -6.656  -3.266 +0.00 +0.00    +0.186 C  
DOCKED: BRANCH  21  22
DOCKED: ATOM     22  C43 UNL     1      11.492  -5.555  -4.172 +0.00 +0.00    +0.326 C  
DOCKED: ATOM     23  O13 UNL     1      11.319  -5.636  -5.380 +0.00 -0.00    -0.249 OA 
DOCKED: BRANCH  22  24
DOCKED: ATOM     24  O14 UNL     1      11.235  -4.399  -3.525 +0.00 -0.00    -0.479 OA 
DOCKED: ATOM     25  H65 UNL     1      10.271  -4.275  -3.658 +0.00 +0.00    +0.295 HD 
DOCKED: ENDBRANCH  22  24
DOCKED: ENDBRANCH  21  22
DOCKED: BRANCH  21  26
DOCKED: ATOM     26  C36 UNL     1      13.533  -6.924  -3.510 +0.00 +0.00    +0.069 C  
DOCKED: BRANCH  26  27
DOCKED: ATOM     27  C37 UNL     1      14.444  -6.558  -2.360 +0.00 -0.00    -0.045 A  
DOCKED: ATOM     28  C38 UNL     1      14.788  -7.514  -1.395 +0.00 +0.00    +0.004 A  
DOCKED: ATOM     29  C39 UNL     1      15.635  -7.184  -0.337 +0.00 +0.00    +0.000 A  
DOCKED: ATOM     30  C40 UNL     1      16.144  -5.893  -0.227 +0.00 +0.00    +0.000 A  
DOCKED: ATOM     31  C41 UNL     1      15.807  -4.932  -1.178 +0.00 +0.00    +0.000 A  
DOCKED: ATOM     32  C42 UNL     1      14.962  -5.261  -2.240 +0.00 +0.00    +0.004 A  
DOCKED: ENDBRANCH  26  27
DOCKED: ENDBRANCH  21  26
DOCKED: ENDBRANCH  19  21
DOCKED: ENDBRANCH  16  17
DOCKED: BRANCH  16  33
DOCKED: ATOM     33  C31 UNL     1      10.245  -7.845   1.229 +0.00 +0.00    +0.043 C  
DOCKED: BRANCH  33  34
DOCKED: ATOM     34  C32 UNL     1      11.201  -8.717   2.037 +0.00 +0.00    +0.123 C  
DOCKED: BRANCH  34  35
DOCKED: ATOM     35  C33 UNL     1      11.305  -8.273   3.467 +0.00 +0.00    +0.305 C  
DOCKED: ATOM     36  O10 UNL     1      11.859  -8.885   4.365 +0.00 -0.00    -0.251 OA 
DOCKED: BRANCH  35  37
DOCKED: ATOM     37  O11 UNL     1      10.757  -7.063   3.678 +0.00 -0.00    -0.481 OA 
DOCKED: ATOM     38  H55 UNL     1      10.345  -7.136   4.564 +0.00 +0.00    +0.295 HD 
DOCKED: ENDBRANCH  35  37
DOCKED: ENDBRANCH  34  35
DOCKED: ENDBRANCH  33  34
DOCKED: ENDBRANCH  16  33
DOCKED: ENDBRANCH  14  16
DOCKED: ENDBRANCH  10  12
DOCKED: ENDBRANCH   8  10
DOCKED: ENDBRANCH   5   6
DOCKED: BRANCH   5  39
DOCKED: ATOM     39  C44 UNL     1      12.935  -6.352   6.555 +0.00 +0.00    +0.072 C  
DOCKED: ATOM     40  C45 UNL     1      12.878  -5.839   8.005 +0.00 +0.00    +0.042 C  
DOCKED: ATOM     41  C46 UNL     1      14.094  -7.353   6.481 +0.00 +0.00    +0.042 C  
DOCKED: BRANCH  39  42
DOCKED: ATOM     42  O15 UNL     1      11.728  -7.103   6.356 +0.00 -0.00    -0.388 OA 
DOCKED: ATOM     43  H72 UNL     1      11.560  -7.086   5.388 +0.00 +0.00    +0.210 HD 
DOCKED: ENDBRANCH  39  42
DOCKED: ENDBRANCH   5  39
DOCKED: ENDBRANCH   4   5
DOCKED: ENDBRANCH   1   4
DOCKED: BRANCH   1  44
DOCKED: ATOM     44  C15 UNL     1      10.142  -3.410   3.897 +0.00 +0.00    +0.102 C  
DOCKED: BRANCH  44  47
DOCKED: ATOM     45  C14 UNL     1       9.222  -3.937   1.617 +0.00 +0.00    +0.234 C  
DOCKED: ATOM     46  O6  UNL     1       9.227  -2.750   1.285 +0.00 -0.00    -0.274 OA 
DOCKED: ATOM     47  N5  UNL     1       9.858  -4.339   2.769 +0.00 -0.00    -0.308 N  
DOCKED: ATOM     48  H24 UNL     1       9.603  -5.283   3.071 +0.00 +0.00    +0.149 HD 
DOCKED: BRANCH  45  49
DOCKED: ATOM     49  C11 UNL     1       8.496  -5.028   0.782 +0.00 +0.00    +0.168 C  
DOCKED: BRANCH  49  52
DOCKED: ATOM     50  C10 UNL     1       7.059  -6.959   1.396 +0.00 +0.00    +0.234 C  
DOCKED: ATOM     51  O4  UNL     1       7.391  -7.562   0.369 +0.00 -0.00    -0.274 OA 
DOCKED: ATOM     52  N3  UNL     1       7.503  -5.676   1.657 +0.00 -0.00    -0.302 N  
DOCKED: ATOM     53  H18 UNL     1       7.558  -5.423   2.631 +0.00 +0.00    +0.150 HD 
DOCKED: BRANCH  50  54
DOCKED: ATOM     54  C4  UNL     1       6.065  -7.565   2.439 +0.00 +0.00    +0.161 C  
DOCKED: BRANCH  54  55
DOCKED: ATOM     55  N1  UNL     1       6.888  -8.313   3.393 +0.00 -0.00    -0.302 N  
DOCKED: ATOM     56  C5  UNL     1       7.819  -7.681   4.196 +0.00 +0.00    +0.230 C  
DOCKED: ATOM     57  O1  UNL     1       8.244  -6.552   3.975 +0.00 -0.00    -0.274 OA 
DOCKED: ATOM     58  H9  UNL     1       6.473  -9.149   3.784 +0.00 +0.00    +0.150 HD 
DOCKED: BRANCH  56  59
DOCKED: ATOM     59  C6  UNL     1       8.302  -8.544   5.383 +0.00 +0.00    +0.138 C  
DOCKED: BRANCH  59  60
DOCKED: ATOM     60  N2  UNL     1       9.590  -8.016   5.876 +0.00 -0.00    -0.320 NA 
DOCKED: ATOM     61  H11 UNL     1       9.655  -7.007   5.734 +0.00 +0.00    +0.119 HD 
DOCKED: ATOM     62  H12 UNL     1      10.353  -8.474   5.375 +0.00 +0.00    +0.119 HD 
DOCKED: ENDBRANCH  59  60
DOCKED: BRANCH  59  63
DOCKED: ATOM     63  C7  UNL     1       7.220  -8.576   6.474 +0.00 +0.00    +0.039 C  
DOCKED: BRANCH  63  64
DOCKED: ATOM     64  C8  UNL     1       7.483  -7.622   7.642 +0.00 +0.00    +0.122 C  
DOCKED: BRANCH  64  65
DOCKED: ATOM     65  C9  UNL     1       7.928  -6.259   7.178 +0.00 +0.00    +0.305 C  
DOCKED: ATOM     66  O2  UNL     1       7.287  -5.459   6.512 +0.00 -0.00    -0.251 OA 
DOCKED: BRANCH  65  67
DOCKED: ATOM     67  O3  UNL     1       9.172  -5.961   7.601 +0.00 -0.00    -0.481 OA 
DOCKED: ATOM     68  H17 UNL     1       9.755  -6.561   7.093 +0.00 +0.00    +0.295 HD 
DOCKED: ENDBRANCH  65  67
DOCKED: ENDBRANCH  64  65
DOCKED: ENDBRANCH  63  64
DOCKED: ENDBRANCH  59  63
DOCKED: ENDBRANCH  56  59
DOCKED: ENDBRANCH  54  55
DOCKED: BRANCH  54  70
DOCKED: ATOM     69  C1  UNL     1       4.593  -7.244   4.522 +0.00 +0.00    +0.009 C  
DOCKED: ATOM     70  C2  UNL     1       5.150  -6.609   3.242 +0.00 +0.00    +0.012 C  
DOCKED: ATOM     71  C3  UNL     1       4.034  -5.965   2.420 +0.00 +0.00    +0.009 C  
DOCKED: ENDBRANCH  54  70
DOCKED: ENDBRANCH  50  54
DOCKED: ENDBRANCH  49  52
DOCKED: BRANCH  49  72
DOCKED: ATOM     72  C12 UNL     1       7.777  -4.461  -0.444 +0.00 +0.00    +0.127 C  
DOCKED: BRANCH  72  73
DOCKED: ATOM     73  C13 UNL     1       8.723  -4.271  -1.606 +0.00 +0.00    +0.213 C  
DOCKED: ATOM     74  N4  UNL     1       9.943  -3.760  -1.279 +0.00 -0.00    -0.329 N  
DOCKED: ATOM     75  O5  UNL     1       8.465  -4.617  -2.753 +0.00 -0.00    -0.276 OA 
DOCKED: ATOM     76  H22 UNL     1      10.591  -3.578  -2.035 +0.00 +0.00    +0.145 HD 
DOCKED: ATOM     77  H23 UNL     1      10.141  -3.332  -0.383 +0.00 +0.00    +0.145 HD 
DOCKED: ENDBRANCH  72  73
DOCKED: ENDBRANCH  49  72
DOCKED: ENDBRANCH  45  49
DOCKED: ENDBRANCH  44  47
DOCKED: BRANCH  44  78
DOCKED: ATOM     78  C16 UNL     1       8.947  -2.415   3.975 +0.00 +0.00    +0.028 C  
DOCKED: BRANCH  78  79
DOCKED: ATOM     79  C17 UNL     1       7.577  -2.992   4.383 +0.00 -0.00    -0.009 C  
DOCKED: ATOM     80  C18 UNL     1       7.233  -2.585   5.838 +0.00 +0.00    +0.003 C  
DOCKED: ATOM     81  C19 UNL     1       5.741  -2.682   6.175 +0.00 +0.00    +0.000 C  
DOCKED: ATOM     82  C20 UNL     1       5.003  -3.651   5.263 +0.00 +0.00    +0.000 C  
DOCKED: ATOM     83  C21 UNL     1       5.123  -3.245   3.793 +0.00 +0.00    +0.000 C  
DOCKED: ATOM     84  C22 UNL     1       6.437  -2.528   3.465 +0.00 +0.00    +0.003 C  
DOCKED: ENDBRANCH  78  79
DOCKED: ENDBRANCH  44  78
DOCKED: ENDBRANCH   1  44
DOCKED: TORSDOF 36
DOCKED: TER
DOCKED: ENDMDL
________________________________________________________________________________


    FINAL DOCKED STATE:
    ________________________


Run:   16 / 20
Time taken for this run:   7.574s

DOCKED: MODEL        16
DOCKED: USER    Run = 16
DOCKED: USER
DOCKED: USER    Estimated Free Energy of Binding    = +10.74 kcal/mol  [=(1)+(2)+(3)-(4)]
DOCKED: USER
DOCKED: USER    (1) Final Intermolecular Energy     =  +0.00 kcal/mol
DOCKED: USER        vdW + Hbond + desolv Energy     =  +0.00 kcal/mol
DOCKED: USER        Electrostatic Energy            =  +0.00 kcal/mol
DOCKED: USER        Moving Ligand-Fixed Receptor    =  +0.00 kcal/mol
DOCKED: USER        Moving Ligand-Moving Receptor   =  +0.00 kcal/mol
DOCKED: USER    (2) Final Total Internal Energy     = -33.30 kcal/mol
DOCKED: USER    (3) Torsional Free Energy           = +10.74 kcal/mol
DOCKED: USER    (4) Unbound System's Energy         = -33.30 kcal/mol
DOCKED: USER
DOCKED: USER
DOCKED: REMARK  Name = ligands/ligand_16.pdb
DOCKED: REMARK  41 active torsions:
DOCKED: REMARK  status: ('A' for Active; 'I' for Inactive)
DOCKED: REMARK    1  A    between atoms: C1_1  and  C2_2
DOCKED: REMARK    2  A    between atoms: C2_2  and  C3_3
DOCKED: REMARK    3  A    between atoms: C2_2  and  C4_4
DOCKED: REMARK    4  A    between atoms: C4_4  and  N1_5
DOCKED: REMARK    5  A    between atoms: C4_4  and  C10_15
DOCKED: REMARK    6  A    between atoms: C5_6  and  C6_8
DOCKED: REMARK    7  A    between atoms: C6_8  and  N2_9
DOCKED: REMARK    8  A    between atoms: C6_8  and  C7_10
DOCKED: REMARK    9  A    between atoms: C7_10  and  C8_11
DOCKED: REMARK   10  A    between atoms: C8_11  and  C9_12
DOCKED: REMARK   11  A    between atoms: C9_12  and  O3_14
DOCKED: REMARK   12  A    between atoms: N3_17  and  C11_18
DOCKED: REMARK   13  A    between atoms: C11_18  and  C12_19
DOCKED: REMARK   14  A    between atoms: C11_18  and  C14_23
DOCKED: REMARK   15  A    between atoms: C12_19  and  C13_20
DOCKED: REMARK   16  A    between atoms: N5_25  and  C15_26
DOCKED: REMARK   17  A    between atoms: C15_26  and  C16_27
DOCKED: REMARK   18  A    between atoms: C15_26  and  C23_34
DOCKED: REMARK   19  A    between atoms: C16_27  and  C17_28
DOCKED: REMARK   20  A    between atoms: C23_34  and  O7_35
DOCKED: REMARK   21  A    between atoms: C23_34  and  C24_36
DOCKED: REMARK   22  A    between atoms: C24_36  and  C25_37
DOCKED: REMARK   23  A    between atoms: C25_37  and  C26_38
DOCKED: REMARK   24  A    between atoms: C25_37  and  C44_66
DOCKED: REMARK   25  A    between atoms: N6_40  and  C27_41
DOCKED: REMARK   26  A    between atoms: C27_41  and  C28_42
DOCKED: REMARK   27  A    between atoms: C27_41  and  C29_43
DOCKED: REMARK   28  A    between atoms: N7_45  and  C30_46
DOCKED: REMARK   29  A    between atoms: C30_46  and  C31_47
DOCKED: REMARK   30  A    between atoms: C30_46  and  C34_52
DOCKED: REMARK   31  A    between atoms: C31_47  and  C32_48
DOCKED: REMARK   32  A    between atoms: C32_48  and  C33_49
DOCKED: REMARK   33  A    between atoms: C33_49  and  O11_51
DOCKED: REMARK   34  A    between atoms: N8_54  and  C35_55
DOCKED: REMARK   35  A    between atoms: C35_55  and  C36_56
DOCKED: REMARK   36  A    between atoms: C35_55  and  C43_63
DOCKED: REMARK   37  A    between atoms: C36_56  and  C37_57
DOCKED: REMARK   38  A    between atoms: C43_63  and  O14_65
DOCKED: REMARK   39  A    between atoms: C44_66  and  C45_67
DOCKED: REMARK   40  A    between atoms: C44_66  and  C46_68
DOCKED: REMARK   41  A    between atoms: C44_66  and  O15_69
DOCKED: REMARK                            x       y       z     vdW  Elec       q    Type
DOCKED: REMARK                         _______ _______ _______ _____ _____    ______ ____
DOCKED: USER                              x       y       z     vdW  Elec       q    Type
DOCKED: USER                           _______ _______ _______ _____ _____    ______ ____
DOCKED: ROOT
DOCKED: ATOM      1  C23 UNL     1       6.589  -7.340   1.921 +0.00 +0.00    +0.135 C  
DOCKED: ENDROOT
DOCKED: BRANCH   1   2
DOCKED: ATOM      2  O7  UNL     1       7.959  -7.693   1.744 +0.00 -0.00    -0.390 OA 
DOCKED: ATOM      3  H40 UNL     1       8.479  -7.061   2.267 +0.00 +0.00    +0.210 HD 
DOCKED: ENDBRANCH   1   2
DOCKED: BRANCH   1   4
DOCKED: ATOM      4  C24 UNL     1       6.540  -5.912   2.501 +0.00 +0.00    +0.048 C  
DOCKED: BRANCH   4   5
DOCKED: ATOM      5  C25 UNL     1       7.013  -5.565   3.941 +0.00 +0.00    +0.108 C  
DOCKED: BRANCH   5   6
DOCKED: ATOM      6  C26 UNL     1       8.478  -5.115   4.007 +0.00 +0.00    +0.220 C  
DOCKED: ATOM      7  O8  UNL     1       9.370  -5.847   3.582 +0.00 -0.00    -0.275 OA 
DOCKED: ATOM      8  N6  UNL     1       8.720  -3.884   4.552 +0.00 -0.00    -0.304 N  
DOCKED: ATOM      9  H44 UNL     1       7.948  -3.398   5.006 +0.00 +0.00    +0.149 HD 
DOCKED: BRANCH   8  10
DOCKED: ATOM     10  C27 UNL     1      10.042  -3.317   4.825 +0.00 +0.00    +0.156 C  
DOCKED: ATOM     11  C28 UNL     1      10.962  -3.165   3.621 +0.00 +0.00    +0.038 C  
DOCKED: BRANCH  10  12
DOCKED: ATOM     12  C29 UNL     1      10.766  -4.064   5.971 +0.00 +0.00    +0.234 C  
DOCKED: ATOM     13  O9  UNL     1      11.380  -3.501   6.876 +0.00 -0.00    -0.274 OA 
DOCKED: ATOM     14  N7  UNL     1      10.659  -5.443   5.912 +0.00 -0.00    -0.302 N  
DOCKED: ATOM     15  H49 UNL     1      10.502  -5.859   4.993 +0.00 +0.00    +0.150 HD 
DOCKED: BRANCH  14  16
DOCKED: ATOM     16  C30 UNL     1      11.351  -6.280   6.894 +0.00 +0.00    +0.159 C  
DOCKED: BRANCH  16  17
DOCKED: ATOM     17  C34 UNL     1      10.659  -7.656   6.880 +0.00 +0.00    +0.234 C  
DOCKED: ATOM     18  O12 UNL     1      10.581  -8.380   7.870 +0.00 -0.00    -0.274 OA 
DOCKED: ATOM     19  N8  UNL     1      10.201  -8.043   5.644 +0.00 -0.00    -0.301 N  
DOCKED: ATOM     20  H56 UNL     1      10.232  -7.384   4.867 +0.00 +0.00    +0.150 HD 
DOCKED: BRANCH  19  21
DOCKED: ATOM     21  C35 UNL     1       9.330  -9.209   5.474 +0.00 +0.00    +0.186 C  
DOCKED: BRANCH  21  22
DOCKED: ATOM     22  C43 UNL     1       8.872  -9.265   4.018 +0.00 +0.00    +0.326 C  
DOCKED: ATOM     23  O13 UNL     1       7.897  -9.871   3.593 +0.00 -0.00    -0.249 OA 
DOCKED: BRANCH  22  24
DOCKED: ATOM     24  O14 UNL     1       9.682  -8.601   3.168 +0.00 -0.00    -0.479 OA 
DOCKED: ATOM     25  H65 UNL     1       9.438  -7.661   3.310 +0.00 +0.00    +0.295 HD 
DOCKED: ENDBRANCH  22  24
DOCKED: ENDBRANCH  21  22
DOCKED: BRANCH  21  26
DOCKED: ATOM     26  C36 UNL     1       9.971 -10.527   5.936 +0.00 +0.00    +0.069 C  
DOCKED: BRANCH  26  27
DOCKED: ATOM     27  C37 UNL     1      11.333 -10.817   5.348 +0.00 -0.00    -0.045 A  
DOCKED: ATOM     28  C38 UNL     1      11.458 -11.250   4.022 +0.00 +0.00    +0.004 A  
DOCKED: ATOM     29  C39 UNL     1      12.712 -11.512   3.473 +0.00 +0.00    +0.000 A  
DOCKED: ATOM     30  C40 UNL     1      13.860 -11.349   4.246 +0.00 +0.00    +0.000 A  
DOCKED: ATOM     31  C41 UNL     1      13.750 -10.921   5.568 +0.00 +0.00    +0.000 A  
DOCKED: ATOM     32  C42 UNL     1      12.494 -10.656   6.117 +0.00 +0.00    +0.004 A  
DOCKED: ENDBRANCH  26  27
DOCKED: ENDBRANCH  21  26
DOCKED: ENDBRANCH  19  21
DOCKED: ENDBRANCH  16  17
DOCKED: BRANCH  16  33
DOCKED: ATOM     33  C31 UNL     1      12.849  -6.372   6.553 +0.00 +0.00    +0.043 C  
DOCKED: BRANCH  33  34
DOCKED: ATOM     34  C32 UNL     1      13.159  -6.124   5.079 +0.00 +0.00    +0.123 C  
DOCKED: BRANCH  34  35
DOCKED: ATOM     35  C33 UNL     1      12.611  -7.204   4.193 +0.00 +0.00    +0.305 C  
DOCKED: ATOM     36  O10 UNL     1      13.082  -8.321   4.056 +0.00 -0.00    -0.251 OA 
DOCKED: BRANCH  35  37
DOCKED: ATOM     37  O11 UNL     1      11.473  -6.843   3.574 +0.00 -0.00    -0.481 OA 
DOCKED: ATOM     38  H55 UNL     1      11.178  -7.659   3.117 +0.00 +0.00    +0.295 HD 
DOCKED: ENDBRANCH  35  37
DOCKED: ENDBRANCH  34  35
DOCKED: ENDBRANCH  33  34
DOCKED: ENDBRANCH  16  33
DOCKED: ENDBRANCH  14  16
DOCKED: ENDBRANCH  10  12
DOCKED: ENDBRANCH   8  10
DOCKED: ENDBRANCH   5   6
DOCKED: BRANCH   5  39
DOCKED: ATOM     39  C44 UNL     1       6.491  -6.415   5.147 +0.00 +0.00    +0.072 C  
DOCKED: ATOM     40  C45 UNL     1       5.006  -6.096   5.399 +0.00 +0.00    +0.042 C  
DOCKED: ATOM     41  C46 UNL     1       7.215  -6.252   6.489 +0.00 +0.00    +0.042 C  
DOCKED: BRANCH  39  42
DOCKED: ATOM     42  O15 UNL     1       6.542  -7.811   4.818 +0.00 -0.00    -0.388 OA 
DOCKED: ATOM     43  H72 UNL     1       7.110  -7.876   4.020 +0.00 +0.00    +0.210 HD 
DOCKED: ENDBRANCH  39  42
DOCKED: ENDBRANCH   5  39
DOCKED: ENDBRANCH   4   5
DOCKED: ENDBRANCH   1   4
DOCKED: BRANCH   1  44
DOCKED: ATOM     44  C15 UNL     1       5.677  -7.580   0.668 +0.00 +0.00    +0.102 C  
DOCKED: BRANCH  44  47
DOCKED: ATOM     45  C14 UNL     1       6.911  -9.668   0.006 +0.00 +0.00    +0.234 C  
DOCKED: ATOM     46  O6  UNL     1       6.711 -10.195   1.102 +0.00 -0.00    -0.274 OA 
DOCKED: ATOM     47  N5  UNL     1       6.249  -8.513  -0.341 +0.00 -0.00    -0.308 N  
DOCKED: ATOM     48  H24 UNL     1       6.650  -8.039  -1.155 +0.00 +0.00    +0.149 HD 
DOCKED: BRANCH  45  49
DOCKED: ATOM     49  C11 UNL     1       7.916 -10.255  -1.024 +0.00 +0.00    +0.168 C  
DOCKED: BRANCH  49  52
DOCKED: ATOM     50  C10 UNL     1       8.546  -8.293  -2.411 +0.00 +0.00    +0.234 C  
DOCKED: ATOM     51  O4  UNL     1       7.535  -8.433  -3.109 +0.00 -0.00    -0.274 OA 
DOCKED: ATOM     52  N3  UNL     1       8.853  -9.181  -1.398 +0.00 -0.00    -0.302 N  
DOCKED: ATOM     53  H18 UNL     1       9.401  -8.805  -0.639 +0.00 +0.00    +0.150 HD 
DOCKED: BRANCH  50  54
DOCKED: ATOM     54  C4  UNL     1       9.586  -7.153  -2.661 +0.00 +0.00    +0.161 C  
DOCKED: BRANCH  54  55
DOCKED: ATOM     55  N1  UNL     1       9.957  -6.648  -1.337 +0.00 -0.00    -0.302 N  
DOCKED: ATOM     56  C5  UNL     1      10.276  -5.318  -1.134 +0.00 +0.00    +0.230 C  
DOCKED: ATOM     57  O1  UNL     1      10.571  -4.550  -2.043 +0.00 -0.00    -0.274 OA 
DOCKED: ATOM     58  H9  UNL     1       9.543  -7.122  -0.545 +0.00 +0.00    +0.150 HD 
DOCKED: BRANCH  56  59
DOCKED: ATOM     59  C6  UNL     1      10.260  -4.896   0.353 +0.00 +0.00    +0.138 C  
DOCKED: BRANCH  59  60
DOCKED: ATOM     60  N2  UNL     1       9.102  -5.521   1.023 +0.00 -0.00    -0.320 NA 
DOCKED: ATOM     61  H11 UNL     1       9.366  -5.916   1.926 +0.00 +0.00    +0.119 HD 
DOCKED: ATOM     62  H12 UNL     1       8.732  -6.264   0.429 +0.00 +0.00    +0.119 HD 
DOCKED: ENDBRANCH  59  60
DOCKED: BRANCH  59  63
DOCKED: ATOM     63  C7  UNL     1      11.596  -5.271   1.012 +0.00 +0.00    +0.039 C  
DOCKED: BRANCH  63  64
DOCKED: ATOM     64  C8  UNL     1      12.210  -6.571   0.485 +0.00 +0.00    +0.122 C  
DOCKED: BRANCH  64  65
DOCKED: ATOM     65  C9  UNL     1      11.581  -7.792   1.106 +0.00 +0.00    +0.305 C  
DOCKED: ATOM     66  O2  UNL     1      12.156  -8.772   1.554 +0.00 -0.00    -0.251 OA 
DOCKED: BRANCH  65  67
DOCKED: ATOM     67  O3  UNL     1      10.238  -7.703   1.148 +0.00 -0.00    -0.481 OA 
DOCKED: ATOM     68  H17 UNL     1      10.048  -7.222   1.979 +0.00 +0.00    +0.295 HD 
DOCKED: ENDBRANCH  65  67
DOCKED: ENDBRANCH  64  65
DOCKED: ENDBRANCH  63  64
DOCKED: ENDBRANCH  59  63
DOCKED: ENDBRANCH  56  59
DOCKED: ENDBRANCH  54  55
DOCKED: BRANCH  54  70
DOCKED: ATOM     69  C1  UNL     1      11.963  -8.124  -2.546 +0.00 +0.00    +0.009 C  
DOCKED: ATOM     70  C2  UNL     1      10.888  -7.484  -3.431 +0.00 +0.00    +0.012 C  
DOCKED: ATOM     71  C3  UNL     1      11.462  -6.315  -4.231 +0.00 +0.00    +0.009 C  
DOCKED: ENDBRANCH  54  70
DOCKED: ENDBRANCH  50  54
DOCKED: ENDBRANCH  49  52
DOCKED: BRANCH  49  72
DOCKED: ATOM     72  C12 UNL     1       8.716 -11.437  -0.472 +0.00 +0.00    +0.127 C  
DOCKED: BRANCH  72  73
DOCKED: ATOM     73  C13 UNL     1       9.940 -10.975   0.283 +0.00 +0.00    +0.213 C  
DOCKED: ATOM     74  N4  UNL     1       9.689 -10.168   1.352 +0.00 -0.00    -0.329 N  
DOCKED: ATOM     75  O5  UNL     1      11.077 -11.348   0.021 +0.00 -0.00    -0.276 OA 
DOCKED: ATOM     76  H22 UNL     1      10.486  -9.804   1.859 +0.00 +0.00    +0.145 HD 
DOCKED: ATOM     77  H23 UNL     1       8.793  -9.726   1.513 +0.00 +0.00    +0.145 HD 
DOCKED: ENDBRANCH  72  73
DOCKED: ENDBRANCH  49  72
DOCKED: ENDBRANCH  45  49
DOCKED: ENDBRANCH  44  47
DOCKED: BRANCH  44  78
DOCKED: ATOM     78  C16 UNL     1       4.254  -8.109   1.018 +0.00 +0.00    +0.028 C  
DOCKED: BRANCH  78  79
DOCKED: ATOM     79  C17 UNL     1       3.942  -8.360   2.506 +0.00 -0.00    -0.009 C  
DOCKED: ATOM     80  C18 UNL     1       2.423  -8.216   2.769 +0.00 +0.00    +0.003 C  
DOCKED: ATOM     81  C19 UNL     1       1.948  -8.895   4.059 +0.00 +0.00    +0.000 C  
DOCKED: ATOM     82  C20 UNL     1       3.072  -9.071   5.069 +0.00 +0.00    +0.000 C  
DOCKED: ATOM     83  C21 UNL     1       4.219  -9.906   4.498 +0.00 +0.00    +0.000 C  
DOCKED: ATOM     84  C22 UNL     1       4.391  -9.749   2.984 +0.00 +0.00    +0.003 C  
DOCKED: ENDBRANCH  78  79
DOCKED: ENDBRANCH  44  78
DOCKED: ENDBRANCH   1  44
DOCKED: TORSDOF 36
DOCKED: TER
DOCKED: ENDMDL
________________________________________________________________________________


    FINAL DOCKED STATE:
    ________________________


Run:   17 / 20
Time taken for this run:   7.574s

DOCKED: MODEL        17
DOCKED: USER    Run = 17
DOCKED: USER
DOCKED: USER    Estimated Free Energy of Binding    = +10.74 kcal/mol  [=(1)+(2)+(3)-(4)]
DOCKED: USER
DOCKED: USER    (1) Final Intermolecular Energy     =  +0.00 kcal/mol
DOCKED: USER        vdW + Hbond + desolv Energy     =  +0.00 kcal/mol
DOCKED: USER        Electrostatic Energy            =  +0.00 kcal/mol
DOCKED: USER        Moving Ligand-Fixed Receptor    =  +0.00 kcal/mol
DOCKED: USER        Moving Ligand-Moving Receptor   =  +0.00 kcal/mol
DOCKED: USER    (2) Final Total Internal Energy     = -31.59 kcal/mol
DOCKED: USER    (3) Torsional Free Energy           = +10.74 kcal/mol
DOCKED: USER    (4) Unbound System's Energy         = -31.59 kcal/mol
DOCKED: USER
DOCKED: USER
DOCKED: REMARK  Name = ligands/ligand_16.pdb
DOCKED: REMARK  41 active torsions:
DOCKED: REMARK  status: ('A' for Active; 'I' for Inactive)
DOCKED: REMARK    1  A    between atoms: C1_1  and  C2_2
DOCKED: REMARK    2  A    between atoms: C2_2  and  C3_3
DOCKED: REMARK    3  A    between atoms: C2_2  and  C4_4
DOCKED: REMARK    4  A    between atoms: C4_4  and  N1_5
DOCKED: REMARK    5  A    between atoms: C4_4  and  C10_15
DOCKED: REMARK    6  A    between atoms: C5_6  and  C6_8
DOCKED: REMARK    7  A    between atoms: C6_8  and  N2_9
DOCKED: REMARK    8  A    between atoms: C6_8  and  C7_10
DOCKED: REMARK    9  A    between atoms: C7_10  and  C8_11
DOCKED: REMARK   10  A    between atoms: C8_11  and  C9_12
DOCKED: REMARK   11  A    between atoms: C9_12  and  O3_14
DOCKED: REMARK   12  A    between atoms: N3_17  and  C11_18
DOCKED: REMARK   13  A    between atoms: C11_18  and  C12_19
DOCKED: REMARK   14  A    between atoms: C11_18  and  C14_23
DOCKED: REMARK   15  A    between atoms: C12_19  and  C13_20
DOCKED: REMARK   16  A    between atoms: N5_25  and  C15_26
DOCKED: REMARK   17  A    between atoms: C15_26  and  C16_27
DOCKED: REMARK   18  A    between atoms: C15_26  and  C23_34
DOCKED: REMARK   19  A    between atoms: C16_27  and  C17_28
DOCKED: REMARK   20  A    between atoms: C23_34  and  O7_35
DOCKED: REMARK   21  A    between atoms: C23_34  and  C24_36
DOCKED: REMARK   22  A    between atoms: C24_36  and  C25_37
DOCKED: REMARK   23  A    between atoms: C25_37  and  C26_38
DOCKED: REMARK   24  A    between atoms: C25_37  and  C44_66
DOCKED: REMARK   25  A    between atoms: N6_40  and  C27_41
DOCKED: REMARK   26  A    between atoms: C27_41  and  C28_42
DOCKED: REMARK   27  A    between atoms: C27_41  and  C29_43
DOCKED: REMARK   28  A    between atoms: N7_45  and  C30_46
DOCKED: REMARK   29  A    between atoms: C30_46  and  C31_47
DOCKED: REMARK   30  A    between atoms: C30_46  and  C34_52
DOCKED: REMARK   31  A    between atoms: C31_47  and  C32_48
DOCKED: REMARK   32  A    between atoms: C32_48  and  C33_49
DOCKED: REMARK   33  A    between atoms: C33_49  and  O11_51
DOCKED: REMARK   34  A    between atoms: N8_54  and  C35_55
DOCKED: REMARK   35  A    between atoms: C35_55  and  C36_56
DOCKED: REMARK   36  A    between atoms: C35_55  and  C43_63
DOCKED: REMARK   37  A    between atoms: C36_56  and  C37_57
DOCKED: REMARK   38  A    between atoms: C43_63  and  O14_65
DOCKED: REMARK   39  A    between atoms: C44_66  and  C45_67
DOCKED: REMARK   40  A    between atoms: C44_66  and  C46_68
DOCKED: REMARK   41  A    between atoms: C44_66  and  O15_69
DOCKED: REMARK                            x       y       z     vdW  Elec       q    Type
DOCKED: REMARK                         _______ _______ _______ _____ _____    ______ ____
DOCKED: USER                              x       y       z     vdW  Elec       q    Type
DOCKED: USER                           _______ _______ _______ _____ _____    ______ ____
DOCKED: ROOT
DOCKED: ATOM      1  C23 UNL     1      11.518 -12.092  -0.795 +0.00 +0.00    +0.135 C  
DOCKED: ENDROOT
DOCKED: BRANCH   1   2
DOCKED: ATOM      2  O7  UNL     1      11.276 -12.667  -2.077 +0.00 -0.00    -0.390 OA 
DOCKED: ATOM      3  H40 UNL     1      11.960 -12.317  -2.671 +0.00 +0.00    +0.210 HD 
DOCKED: ENDBRANCH   1   2
DOCKED: BRANCH   1   4
DOCKED: ATOM      4  C24 UNL     1      13.028 -12.213  -0.500 +0.00 +0.00    +0.048 C  
DOCKED: BRANCH   4   5
DOCKED: ATOM      5  C25 UNL     1      14.081 -11.208  -1.047 +0.00 +0.00    +0.108 C  
DOCKED: BRANCH   5   6
DOCKED: ATOM      6  C26 UNL     1      14.628 -11.594  -2.428 +0.00 +0.00    +0.220 C  
DOCKED: ATOM      7  O8  UNL     1      14.143 -12.542  -3.042 +0.00 -0.00    -0.275 OA 
DOCKED: ATOM      8  N6  UNL     1      15.658 -10.838  -2.915 +0.00 -0.00    -0.304 N  
DOCKED: ATOM      9  H44 UNL     1      16.096 -10.161  -2.292 +0.00 +0.00    +0.149 HD 
DOCKED: BRANCH   8  10
DOCKED: ATOM     10  C27 UNL     1      16.407 -11.108  -4.144 +0.00 +0.00    +0.156 C  
DOCKED: ATOM     11  C28 UNL     1      17.504 -12.158  -4.037 +0.00 +0.00    +0.038 C  
DOCKED: BRANCH  10  12
DOCKED: ATOM     12  C29 UNL     1      16.957  -9.811  -4.783 +0.00 +0.00    +0.234 C  
DOCKED: ATOM     13  O9  UNL     1      17.544  -9.774  -5.864 +0.00 -0.00    -0.274 OA 
DOCKED: ATOM     14  N7  UNL     1      16.722  -8.665  -4.043 +0.00 -0.00    -0.302 N  
DOCKED: ATOM     15  H49 UNL     1      16.603  -8.777  -3.036 +0.00 +0.00    +0.150 HD 
DOCKED: BRANCH  14  16
DOCKED: ATOM     16  C30 UNL     1      17.246  -7.374  -4.495 +0.00 +0.00    +0.159 C  
DOCKED: BRANCH  16  17
DOCKED: ATOM     17  C34 UNL     1      16.374  -6.282  -3.845 +0.00 +0.00    +0.234 C  
DOCKED: ATOM     18  O12 UNL     1      16.049  -5.248  -4.423 +0.00 -0.00    -0.274 OA 
DOCKED: ATOM     19  N8  UNL     1      16.053  -6.526  -2.531 +0.00 -0.00    -0.301 N  
DOCKED: ATOM     20  H56 UNL     1      16.292  -7.425  -2.115 +0.00 +0.00    +0.150 HD 
DOCKED: BRANCH  19  21
DOCKED: ATOM     21  C35 UNL     1      15.060  -5.721  -1.817 +0.00 +0.00    +0.186 C  
DOCKED: BRANCH  21  22
DOCKED: ATOM     22  C43 UNL     1      14.979  -6.214  -0.374 +0.00 +0.00    +0.326 C  
DOCKED: ATOM     23  O13 UNL     1      14.112  -5.925   0.439 +0.00 -0.00    -0.249 OA 
DOCKED: BRANCH  22  24
DOCKED: ATOM     24  O14 UNL     1      16.011  -7.005  -0.013 +0.00 -0.00    -0.479 OA 
DOCKED: ATOM     25  H65 UNL     1      16.129  -7.593  -0.790 +0.00 +0.00    +0.295 HD 
DOCKED: ENDBRANCH  22  24
DOCKED: ENDBRANCH  21  22
DOCKED: BRANCH  21  26
DOCKED: ATOM     26  C36 UNL     1      15.318  -4.209  -1.903 +0.00 +0.00    +0.069 C  
DOCKED: BRANCH  26  27
DOCKED: ATOM     27  C37 UNL     1      14.106  -3.371  -2.244 +0.00 -0.00    -0.045 A  
DOCKED: ATOM     28  C38 UNL     1      13.721  -2.309  -1.415 +0.00 +0.00    +0.004 A  
DOCKED: ATOM     29  C39 UNL     1      12.608  -1.529  -1.728 +0.00 +0.00    +0.000 A  
DOCKED: ATOM     30  C40 UNL     1      11.864  -1.803  -2.873 +0.00 +0.00    +0.000 A  
DOCKED: ATOM     31  C41 UNL     1      12.234  -2.858  -3.705 +0.00 +0.00    +0.000 A  
DOCKED: ATOM     32  C42 UNL     1      13.350  -3.638  -3.393 +0.00 +0.00    +0.004 A  
DOCKED: ENDBRANCH  26  27
DOCKED: ENDBRANCH  21  26
DOCKED: ENDBRANCH  19  21
DOCKED: ENDBRANCH  16  17
DOCKED: BRANCH  16  33
DOCKED: ATOM     33  C31 UNL     1      18.732  -7.241  -4.117 +0.00 +0.00    +0.043 C  
DOCKED: BRANCH  33  34
DOCKED: ATOM     34  C32 UNL     1      19.160  -8.164  -2.980 +0.00 +0.00    +0.123 C  
DOCKED: BRANCH  34  35
DOCKED: ATOM     35  C33 UNL     1      18.330  -7.970  -1.746 +0.00 +0.00    +0.305 C  
DOCKED: ATOM     36  O10 UNL     1      18.237  -6.936  -1.105 +0.00 -0.00    -0.251 OA 
DOCKED: BRANCH  35  37
DOCKED: ATOM     37  O11 UNL     1      17.621  -9.063  -1.416 +0.00 -0.00    -0.481 OA 
DOCKED: ATOM     38  H55 UNL     1      17.081  -8.778  -0.650 +0.00 +0.00    +0.295 HD 
DOCKED: ENDBRANCH  35  37
DOCKED: ENDBRANCH  34  35
DOCKED: ENDBRANCH  33  34
DOCKED: ENDBRANCH  16  33
DOCKED: ENDBRANCH  14  16
DOCKED: ENDBRANCH  10  12
DOCKED: ENDBRANCH   8  10
DOCKED: ENDBRANCH   5   6
DOCKED: BRANCH   5  39
DOCKED: ATOM     39  C44 UNL     1      15.094 -10.541  -0.058 +0.00 +0.00    +0.072 C  
DOCKED: ATOM     40  C45 UNL     1      16.392 -11.368  -0.013 +0.00 +0.00    +0.042 C  
DOCKED: ATOM     41  C46 UNL     1      14.638 -10.349   1.393 +0.00 +0.00    +0.042 C  
DOCKED: BRANCH  39  42
DOCKED: ATOM     42  O15 UNL     1      15.472  -9.245  -0.547 +0.00 -0.00    -0.388 OA 
DOCKED: ATOM     43  H72 UNL     1      14.666  -8.688  -0.474 +0.00 +0.00    +0.210 HD 
DOCKED: ENDBRANCH  39  42
DOCKED: ENDBRANCH   5  39
DOCKED: ENDBRANCH   4   5
DOCKED: ENDBRANCH   1   4
DOCKED: BRANCH   1  44
DOCKED: ATOM     44  C15 UNL     1      10.914 -10.661  -0.587 +0.00 +0.00    +0.102 C  
DOCKED: BRANCH  44  47
DOCKED: ATOM     45  C14 UNL     1      12.095  -8.483  -1.014 +0.00 +0.00    +0.234 C  
DOCKED: ATOM     46  O6  UNL     1      12.575  -8.463   0.121 +0.00 -0.00    -0.274 OA 
DOCKED: ATOM     47  N5  UNL     1      11.477  -9.618  -1.487 +0.00 -0.00    -0.308 N  
DOCKED: ATOM     48  H24 UNL     1      10.919  -9.460  -2.330 +0.00 +0.00    +0.149 HD 
DOCKED: BRANCH  45  49
DOCKED: ATOM     49  C11 UNL     1      12.140  -7.247  -1.954 +0.00 +0.00    +0.168 C  
DOCKED: BRANCH  49  52
DOCKED: ATOM     50  C10 UNL     1      13.671  -8.415  -3.524 +0.00 +0.00    +0.234 C  
DOCKED: ATOM     51  O4  UNL     1      14.511  -8.563  -2.630 +0.00 -0.00    -0.274 OA 
DOCKED: ATOM     52  N3  UNL     1      12.495  -7.722  -3.304 +0.00 -0.00    -0.302 N  
DOCKED: ATOM     53  H18 UNL     1      11.716  -7.990  -3.885 +0.00 +0.00    +0.150 HD 
DOCKED: BRANCH  50  54
DOCKED: ATOM     54  C4  UNL     1      13.897  -8.933  -4.981 +0.00 +0.00    +0.161 C  
DOCKED: BRANCH  54  55
DOCKED: ATOM     55  N1  UNL     1      12.878  -9.961  -5.207 +0.00 -0.00    -0.302 N  
DOCKED: ATOM     56  C5  UNL     1      13.078 -10.992  -6.107 +0.00 +0.00    +0.230 C  
DOCKED: ATOM     57  O1  UNL     1      13.938 -10.967  -6.980 +0.00 -0.00    -0.274 OA 
DOCKED: ATOM     58  H9  UNL     1      12.282 -10.181  -4.420 +0.00 +0.00    +0.150 HD 
DOCKED: BRANCH  56  59
DOCKED: ATOM     59  C6  UNL     1      12.091 -12.168  -5.932 +0.00 +0.00    +0.138 C  
DOCKED: BRANCH  59  60
DOCKED: ATOM     60  N2  UNL     1      11.980 -12.501  -4.498 +0.00 -0.00    -0.320 NA 
DOCKED: ATOM     61  H11 UNL     1      11.012 -12.691  -4.235 +0.00 +0.00    +0.119 HD 
DOCKED: ATOM     62  H12 UNL     1      12.328 -11.717  -3.944 +0.00 +0.00    +0.119 HD 
DOCKED: ENDBRANCH  59  60
DOCKED: BRANCH  59  63
DOCKED: ATOM     63  C7  UNL     1      10.737 -11.805  -6.560 +0.00 +0.00    +0.039 C  
DOCKED: BRANCH  63  64
DOCKED: ATOM     64  C8  UNL     1       9.674 -11.370  -5.546 +0.00 +0.00    +0.122 C  
DOCKED: BRANCH  64  65
DOCKED: ATOM     65  C9  UNL     1      10.185 -10.311  -4.603 +0.00 +0.00    +0.305 C  
DOCKED: ATOM     66  O2  UNL     1      10.337  -9.122  -4.839 +0.00 -0.00    -0.251 OA 
DOCKED: BRANCH  65  67
DOCKED: ATOM     67  O3  UNL     1      10.464 -10.811  -3.384 +0.00 -0.00    -0.481 OA 
DOCKED: ATOM     68  H17 UNL     1      10.243 -11.763  -3.451 +0.00 +0.00    +0.295 HD 
DOCKED: ENDBRANCH  65  67
DOCKED: ENDBRANCH  64  65
DOCKED: ENDBRANCH  63  64
DOCKED: ENDBRANCH  59  63
DOCKED: ENDBRANCH  56  59
DOCKED: ENDBRANCH  54  55
DOCKED: BRANCH  54  70
DOCKED: ATOM     69  C1  UNL     1      15.053  -7.986  -7.073 +0.00 +0.00    +0.009 C  
DOCKED: ATOM     70  C2  UNL     1      13.829  -7.924  -6.153 +0.00 +0.00    +0.012 C  
DOCKED: ATOM     71  C3  UNL     1      13.533  -6.485  -5.730 +0.00 +0.00    +0.009 C  
DOCKED: ENDBRANCH  54  70
DOCKED: ENDBRANCH  50  54
DOCKED: ENDBRANCH  49  52
DOCKED: BRANCH  49  72
DOCKED: ATOM     72  C12 UNL     1      10.804  -6.505  -2.031 +0.00 +0.00    +0.127 C  
DOCKED: BRANCH  72  73
DOCKED: ATOM     73  C13 UNL     1      10.725  -5.395  -1.009 +0.00 +0.00    +0.213 C  
DOCKED: ATOM     74  N4  UNL     1      11.599  -5.505   0.031 +0.00 -0.00    -0.329 N  
DOCKED: ATOM     75  O5  UNL     1       9.994  -4.419  -1.125 +0.00 -0.00    -0.276 OA 
DOCKED: ATOM     76  H22 UNL     1      11.549  -4.803   0.759 +0.00 +0.00    +0.145 HD 
DOCKED: ATOM     77  H23 UNL     1      12.109  -6.354   0.238 +0.00 +0.00    +0.145 HD 
DOCKED: ENDBRANCH  72  73
DOCKED: ENDBRANCH  49  72
DOCKED: ENDBRANCH  45  49
DOCKED: ENDBRANCH  44  47
DOCKED: BRANCH  44  78
DOCKED: ATOM     78  C16 UNL     1       9.365 -10.603  -0.739 +0.00 +0.00    +0.028 C  
DOCKED: BRANCH  78  79
DOCKED: ATOM     79  C17 UNL     1       8.643  -9.386  -0.128 +0.00 -0.00    -0.009 C  
DOCKED: ATOM     80  C18 UNL     1       9.489  -8.777   1.018 +0.00 +0.00    +0.003 C  
DOCKED: ATOM     81  C19 UNL     1       9.120  -7.329   1.362 +0.00 +0.00    +0.000 C  
DOCKED: ATOM     82  C20 UNL     1       7.701  -6.978   0.942 +0.00 +0.00    +0.000 C  
DOCKED: ATOM     83  C21 UNL     1       7.493  -7.167  -0.561 +0.00 +0.00    +0.000 C  
DOCKED: ATOM     84  C22 UNL     1       8.353  -8.285  -1.158 +0.00 +0.00    +0.003 C  
DOCKED: ENDBRANCH  78  79
DOCKED: ENDBRANCH  44  78
DOCKED: ENDBRANCH   1  44
DOCKED: TORSDOF 36
DOCKED: TER
DOCKED: ENDMDL
________________________________________________________________________________


    FINAL DOCKED STATE:
    ________________________


Run:   18 / 20
Time taken for this run:   7.574s

DOCKED: MODEL        18
DOCKED: USER    Run = 18
DOCKED: USER
DOCKED: USER    Estimated Free Energy of Binding    = +10.74 kcal/mol  [=(1)+(2)+(3)-(4)]
DOCKED: USER
DOCKED: USER    (1) Final Intermolecular Energy     =  +0.00 kcal/mol
DOCKED: USER        vdW + Hbond + desolv Energy     =  +0.00 kcal/mol
DOCKED: USER        Electrostatic Energy            =  +0.00 kcal/mol
DOCKED: USER        Moving Ligand-Fixed Receptor    =  +0.00 kcal/mol
DOCKED: USER        Moving Ligand-Moving Receptor   =  +0.00 kcal/mol
DOCKED: USER    (2) Final Total Internal Energy     = -32.26 kcal/mol
DOCKED: USER    (3) Torsional Free Energy           = +10.74 kcal/mol
DOCKED: USER    (4) Unbound System's Energy         = -32.26 kcal/mol
DOCKED: USER
DOCKED: USER
DOCKED: REMARK  Name = ligands/ligand_16.pdb
DOCKED: REMARK  41 active torsions:
DOCKED: REMARK  status: ('A' for Active; 'I' for Inactive)
DOCKED: REMARK    1  A    between atoms: C1_1  and  C2_2
DOCKED: REMARK    2  A    between atoms: C2_2  and  C3_3
DOCKED: REMARK    3  A    between atoms: C2_2  and  C4_4
DOCKED: REMARK    4  A    between atoms: C4_4  and  N1_5
DOCKED: REMARK    5  A    between atoms: C4_4  and  C10_15
DOCKED: REMARK    6  A    between atoms: C5_6  and  C6_8
DOCKED: REMARK    7  A    between atoms: C6_8  and  N2_9
DOCKED: REMARK    8  A    between atoms: C6_8  and  C7_10
DOCKED: REMARK    9  A    between atoms: C7_10  and  C8_11
DOCKED: REMARK   10  A    between atoms: C8_11  and  C9_12
DOCKED: REMARK   11  A    between atoms: C9_12  and  O3_14
DOCKED: REMARK   12  A    between atoms: N3_17  and  C11_18
DOCKED: REMARK   13  A    between atoms: C11_18  and  C12_19
DOCKED: REMARK   14  A    between atoms: C11_18  and  C14_23
DOCKED: REMARK   15  A    between atoms: C12_19  and  C13_20
DOCKED: REMARK   16  A    between atoms: N5_25  and  C15_26
DOCKED: REMARK   17  A    between atoms: C15_26  and  C16_27
DOCKED: REMARK   18  A    between atoms: C15_26  and  C23_34
DOCKED: REMARK   19  A    between atoms: C16_27  and  C17_28
DOCKED: REMARK   20  A    between atoms: C23_34  and  O7_35
DOCKED: REMARK   21  A    between atoms: C23_34  and  C24_36
DOCKED: REMARK   22  A    between atoms: C24_36  and  C25_37
DOCKED: REMARK   23  A    between atoms: C25_37  and  C26_38
DOCKED: REMARK   24  A    between atoms: C25_37  and  C44_66
DOCKED: REMARK   25  A    between atoms: N6_40  and  C27_41
DOCKED: REMARK   26  A    between atoms: C27_41  and  C28_42
DOCKED: REMARK   27  A    between atoms: C27_41  and  C29_43
DOCKED: REMARK   28  A    between atoms: N7_45  and  C30_46
DOCKED: REMARK   29  A    between atoms: C30_46  and  C31_47
DOCKED: REMARK   30  A    between atoms: C30_46  and  C34_52
DOCKED: REMARK   31  A    between atoms: C31_47  and  C32_48
DOCKED: REMARK   32  A    between atoms: C32_48  and  C33_49
DOCKED: REMARK   33  A    between atoms: C33_49  and  O11_51
DOCKED: REMARK   34  A    between atoms: N8_54  and  C35_55
DOCKED: REMARK   35  A    between atoms: C35_55  and  C36_56
DOCKED: REMARK   36  A    between atoms: C35_55  and  C43_63
DOCKED: REMARK   37  A    between atoms: C36_56  and  C37_57
DOCKED: REMARK   38  A    between atoms: C43_63  and  O14_65
DOCKED: REMARK   39  A    between atoms: C44_66  and  C45_67
DOCKED: REMARK   40  A    between atoms: C44_66  and  C46_68
DOCKED: REMARK   41  A    between atoms: C44_66  and  O15_69
DOCKED: REMARK                            x       y       z     vdW  Elec       q    Type
DOCKED: REMARK                         _______ _______ _______ _____ _____    ______ ____
DOCKED: USER                              x       y       z     vdW  Elec       q    Type
DOCKED: USER                           _______ _______ _______ _____ _____    ______ ____
DOCKED: ROOT
DOCKED: ATOM      1  C23 UNL     1       7.885  -7.253   3.980 +0.00 +0.00    +0.135 C  
DOCKED: ENDROOT
DOCKED: BRANCH   1   2
DOCKED: ATOM      2  O7  UNL     1       6.722  -6.485   4.278 +0.00 -0.00    -0.390 OA 
DOCKED: ATOM      3  H40 UNL     1       6.697  -5.758   3.633 +0.00 +0.00    +0.210 HD 
DOCKED: ENDBRANCH   1   2
DOCKED: BRANCH   1   4
DOCKED: ATOM      4  C24 UNL     1       7.423  -8.632   3.465 +0.00 +0.00    +0.048 C  
DOCKED: BRANCH   4   5
DOCKED: ATOM      5  C25 UNL     1       6.277  -8.809   2.428 +0.00 +0.00    +0.108 C  
DOCKED: BRANCH   5   6
DOCKED: ATOM      6  C26 UNL     1       4.931  -9.172   3.068 +0.00 +0.00    +0.220 C  
DOCKED: ATOM      7  O8  UNL     1       4.367 -10.222   2.768 +0.00 -0.00    -0.275 OA 
DOCKED: ATOM      8  N6  UNL     1       4.415  -8.279   3.966 +0.00 -0.00    -0.304 N  
DOCKED: ATOM      9  H44 UNL     1       4.870  -7.372   4.058 +0.00 +0.00    +0.149 HD 
DOCKED: BRANCH   8  10
DOCKED: ATOM     10  C27 UNL     1       3.094  -8.366   4.593 +0.00 +0.00    +0.156 C  
DOCKED: ATOM     11  C28 UNL     1       1.950  -7.721   3.824 +0.00 +0.00    +0.038 C  
DOCKED: BRANCH  10  12
DOCKED: ATOM     12  C29 UNL     1       3.115  -7.866   6.057 +0.00 +0.00    +0.234 C  
DOCKED: ATOM     13  O9  UNL     1       2.160  -7.959   6.827 +0.00 -0.00    -0.274 OA 
DOCKED: ATOM     14  N7  UNL     1       4.318  -7.307   6.454 +0.00 -0.00    -0.302 N  
DOCKED: ATOM     15  H49 UNL     1       4.907  -6.905   5.724 +0.00 +0.00    +0.150 HD 
DOCKED: BRANCH  14  16
DOCKED: ATOM     16  C30 UNL     1       4.459  -6.731   7.793 +0.00 +0.00    +0.159 C  
DOCKED: BRANCH  16  17
DOCKED: ATOM     17  C34 UNL     1       5.959  -6.450   8.006 +0.00 +0.00    +0.234 C  
DOCKED: ATOM     18  O12 UNL     1       6.569  -6.788   9.017 +0.00 -0.00    -0.274 OA 
DOCKED: ATOM     19  N8  UNL     1       6.543  -5.718   7.000 +0.00 -0.00    -0.301 N  
DOCKED: ATOM     20  H56 UNL     1       6.013  -5.515   6.153 +0.00 +0.00    +0.150 HD 
DOCKED: BRANCH  19  21
DOCKED: ATOM     21  C35 UNL     1       7.994  -5.541   6.918 +0.00 +0.00    +0.186 C  
DOCKED: BRANCH  21  22
DOCKED: ATOM     22  C43 UNL     1       8.305  -4.609   5.749 +0.00 +0.00    +0.326 C  
DOCKED: ATOM     23  O13 UNL     1       9.412  -4.191   5.435 +0.00 -0.00    -0.249 OA 
DOCKED: BRANCH  22  24
DOCKED: ATOM     24  O14 UNL     1       7.211  -4.212   5.066 +0.00 -0.00    -0.479 OA 
DOCKED: ATOM     25  H65 UNL     1       6.627  -5.000   5.097 +0.00 +0.00    +0.295 HD 
DOCKED: ENDBRANCH  22  24
DOCKED: ENDBRANCH  21  22
DOCKED: BRANCH  21  26
DOCKED: ATOM     26  C36 UNL     1       8.631  -5.063   8.232 +0.00 +0.00    +0.069 C  
DOCKED: BRANCH  26  27
DOCKED: ATOM     27  C37 UNL     1       7.833  -4.025   8.989 +0.00 -0.00    -0.045 A  
DOCKED: ATOM     28  C38 UNL     1       7.274  -2.930   8.319 +0.00 +0.00    +0.004 A  
DOCKED: ATOM     29  C39 UNL     1       6.532  -1.975   9.012 +0.00 +0.00    +0.000 A  
DOCKED: ATOM     30  C40 UNL     1       6.342  -2.100  10.385 +0.00 +0.00    +0.000 A  
DOCKED: ATOM     31  C41 UNL     1       6.894  -3.184  11.066 +0.00 +0.00    +0.000 A  
DOCKED: ATOM     32  C42 UNL     1       7.636  -4.143  10.372 +0.00 +0.00    +0.004 A  
DOCKED: ENDBRANCH  26  27
DOCKED: ENDBRANCH  21  26
DOCKED: ENDBRANCH  19  21
DOCKED: ENDBRANCH  16  17
DOCKED: BRANCH  16  33
DOCKED: ATOM     33  C31 UNL     1       3.599  -5.460   7.918 +0.00 +0.00    +0.043 C  
DOCKED: BRANCH  33  34
DOCKED: ATOM     34  C32 UNL     1       3.141  -4.895   6.577 +0.00 +0.00    +0.123 C  
DOCKED: BRANCH  34  35
DOCKED: ATOM     35  C33 UNL     1       4.294  -4.573   5.672 +0.00 +0.00    +0.305 C  
DOCKED: ATOM     36  O10 UNL     1       5.016  -3.594   5.758 +0.00 -0.00    -0.251 OA 
DOCKED: BRANCH  35  37
DOCKED: ATOM     37  O11 UNL     1       4.511  -5.524   4.746 +0.00 -0.00    -0.481 OA 
DOCKED: ATOM     38  H55 UNL     1       5.467  -5.449   4.544 +0.00 +0.00    +0.295 HD 
DOCKED: ENDBRANCH  35  37
DOCKED: ENDBRANCH  34  35
DOCKED: ENDBRANCH  33  34
DOCKED: ENDBRANCH  16  33
DOCKED: ENDBRANCH  14  16
DOCKED: ENDBRANCH  10  12
DOCKED: ENDBRANCH   8  10
DOCKED: ENDBRANCH   5   6
DOCKED: BRANCH   5  39
DOCKED: ATOM     39  C44 UNL     1       6.589  -9.464   1.042 +0.00 +0.00    +0.072 C  
DOCKED: ATOM     40  C45 UNL     1       7.937  -8.939   0.514 +0.00 +0.00    +0.042 C  
DOCKED: ATOM     41  C46 UNL     1       5.562  -9.262  -0.079 +0.00 +0.00    +0.042 C  
DOCKED: BRANCH  39  42
DOCKED: ATOM     42  O15 UNL     1       6.754 -10.882   1.198 +0.00 -0.00    -0.388 OA 
DOCKED: ATOM     43  H72 UNL     1       6.001 -11.178   1.754 +0.00 +0.00    +0.210 HD 
DOCKED: ENDBRANCH  39  42
DOCKED: ENDBRANCH   5  39
DOCKED: ENDBRANCH   4   5
DOCKED: ENDBRANCH   1   4
DOCKED: BRANCH   1  44
DOCKED: ATOM     44  C15 UNL     1       8.943  -6.529   3.077 +0.00 +0.00    +0.102 C  
DOCKED: BRANCH  44  47
DOCKED: ATOM     45  C14 UNL     1       9.355  -4.347   1.898 +0.00 +0.00    +0.234 C  
DOCKED: ATOM     46  O6  UNL     1      10.377  -4.774   1.357 +0.00 -0.00    -0.274 OA 
DOCKED: ATOM     47  N5  UNL     1       8.504  -5.207   2.552 +0.00 -0.00    -0.308 N  
DOCKED: ATOM     48  H24 UNL     1       7.824  -4.733   3.153 +0.00 +0.00    +0.149 HD 
DOCKED: BRANCH  45  49
DOCKED: ATOM     49  C11 UNL     1       8.983  -2.839   1.890 +0.00 +0.00    +0.168 C  
DOCKED: BRANCH  49  52
DOCKED: ATOM     50  C10 UNL     1       7.657  -3.307  -0.158 +0.00 +0.00    +0.234 C  
DOCKED: ATOM     51  O4  UNL     1       8.603  -3.926  -0.657 +0.00 -0.00    -0.274 OA 
DOCKED: ATOM     52  N3  UNL     1       7.769  -2.680   1.069 +0.00 -0.00    -0.302 N  
DOCKED: ATOM     53  H18 UNL     1       6.910  -2.578   1.587 +0.00 +0.00    +0.150 HD 
DOCKED: BRANCH  50  54
DOCKED: ATOM     54  C4  UNL     1       6.291  -3.125  -0.898 +0.00 +0.00    +0.161 C  
DOCKED: BRANCH  54  55
DOCKED: ATOM     55  N1  UNL     1       5.316  -3.919  -0.146 +0.00 -0.00    -0.302 N  
DOCKED: ATOM     56  C5  UNL     1       5.487  -5.277   0.048 +0.00 +0.00    +0.230 C  
DOCKED: ATOM     57  O1  UNL     1       6.255  -5.962  -0.619 +0.00 -0.00    -0.274 OA 
DOCKED: ATOM     58  H9  UNL     1       4.814  -3.435   0.587 +0.00 +0.00    +0.150 HD 
DOCKED: BRANCH  56  59
DOCKED: ATOM     59  C6  UNL     1       4.592  -5.861   1.164 +0.00 +0.00    +0.138 C  
DOCKED: BRANCH  59  60
DOCKED: ATOM     60  N2  UNL     1       5.410  -6.095   2.371 +0.00 -0.00    -0.320 NA 
DOCKED: ATOM     61  H11 UNL     1       4.924  -5.784   3.214 +0.00 +0.00    +0.119 HD 
DOCKED: ATOM     62  H12 UNL     1       6.288  -5.581   2.285 +0.00 +0.00    +0.119 HD 
DOCKED: ENDBRANCH  59  60
DOCKED: BRANCH  59  63
DOCKED: ATOM     63  C7  UNL     1       3.409  -4.917   1.426 +0.00 +0.00    +0.039 C  
DOCKED: BRANCH  63  64
DOCKED: ATOM     64  C8  UNL     1       3.564  -4.054   2.681 +0.00 +0.00    +0.122 C  
DOCKED: BRANCH  64  65
DOCKED: ATOM     65  C9  UNL     1       4.804  -3.198   2.636 +0.00 +0.00    +0.305 C  
DOCKED: ATOM     66  O2  UNL     1       4.885  -2.033   2.277 +0.00 -0.00    -0.251 OA 
DOCKED: BRANCH  65  67
DOCKED: ATOM     67  O3  UNL     1       5.893  -3.861   3.071 +0.00 -0.00    -0.481 OA 
DOCKED: ATOM     68  H17 UNL     1       5.564  -4.421   3.803 +0.00 +0.00    +0.295 HD 
DOCKED: ENDBRANCH  65  67
DOCKED: ENDBRANCH  64  65
DOCKED: ENDBRANCH  63  64
DOCKED: ENDBRANCH  59  63
DOCKED: ENDBRANCH  56  59
DOCKED: ENDBRANCH  54  55
DOCKED: BRANCH  54  70
DOCKED: ATOM     69  C1  UNL     1       6.650  -0.606  -0.529 +0.00 +0.00    +0.009 C  
DOCKED: ATOM     70  C2  UNL     1       5.718  -1.697  -1.068 +0.00 +0.00    +0.012 C  
DOCKED: ATOM     71  C3  UNL     1       4.298  -1.519  -0.531 +0.00 +0.00    +0.009 C  
DOCKED: ENDBRANCH  54  70
DOCKED: ENDBRANCH  50  54
DOCKED: ENDBRANCH  49  52
DOCKED: BRANCH  49  72
DOCKED: ATOM     72  C12 UNL     1       8.706  -2.284   3.289 +0.00 +0.00    +0.127 C  
DOCKED: BRANCH  72  73
DOCKED: ATOM     73  C13 UNL     1       7.450  -1.446   3.316 +0.00 +0.00    +0.213 C  
DOCKED: ATOM     74  N4  UNL     1       6.546  -1.793   4.275 +0.00 -0.00    -0.329 N  
DOCKED: ATOM     75  O5  UNL     1       7.269  -0.474   2.593 +0.00 -0.00    -0.276 OA 
DOCKED: ATOM     76  H22 UNL     1       5.672  -1.283   4.299 +0.00 +0.00    +0.145 HD 
DOCKED: ATOM     77  H23 UNL     1       6.590  -2.665   4.787 +0.00 +0.00    +0.145 HD 
DOCKED: ENDBRANCH  72  73
DOCKED: ENDBRANCH  49  72
DOCKED: ENDBRANCH  45  49
DOCKED: ENDBRANCH  44  47
DOCKED: BRANCH  44  78
DOCKED: ATOM     78  C16 UNL     1      10.318  -6.305   3.775 +0.00 +0.00    +0.028 C  
DOCKED: BRANCH  78  79
DOCKED: ATOM     79  C17 UNL     1      10.963  -7.522   4.466 +0.00 -0.00    -0.009 C  
DOCKED: ATOM     80  C18 UNL     1      10.399  -7.689   5.899 +0.00 +0.00    +0.003 C  
DOCKED: ATOM     81  C19 UNL     1      10.594  -9.093   6.484 +0.00 +0.00    +0.000 C  
DOCKED: ATOM     82  C20 UNL     1      11.742  -9.841   5.824 +0.00 +0.00    +0.000 C  
DOCKED: ATOM     83  C21 UNL     1      11.528  -9.990   4.318 +0.00 +0.00    +0.000 C  
DOCKED: ATOM     84  C22 UNL     1      10.740  -8.832   3.697 +0.00 +0.00    +0.003 C  
DOCKED: ENDBRANCH  78  79
DOCKED: ENDBRANCH  44  78
DOCKED: ENDBRANCH   1  44
DOCKED: TORSDOF 36
DOCKED: TER
DOCKED: ENDMDL
________________________________________________________________________________


    FINAL DOCKED STATE:
    ________________________


Run:   19 / 20
Time taken for this run:   7.574s

DOCKED: MODEL        19
DOCKED: USER    Run = 19
DOCKED: USER
DOCKED: USER    Estimated Free Energy of Binding    = +10.74 kcal/mol  [=(1)+(2)+(3)-(4)]
DOCKED: USER
DOCKED: USER    (1) Final Intermolecular Energy     =  +0.00 kcal/mol
DOCKED: USER        vdW + Hbond + desolv Energy     =  +0.00 kcal/mol
DOCKED: USER        Electrostatic Energy            =  +0.00 kcal/mol
DOCKED: USER        Moving Ligand-Fixed Receptor    =  +0.00 kcal/mol
DOCKED: USER        Moving Ligand-Moving Receptor   =  +0.00 kcal/mol
DOCKED: USER    (2) Final Total Internal Energy     = -31.68 kcal/mol
DOCKED: USER    (3) Torsional Free Energy           = +10.74 kcal/mol
DOCKED: USER    (4) Unbound System's Energy         = -31.68 kcal/mol
DOCKED: USER
DOCKED: USER
DOCKED: REMARK  Name = ligands/ligand_16.pdb
DOCKED: REMARK  41 active torsions:
DOCKED: REMARK  status: ('A' for Active; 'I' for Inactive)
DOCKED: REMARK    1  A    between atoms: C1_1  and  C2_2
DOCKED: REMARK    2  A    between atoms: C2_2  and  C3_3
DOCKED: REMARK    3  A    between atoms: C2_2  and  C4_4
DOCKED: REMARK    4  A    between atoms: C4_4  and  N1_5
DOCKED: REMARK    5  A    between atoms: C4_4  and  C10_15
DOCKED: REMARK    6  A    between atoms: C5_6  and  C6_8
DOCKED: REMARK    7  A    between atoms: C6_8  and  N2_9
DOCKED: REMARK    8  A    between atoms: C6_8  and  C7_10
DOCKED: REMARK    9  A    between atoms: C7_10  and  C8_11
DOCKED: REMARK   10  A    between atoms: C8_11  and  C9_12
DOCKED: REMARK   11  A    between atoms: C9_12  and  O3_14
DOCKED: REMARK   12  A    between atoms: N3_17  and  C11_18
DOCKED: REMARK   13  A    between atoms: C11_18  and  C12_19
DOCKED: REMARK   14  A    between atoms: C11_18  and  C14_23
DOCKED: REMARK   15  A    between atoms: C12_19  and  C13_20
DOCKED: REMARK   16  A    between atoms: N5_25  and  C15_26
DOCKED: REMARK   17  A    between atoms: C15_26  and  C16_27
DOCKED: REMARK   18  A    between atoms: C15_26  and  C23_34
DOCKED: REMARK   19  A    between atoms: C16_27  and  C17_28
DOCKED: REMARK   20  A    between atoms: C23_34  and  O7_35
DOCKED: REMARK   21  A    between atoms: C23_34  and  C24_36
DOCKED: REMARK   22  A    between atoms: C24_36  and  C25_37
DOCKED: REMARK   23  A    between atoms: C25_37  and  C26_38
DOCKED: REMARK   24  A    between atoms: C25_37  and  C44_66
DOCKED: REMARK   25  A    between atoms: N6_40  and  C27_41
DOCKED: REMARK   26  A    between atoms: C27_41  and  C28_42
DOCKED: REMARK   27  A    between atoms: C27_41  and  C29_43
DOCKED: REMARK   28  A    between atoms: N7_45  and  C30_46
DOCKED: REMARK   29  A    between atoms: C30_46  and  C31_47
DOCKED: REMARK   30  A    between atoms: C30_46  and  C34_52
DOCKED: REMARK   31  A    between atoms: C31_47  and  C32_48
DOCKED: REMARK   32  A    between atoms: C32_48  and  C33_49
DOCKED: REMARK   33  A    between atoms: C33_49  and  O11_51
DOCKED: REMARK   34  A    between atoms: N8_54  and  C35_55
DOCKED: REMARK   35  A    between atoms: C35_55  and  C36_56
DOCKED: REMARK   36  A    between atoms: C35_55  and  C43_63
DOCKED: REMARK   37  A    between atoms: C36_56  and  C37_57
DOCKED: REMARK   38  A    between atoms: C43_63  and  O14_65
DOCKED: REMARK   39  A    between atoms: C44_66  and  C45_67
DOCKED: REMARK   40  A    between atoms: C44_66  and  C46_68
DOCKED: REMARK   41  A    between atoms: C44_66  and  O15_69
DOCKED: REMARK                            x       y       z     vdW  Elec       q    Type
DOCKED: REMARK                         _______ _______ _______ _____ _____    ______ ____
DOCKED: USER                              x       y       z     vdW  Elec       q    Type
DOCKED: USER                           _______ _______ _______ _____ _____    ______ ____
DOCKED: ROOT
DOCKED: ATOM      1  C23 UNL     1      13.341  -6.204  -8.740 +0.00 +0.00    +0.135 C  
DOCKED: ENDROOT
DOCKED: BRANCH   1   2
DOCKED: ATOM      2  O7  UNL     1      11.942  -6.398  -8.939 +0.00 -0.00    -0.390 OA 
DOCKED: ATOM      3  H40 UNL     1      11.539  -6.437  -8.056 +0.00 +0.00    +0.210 HD 
DOCKED: ENDBRANCH   1   2
DOCKED: BRANCH   1   4
DOCKED: ATOM      4  C24 UNL     1      13.528  -4.900  -7.937 +0.00 +0.00    +0.048 C  
DOCKED: BRANCH   4   5
DOCKED: ATOM      5  C25 UNL     1      12.676  -4.547  -6.685 +0.00 +0.00    +0.108 C  
DOCKED: BRANCH   5   6
DOCKED: ATOM      6  C26 UNL     1      12.980  -5.439  -5.474 +0.00 +0.00    +0.220 C  
DOCKED: ATOM      7  O8  UNL     1      12.121  -5.628  -4.614 +0.00 -0.00    -0.275 OA 
DOCKED: ATOM      8  N6  UNL     1      14.229  -5.992  -5.414 +0.00 -0.00    -0.304 N  
DOCKED: ATOM      9  H44 UNL     1      14.927  -5.679  -6.088 +0.00 +0.00    +0.149 HD 
DOCKED: BRANCH   8  10
DOCKED: ATOM     10  C27 UNL     1      14.767  -6.765  -4.293 +0.00 +0.00    +0.156 C  
DOCKED: ATOM     11  C28 UNL     1      16.283  -6.900  -4.245 +0.00 +0.00    +0.038 C  
DOCKED: BRANCH  10  12
DOCKED: ATOM     12  C29 UNL     1      14.094  -8.153  -4.171 +0.00 +0.00    +0.234 C  
DOCKED: ATOM     13  O9  UNL     1      14.574  -9.190  -4.627 +0.00 -0.00    -0.274 OA 
DOCKED: ATOM     14  N7  UNL     1      12.892  -8.148  -3.484 +0.00 -0.00    -0.302 N  
DOCKED: ATOM     15  H49 UNL     1      12.364  -7.275  -3.477 +0.00 +0.00    +0.150 HD 
DOCKED: BRANCH  14  16
DOCKED: ATOM     16  C30 UNL     1      12.112  -9.380  -3.351 +0.00 +0.00    +0.159 C  
DOCKED: BRANCH  16  17
DOCKED: ATOM     17  C34 UNL     1      12.995 -10.394  -2.599 +0.00 +0.00    +0.234 C  
DOCKED: ATOM     18  O12 UNL     1      13.047 -10.461  -1.373 +0.00 -0.00    -0.274 OA 
DOCKED: ATOM     19  N8  UNL     1      13.782 -11.169  -3.416 +0.00 -0.00    -0.301 N  
DOCKED: ATOM     20  H56 UNL     1      13.658 -11.120  -4.427 +0.00 +0.00    +0.150 HD 
DOCKED: BRANCH  19  21
DOCKED: ATOM     21  C35 UNL     1      14.518 -12.327  -2.905 +0.00 +0.00    +0.186 C  
DOCKED: BRANCH  21  22
DOCKED: ATOM     22  C43 UNL     1      15.237 -13.000  -4.072 +0.00 +0.00    +0.326 C  
DOCKED: ATOM     23  O13 UNL     1      15.374 -14.205  -4.236 +0.00 -0.00    -0.249 OA 
DOCKED: BRANCH  22  24
DOCKED: ATOM     24  O14 UNL     1      15.786 -12.130  -4.946 +0.00 -0.00    -0.479 OA 
DOCKED: ATOM     25  H65 UNL     1      15.320 -11.289  -4.750 +0.00 +0.00    +0.295 HD 
DOCKED: ENDBRANCH  22  24
DOCKED: ENDBRANCH  21  22
DOCKED: BRANCH  21  26
DOCKED: ATOM     26  C36 UNL     1      15.472 -11.989  -1.749 +0.00 +0.00    +0.069 C  
DOCKED: BRANCH  26  27
DOCKED: ATOM     27  C37 UNL     1      16.445 -10.866  -2.029 +0.00 -0.00    -0.045 A  
DOCKED: ATOM     28  C38 UNL     1      16.276  -9.613  -1.426 +0.00 +0.00    +0.004 A  
DOCKED: ATOM     29  C39 UNL     1      17.174  -8.576  -1.676 +0.00 +0.00    +0.000 A  
DOCKED: ATOM     30  C40 UNL     1      18.251  -8.778  -2.535 +0.00 +0.00    +0.000 A  
DOCKED: ATOM     31  C41 UNL     1      18.429 -10.019  -3.144 +0.00 +0.00    +0.000 A  
DOCKED: ATOM     32  C42 UNL     1      17.532 -11.058  -2.893 +0.00 +0.00    +0.004 A  
DOCKED: ENDBRANCH  26  27
DOCKED: ENDBRANCH  21  26
DOCKED: ENDBRANCH  19  21
DOCKED: ENDBRANCH  16  17
DOCKED: BRANCH  16  33
DOCKED: ATOM     33  C31 UNL     1      10.789  -9.095  -2.616 +0.00 +0.00    +0.043 C  
DOCKED: BRANCH  33  34
DOCKED: ATOM     34  C32 UNL     1      10.546  -7.613  -2.344 +0.00 +0.00    +0.123 C  
DOCKED: BRANCH  34  35
DOCKED: ATOM     35  C33 UNL     1       9.859  -6.930  -3.489 +0.00 +0.00    +0.305 C  
DOCKED: ATOM     36  O10 UNL     1       9.155  -5.936  -3.407 +0.00 -0.00    -0.251 OA 
DOCKED: BRANCH  35  37
DOCKED: ATOM     37  O11 UNL     1      10.136  -7.496  -4.677 +0.00 -0.00    -0.481 OA 
DOCKED: ATOM     38  H55 UNL     1      10.321  -6.736  -5.268 +0.00 +0.00    +0.295 HD 
DOCKED: ENDBRANCH  35  37
DOCKED: ENDBRANCH  34  35
DOCKED: ENDBRANCH  33  34
DOCKED: ENDBRANCH  16  33
DOCKED: ENDBRANCH  14  16
DOCKED: ENDBRANCH  10  12
DOCKED: ENDBRANCH   8  10
DOCKED: ENDBRANCH   5   6
DOCKED: BRANCH   5  39
DOCKED: ATOM     39  C44 UNL     1      11.186  -4.104  -6.868 +0.00 +0.00    +0.072 C  
DOCKED: ATOM     40  C45 UNL     1      10.968  -3.611  -8.310 +0.00 +0.00    +0.042 C  
DOCKED: ATOM     41  C46 UNL     1      10.660  -3.005  -5.937 +0.00 +0.00    +0.042 C  
DOCKED: BRANCH  39  42
DOCKED: ATOM     42  O15 UNL     1      10.317  -5.235  -6.704 +0.00 -0.00    -0.388 OA 
DOCKED: ATOM     43  H72 UNL     1      10.454  -5.793  -7.501 +0.00 +0.00    +0.210 HD 
DOCKED: ENDBRANCH  39  42
DOCKED: ENDBRANCH   5  39
DOCKED: ENDBRANCH   4   5
DOCKED: ENDBRANCH   1   4
DOCKED: BRANCH   1  44
DOCKED: ATOM     44  C15 UNL     1      14.107  -7.449  -8.173 +0.00 +0.00    +0.102 C  
DOCKED: BRANCH  44  47
DOCKED: ATOM     45  C14 UNL     1      12.189  -8.492  -6.926 +0.00 +0.00    +0.234 C  
DOCKED: ATOM     46  O6  UNL     1      11.672  -7.396  -6.704 +0.00 -0.00    -0.274 OA 
DOCKED: ATOM     47  N5  UNL     1      13.234  -8.600  -7.816 +0.00 -0.00    -0.308 N  
DOCKED: ATOM     48  H24 UNL     1      13.734  -9.491  -7.755 +0.00 +0.00    +0.149 HD 
DOCKED: BRANCH  45  49
DOCKED: ATOM     49  C11 UNL     1      11.717  -9.791  -6.216 +0.00 +0.00    +0.168 C  
DOCKED: BRANCH  49  52
DOCKED: ATOM     50  C10 UNL     1       9.587 -10.522  -5.167 +0.00 +0.00    +0.234 C  
DOCKED: ATOM     51  O4  UNL     1      10.175 -11.406  -4.534 +0.00 -0.00    -0.274 OA 
DOCKED: ATOM     52  N3  UNL     1      10.252  -9.715  -6.070 +0.00 -0.00    -0.302 N  
DOCKED: ATOM     53  H18 UNL     1       9.852  -8.800  -6.215 +0.00 +0.00    +0.150 HD 
DOCKED: BRANCH  50  54
DOCKED: ATOM     54  C4  UNL     1       8.045 -10.293  -5.050 +0.00 +0.00    +0.161 C  
DOCKED: BRANCH  54  55
DOCKED: ATOM     55  N1  UNL     1       7.780  -8.998  -5.682 +0.00 -0.00    -0.302 N  
DOCKED: ATOM     56  C5  UNL     1       6.531  -8.409  -5.626 +0.00 +0.00    +0.230 C  
DOCKED: ATOM     57  O1  UNL     1       5.508  -9.022  -5.338 +0.00 -0.00    -0.274 OA 
DOCKED: ATOM     58  H9  UNL     1       8.561  -8.357  -5.733 +0.00 +0.00    +0.150 HD 
DOCKED: BRANCH  56  59
DOCKED: ATOM     59  C6  UNL     1       6.535  -6.909  -5.996 +0.00 +0.00    +0.138 C  
DOCKED: BRANCH  59  60
DOCKED: ATOM     60  N2  UNL     1       7.789  -6.293  -5.517 +0.00 -0.00    -0.320 NA 
DOCKED: ATOM     61  H11 UNL     1       8.277  -5.811  -6.273 +0.00 +0.00    +0.119 HD 
DOCKED: ATOM     62  H12 UNL     1       8.397  -7.022  -5.140 +0.00 +0.00    +0.119 HD 
DOCKED: ENDBRANCH  59  60
DOCKED: BRANCH  59  63
DOCKED: ATOM     63  C7  UNL     1       6.340  -6.748  -7.511 +0.00 +0.00    +0.039 C  
DOCKED: BRANCH  63  64
DOCKED: ATOM     64  C8  UNL     1       7.349  -7.529  -8.357 +0.00 +0.00    +0.122 C  
DOCKED: BRANCH  64  65
DOCKED: ATOM     65  C9  UNL     1       8.758  -7.026  -8.175 +0.00 +0.00    +0.305 C  
DOCKED: ATOM     66  O2  UNL     1       9.367  -6.255  -8.901 +0.00 -0.00    -0.251 OA 
DOCKED: BRANCH  65  67
DOCKED: ATOM     67  O3  UNL     1       9.329  -7.514  -7.057 +0.00 -0.00    -0.481 OA 
DOCKED: ATOM     68  H17 UNL     1       9.621  -6.721  -6.563 +0.00 +0.00    +0.295 HD 
DOCKED: ENDBRANCH  65  67
DOCKED: ENDBRANCH  64  65
DOCKED: ENDBRANCH  63  64
DOCKED: ENDBRANCH  59  63
DOCKED: ENDBRANCH  56  59
DOCKED: ENDBRANCH  54  55
DOCKED: BRANCH  54  70
DOCKED: ATOM     69  C1  UNL     1       7.082 -12.674  -4.925 +0.00 +0.00    +0.009 C  
DOCKED: ATOM     70  C2  UNL     1       7.085 -11.336  -5.673 +0.00 +0.00    +0.012 C  
DOCKED: ATOM     71  C3  UNL     1       7.272 -11.548  -7.175 +0.00 +0.00    +0.009 C  
DOCKED: ENDBRANCH  54  70
DOCKED: ENDBRANCH  50  54
DOCKED: ENDBRANCH  49  52
DOCKED: BRANCH  49  72
DOCKED: ATOM     72  C12 UNL     1      12.068 -11.060  -6.995 +0.00 +0.00    +0.127 C  
DOCKED: BRANCH  72  73
DOCKED: ATOM     73  C13 UNL     1      13.411 -11.614  -6.578 +0.00 +0.00    +0.213 C  
DOCKED: ATOM     74  N4  UNL     1      13.434 -12.955  -6.345 +0.00 -0.00    -0.329 N  
DOCKED: ATOM     75  O5  UNL     1      14.433 -10.941  -6.525 +0.00 -0.00    -0.276 OA 
DOCKED: ATOM     76  H22 UNL     1      14.305 -13.359  -6.023 +0.00 +0.00    +0.145 HD 
DOCKED: ATOM     77  H23 UNL     1      12.596 -13.513  -6.237 +0.00 +0.00    +0.145 HD 
DOCKED: ENDBRANCH  72  73
DOCKED: ENDBRANCH  49  72
DOCKED: ENDBRANCH  45  49
DOCKED: ENDBRANCH  44  47
DOCKED: BRANCH  44  78
DOCKED: ATOM     78  C16 UNL     1      15.211  -7.997  -9.125 +0.00 +0.00    +0.028 C  
DOCKED: BRANCH  78  79
DOCKED: ATOM     79  C17 UNL     1      16.354  -8.808  -8.484 +0.00 -0.00    -0.009 C  
DOCKED: ATOM     80  C18 UNL     1      16.420  -8.534  -6.961 +0.00 +0.00    +0.003 C  
DOCKED: ATOM     81  C19 UNL     1      17.169  -9.612  -6.167 +0.00 +0.00    +0.000 C  
DOCKED: ATOM     82  C20 UNL     1      18.144 -10.395  -7.033 +0.00 +0.00    +0.000 C  
DOCKED: ATOM     83  C21 UNL     1      17.436 -11.085  -8.199 +0.00 +0.00    +0.000 C  
DOCKED: ATOM     84  C22 UNL     1      16.207 -10.321  -8.702 +0.00 +0.00    +0.003 C  
DOCKED: ENDBRANCH  78  79
DOCKED: ENDBRANCH  44  78
DOCKED: ENDBRANCH   1  44
DOCKED: TORSDOF 36
DOCKED: TER
DOCKED: ENDMDL
________________________________________________________________________________


    FINAL DOCKED STATE:
    ________________________


Run:   20 / 20
Time taken for this run:   7.574s

DOCKED: MODEL        20
DOCKED: USER    Run = 20
DOCKED: USER
DOCKED: USER    Estimated Free Energy of Binding    = +10.74 kcal/mol  [=(1)+(2)+(3)-(4)]
DOCKED: USER
DOCKED: USER    (1) Final Intermolecular Energy     =  +0.00 kcal/mol
DOCKED: USER        vdW + Hbond + desolv Energy     =  +0.00 kcal/mol
DOCKED: USER        Electrostatic Energy            =  +0.00 kcal/mol
DOCKED: USER        Moving Ligand-Fixed Receptor    =  +0.00 kcal/mol
DOCKED: USER        Moving Ligand-Moving Receptor   =  +0.00 kcal/mol
DOCKED: USER    (2) Final Total Internal Energy     = -31.64 kcal/mol
DOCKED: USER    (3) Torsional Free Energy           = +10.74 kcal/mol
DOCKED: USER    (4) Unbound System's Energy         = -31.64 kcal/mol
DOCKED: USER
DOCKED: USER
DOCKED: REMARK  Name = ligands/ligand_16.pdb
DOCKED: REMARK  41 active torsions:
DOCKED: REMARK  status: ('A' for Active; 'I' for Inactive)
DOCKED: REMARK    1  A    between atoms: C1_1  and  C2_2
DOCKED: REMARK    2  A    between atoms: C2_2  and  C3_3
DOCKED: REMARK    3  A    between atoms: C2_2  and  C4_4
DOCKED: REMARK    4  A    between atoms: C4_4  and  N1_5
DOCKED: REMARK    5  A    between atoms: C4_4  and  C10_15
DOCKED: REMARK    6  A    between atoms: C5_6  and  C6_8
DOCKED: REMARK    7  A    between atoms: C6_8  and  N2_9
DOCKED: REMARK    8  A    between atoms: C6_8  and  C7_10
DOCKED: REMARK    9  A    between atoms: C7_10  and  C8_11
DOCKED: REMARK   10  A    between atoms: C8_11  and  C9_12
DOCKED: REMARK   11  A    between atoms: C9_12  and  O3_14
DOCKED: REMARK   12  A    between atoms: N3_17  and  C11_18
DOCKED: REMARK   13  A    between atoms: C11_18  and  C12_19
DOCKED: REMARK   14  A    between atoms: C11_18  and  C14_23
DOCKED: REMARK   15  A    between atoms: C12_19  and  C13_20
DOCKED: REMARK   16  A    between atoms: N5_25  and  C15_26
DOCKED: REMARK   17  A    between atoms: C15_26  and  C16_27
DOCKED: REMARK   18  A    between atoms: C15_26  and  C23_34
DOCKED: REMARK   19  A    between atoms: C16_27  and  C17_28
DOCKED: REMARK   20  A    between atoms: C23_34  and  O7_35
DOCKED: REMARK   21  A    between atoms: C23_34  and  C24_36
DOCKED: REMARK   22  A    between atoms: C24_36  and  C25_37
DOCKED: REMARK   23  A    between atoms: C25_37  and  C26_38
DOCKED: REMARK   24  A    between atoms: C25_37  and  C44_66
DOCKED: REMARK   25  A    between atoms: N6_40  and  C27_41
DOCKED: REMARK   26  A    between atoms: C27_41  and  C28_42
DOCKED: REMARK   27  A    between atoms: C27_41  and  C29_43
DOCKED: REMARK   28  A    between atoms: N7_45  and  C30_46
DOCKED: REMARK   29  A    between atoms: C30_46  and  C31_47
DOCKED: REMARK   30  A    between atoms: C30_46  and  C34_52
DOCKED: REMARK   31  A    between atoms: C31_47  and  C32_48
DOCKED: REMARK   32  A    between atoms: C32_48  and  C33_49
DOCKED: REMARK   33  A    between atoms: C33_49  and  O11_51
DOCKED: REMARK   34  A    between atoms: N8_54  and  C35_55
DOCKED: REMARK   35  A    between atoms: C35_55  and  C36_56
DOCKED: REMARK   36  A    between atoms: C35_55  and  C43_63
DOCKED: REMARK   37  A    between atoms: C36_56  and  C37_57
DOCKED: REMARK   38  A    between atoms: C43_63  and  O14_65
DOCKED: REMARK   39  A    between atoms: C44_66  and  C45_67
DOCKED: REMARK   40  A    between atoms: C44_66  and  C46_68
DOCKED: REMARK   41  A    between atoms: C44_66  and  O15_69
DOCKED: REMARK                            x       y       z     vdW  Elec       q    Type
DOCKED: REMARK                         _______ _______ _______ _____ _____    ______ ____
DOCKED: USER                              x       y       z     vdW  Elec       q    Type
DOCKED: USER                           _______ _______ _______ _____ _____    ______ ____
DOCKED: ROOT
DOCKED: ATOM      1  C23 UNL     1       6.607  -5.220  -0.262 +0.00 +0.00    +0.135 C  
DOCKED: ENDROOT
DOCKED: BRANCH   1   2
DOCKED: ATOM      2  O7  UNL     1       5.855  -4.016  -0.129 +0.00 -0.00    -0.390 OA 
DOCKED: ATOM      3  H40 UNL     1       5.226  -3.999  -0.869 +0.00 +0.00    +0.210 HD 
DOCKED: ENDBRANCH   1   2
DOCKED: BRANCH   1   4
DOCKED: ATOM      4  C24 UNL     1       5.608  -6.389  -0.390 +0.00 +0.00    +0.048 C  
DOCKED: BRANCH   4   5
DOCKED: ATOM      5  C25 UNL     1       5.325  -7.119  -1.734 +0.00 +0.00    +0.108 C  
DOCKED: BRANCH   5   6
DOCKED: ATOM      6  C26 UNL     1       3.884  -7.632  -1.854 +0.00 +0.00    +0.220 C  
DOCKED: ATOM      7  O8  UNL     1       3.204  -7.806  -0.845 +0.00 -0.00    -0.275 OA 
DOCKED: ATOM      8  N6  UNL     1       3.421  -7.875  -3.118 +0.00 -0.00    -0.304 N  
DOCKED: ATOM      9  H44 UNL     1       4.085  -7.839  -3.890 +0.00 +0.00    +0.149 HD 
DOCKED: BRANCH   8  10
DOCKED: ATOM     10  C27 UNL     1       2.131  -8.483  -3.451 +0.00 +0.00    +0.156 C  
DOCKED: ATOM     11  C28 UNL     1       1.946  -9.930  -3.015 +0.00 +0.00    +0.038 C  
DOCKED: BRANCH  10  12
DOCKED: ATOM     12  C29 UNL     1       1.784  -8.319  -4.949 +0.00 +0.00    +0.234 C  
DOCKED: ATOM     13  O9  UNL     1       0.851  -8.897  -5.505 +0.00 -0.00    -0.274 OA 
DOCKED: ATOM     14  N7  UNL     1       2.608  -7.442  -5.635 +0.00 -0.00    -0.302 N  
DOCKED: ATOM     15  H49 UNL     1       3.550  -7.305  -5.267 +0.00 +0.00    +0.150 HD 
DOCKED: BRANCH  14  16
DOCKED: ATOM     16  C30 UNL     1       2.438  -7.241  -7.075 +0.00 +0.00    +0.159 C  
DOCKED: BRANCH  16  17
DOCKED: ATOM     17  C34 UNL     1       3.192  -5.949  -7.442 +0.00 +0.00    +0.234 C  
DOCKED: ATOM     18  O12 UNL     1       2.711  -5.067  -8.150 +0.00 -0.00    -0.274 OA 
DOCKED: ATOM     19  N8  UNL     1       4.482  -5.897  -6.972 +0.00 -0.00    -0.301 N  
DOCKED: ATOM     20  H56 UNL     1       4.815  -6.622  -6.338 +0.00 +0.00    +0.150 HD 
DOCKED: BRANCH  19  21
DOCKED: ATOM     21  C35 UNL     1       5.276  -4.667  -7.030 +0.00 +0.00    +0.186 C  
DOCKED: BRANCH  21  22
DOCKED: ATOM     22  C43 UNL     1       6.675  -4.966  -6.497 +0.00 +0.00    +0.326 C  
DOCKED: ATOM     23  O13 UNL     1       7.727  -4.539  -6.954 +0.00 -0.00    -0.249 OA 
DOCKED: BRANCH  22  24
DOCKED: ATOM     24  O14 UNL     1       6.686  -5.818  -5.450 +0.00 -0.00    -0.479 OA 
DOCKED: ATOM     25  H65 UNL     1       6.099  -6.547  -5.745 +0.00 +0.00    +0.295 HD 
DOCKED: ENDBRANCH  22  24
DOCKED: ENDBRANCH  21  22
DOCKED: BRANCH  21  26
DOCKED: ATOM     26  C36 UNL     1       5.308  -4.022  -8.424 +0.00 +0.00    +0.069 C  
DOCKED: BRANCH  26  27
DOCKED: ATOM     27  C37 UNL     1       4.961  -2.550  -8.456 +0.00 -0.00    -0.045 A  
DOCKED: ATOM     28  C38 UNL     1       3.624  -2.135  -8.416 +0.00 +0.00    +0.004 A  
DOCKED: ATOM     29  C39 UNL     1       3.299  -0.779  -8.438 +0.00 +0.00    +0.000 A  
DOCKED: ATOM     30  C40 UNL     1       4.307   0.179  -8.504 +0.00 +0.00    +0.000 A  
DOCKED: ATOM     31  C41 UNL     1       5.642  -0.220  -8.547 +0.00 +0.00    +0.000 A  
DOCKED: ATOM     32  C42 UNL     1       5.968  -1.578  -8.523 +0.00 +0.00    +0.004 A  
DOCKED: ENDBRANCH  26  27
DOCKED: ENDBRANCH  21  26
DOCKED: ENDBRANCH  19  21
DOCKED: ENDBRANCH  16  17
DOCKED: BRANCH  16  33
DOCKED: ATOM     33  C31 UNL     1       2.960  -8.465  -7.849 +0.00 +0.00    +0.043 C  
DOCKED: BRANCH  33  34
DOCKED: ATOM     34  C32 UNL     1       3.887  -9.359  -7.029 +0.00 +0.00    +0.123 C  
DOCKED: BRANCH  34  35
DOCKED: ATOM     35  C33 UNL     1       5.095  -8.621  -6.532 +0.00 +0.00    +0.305 C  
DOCKED: ATOM     36  O10 UNL     1       6.003  -8.192  -7.224 +0.00 -0.00    -0.251 OA 
DOCKED: BRANCH  35  37
DOCKED: ATOM     37  O11 UNL     1       5.069  -8.413  -5.203 +0.00 -0.00    -0.481 OA 
DOCKED: ATOM     38  H55 UNL     1       5.309  -7.468  -5.102 +0.00 +0.00    +0.295 HD 
DOCKED: ENDBRANCH  35  37
DOCKED: ENDBRANCH  34  35
DOCKED: ENDBRANCH  33  34
DOCKED: ENDBRANCH  16  33
DOCKED: ENDBRANCH  14  16
DOCKED: ENDBRANCH  10  12
DOCKED: ENDBRANCH   8  10
DOCKED: ENDBRANCH   5   6
DOCKED: BRANCH   5  39
DOCKED: ATOM     39  C44 UNL     1       6.439  -8.014  -2.372 +0.00 +0.00    +0.072 C  
DOCKED: ATOM     40  C45 UNL     1       5.882  -9.427  -2.627 +0.00 +0.00    +0.042 C  
DOCKED: ATOM     41  C46 UNL     1       7.742  -8.185  -1.582 +0.00 +0.00    +0.042 C  
DOCKED: BRANCH  39  42
DOCKED: ATOM     42  O15 UNL     1       6.802  -7.497  -3.660 +0.00 -0.00    -0.388 OA 
DOCKED: ATOM     43  H72 UNL     1       6.046  -6.940  -3.947 +0.00 +0.00    +0.210 HD 
DOCKED: ENDBRANCH  39  42
DOCKED: ENDBRANCH   5  39
DOCKED: ENDBRANCH   4   5
DOCKED: ENDBRANCH   1   4
DOCKED: BRANCH   1  44
DOCKED: ATOM     44  C15 UNL     1       7.729  -5.183  -1.357 +0.00 +0.00    +0.102 C  
DOCKED: BRANCH  44  47
DOCKED: ATOM     45  C14 UNL     1       6.557  -3.502  -2.814 +0.00 +0.00    +0.234 C  
DOCKED: ATOM     46  O6  UNL     1       6.595  -2.639  -1.936 +0.00 -0.00    -0.274 OA 
DOCKED: ATOM     47  N5  UNL     1       7.282  -4.664  -2.679 +0.00 -0.00    -0.308 N  
DOCKED: ATOM     48  H24 UNL     1       7.006  -5.399  -3.335 +0.00 +0.00    +0.149 HD 
DOCKED: BRANCH  45  49
DOCKED: ATOM     49  C11 UNL     1       5.692  -3.343  -4.095 +0.00 +0.00    +0.168 C  
DOCKED: BRANCH  49  52
DOCKED: ATOM     50  C10 UNL     1       3.745  -4.872  -3.891 +0.00 +0.00    +0.234 C  
DOCKED: ATOM     51  O4  UNL     1       4.370  -5.780  -4.450 +0.00 -0.00    -0.274 OA 
DOCKED: ATOM     52  N3  UNL     1       4.291  -3.613  -3.726 +0.00 -0.00    -0.302 N  
DOCKED: ATOM     53  H18 UNL     1       3.944  -3.087  -2.939 +0.00 +0.00    +0.150 HD 
DOCKED: BRANCH  50  54
DOCKED: ATOM     54  C4  UNL     1       2.274  -5.051  -3.391 +0.00 +0.00    +0.161 C  
DOCKED: BRANCH  54  55
DOCKED: ATOM     55  N1  UNL     1       2.228  -4.457  -2.053 +0.00 -0.00    -0.302 N  
DOCKED: ATOM     56  C5  UNL     1       1.657  -5.123  -0.985 +0.00 +0.00    +0.230 C  
DOCKED: ATOM     57  O1  UNL     1       0.898  -6.079  -1.114 +0.00 -0.00    -0.274 OA 
DOCKED: ATOM     58  H9  UNL     1       2.981  -3.824  -1.818 +0.00 +0.00    +0.150 HD 
DOCKED: BRANCH  56  59
DOCKED: ATOM     59  C6  UNL     1       2.037  -4.532   0.391 +0.00 +0.00    +0.138 C  
DOCKED: BRANCH  59  60
DOCKED: ATOM     60  N2  UNL     1       3.506  -4.419   0.483 +0.00 -0.00    -0.320 NA 
DOCKED: ATOM     61  H11 UNL     1       3.783  -3.531   0.905 +0.00 +0.00    +0.119 HD 
DOCKED: ATOM     62  H12 UNL     1       3.906  -4.481  -0.454 +0.00 +0.00    +0.119 HD 
DOCKED: ENDBRANCH  59  60
DOCKED: BRANCH  59  63
DOCKED: ATOM     63  C7  UNL     1       1.327  -3.183   0.588 +0.00 +0.00    +0.039 C  
DOCKED: BRANCH  63  64
DOCKED: ATOM     64  C8  UNL     1       2.228  -1.965   0.365 +0.00 +0.00    +0.122 C  
DOCKED: BRANCH  64  65
DOCKED: ATOM     65  C9  UNL     1       2.904  -1.994  -0.981 +0.00 +0.00    +0.305 C  
DOCKED: ATOM     66  O2  UNL     1       2.407  -1.726  -2.064 +0.00 -0.00    -0.251 OA 
DOCKED: BRANCH  65  67
DOCKED: ATOM     67  O3  UNL     1       4.201  -2.346  -0.888 +0.00 -0.00    -0.481 OA 
DOCKED: ATOM     68  H17 UNL     1       4.352  -2.483   0.069 +0.00 +0.00    +0.295 HD 
DOCKED: ENDBRANCH  65  67
DOCKED: ENDBRANCH  64  65
DOCKED: ENDBRANCH  63  64
DOCKED: ENDBRANCH  59  63
DOCKED: ENDBRANCH  56  59
DOCKED: ENDBRANCH  54  55
DOCKED: BRANCH  54  70
DOCKED: ATOM     69  C1  UNL     1       0.087  -5.485  -4.670 +0.00 +0.00    +0.009 C  
DOCKED: ATOM     70  C2  UNL     1       1.121  -4.444  -4.226 +0.00 +0.00    +0.012 C  
DOCKED: ATOM     71  C3  UNL     1       1.580  -3.590  -5.407 +0.00 +0.00    +0.009 C  
DOCKED: ENDBRANCH  54  70
DOCKED: ENDBRANCH  50  54
DOCKED: ENDBRANCH  49  52
DOCKED: BRANCH  49  72
DOCKED: ATOM     72  C12 UNL     1       5.779  -1.943  -4.705 +0.00 +0.00    +0.127 C  
DOCKED: BRANCH  72  73
DOCKED: ATOM     73  C13 UNL     1       4.585  -1.097  -4.329 +0.00 +0.00    +0.213 C  
DOCKED: ATOM     74  N4  UNL     1       4.554  -0.688  -3.030 +0.00 -0.00    -0.329 N  
DOCKED: ATOM     75  O5  UNL     1       3.737  -0.728  -5.132 +0.00 -0.00    -0.276 OA 
DOCKED: ATOM     76  H22 UNL     1       3.749  -0.154  -2.727 +0.00 +0.00    +0.145 HD 
DOCKED: ATOM     77  H23 UNL     1       5.147  -1.084  -2.311 +0.00 +0.00    +0.145 HD 
DOCKED: ENDBRANCH  72  73
DOCKED: ENDBRANCH  49  72
DOCKED: ENDBRANCH  45  49
DOCKED: ENDBRANCH  44  47
DOCKED: BRANCH  44  78
DOCKED: ATOM     78  C16 UNL     1       8.983  -4.356  -0.946 +0.00 +0.00    +0.028 C  
DOCKED: BRANCH  78  79
DOCKED: ATOM     79  C17 UNL     1      10.061  -4.130  -2.024 +0.00 -0.00    -0.009 C  
DOCKED: ATOM     80  C18 UNL     1      10.155  -5.362  -2.958 +0.00 +0.00    +0.003 C  
DOCKED: ATOM     81  C19 UNL     1      10.819  -5.070  -4.309 +0.00 +0.00    +0.000 C  
DOCKED: ATOM     82  C20 UNL     1      11.726  -3.849  -4.256 +0.00 +0.00    +0.000 C  
DOCKED: ATOM     83  C21 UNL     1      10.961  -2.595  -3.832 +0.00 +0.00    +0.000 C  
DOCKED: ATOM     84  C22 UNL     1       9.794  -2.886  -2.883 +0.00 +0.00    +0.003 C  
DOCKED: ENDBRANCH  78  79
DOCKED: ENDBRANCH  44  78
DOCKED: ENDBRANCH   1  44
DOCKED: TORSDOF 36
DOCKED: TER
DOCKED: ENDMDL
________________________________________________________________________________


    CLUSTERING HISTOGRAM
    ____________________


________________________________________________________________________________
     |           |     |           |     |
Clus | Lowest    | Run | Mean      | Num | Histogram
-ter | Binding   |     | Binding   | in  |
Rank | Energy    |     | Energy    | Clus|    5    10   15   20   25   30   35
_____|___________|_____|___________|_____|____:____|____:____|____:____|____:___
   1 |    +10.74 |   1 |    +10.74 |   1 |#
   2 |    +10.74 |   2 |    +10.74 |   1 |#
   3 |    +10.74 |   3 |    +10.74 |   1 |#
   4 |    +10.74 |   4 |    +10.74 |   1 |#
   5 |    +10.74 |   5 |    +10.74 |   1 |#
   6 |    +10.74 |   6 |    +10.74 |   1 |#
   7 |    +10.74 |   7 |    +10.74 |   1 |#
   8 |    +10.74 |   8 |    +10.74 |   1 |#
   9 |    +10.74 |   9 |    +10.74 |   1 |#
  10 |    +10.74 |  10 |    +10.74 |   1 |#
  11 |    +10.74 |  11 |    +10.74 |   1 |#
  12 |    +10.74 |  12 |    +10.74 |   1 |#
  13 |    +10.74 |  13 |    +10.74 |   1 |#
  14 |    +10.74 |  14 |    +10.74 |   1 |#
  15 |    +10.74 |  15 |    +10.74 |   1 |#
  16 |    +10.74 |  16 |    +10.74 |   1 |#
  17 |    +10.74 |  17 |    +10.74 |   1 |#
  18 |    +10.74 |  18 |    +10.74 |   1 |#
  19 |    +10.74 |  19 |    +10.74 |   1 |#
  20 |    +10.74 |  20 |    +10.74 |   1 |#
_____|___________|_____|___________|_____|______________________________________


    RMSD TABLE
    __________


_______________________________________________________________________
     |      |      |           |         |                 |
Rank | Sub- | Run  | Binding   | Cluster | Reference       | Grep
     | Rank |      | Energy    | RMSD    | RMSD            | Pattern
_____|______|______|___________|_________|_________________|___________
   1      1      1      +10.74      0.00      7.54           RANKING
   2      1      2      +10.74      0.00     10.88           RANKING
   3      1      3      +10.74      0.00     10.38           RANKING
   4      1      4      +10.74      0.00     10.84           RANKING
   5      1      5      +10.74      0.00     11.06           RANKING
   6      1      6      +10.74      0.00     14.60           RANKING
   7      1      7      +10.74      0.00     13.86           RANKING
   8      1      8      +10.74      0.00      8.53           RANKING
   9      1      9      +10.74      0.00      9.04           RANKING
  10      1     10      +10.74      0.00     11.42           RANKING
  11      1     11      +10.74      0.00     12.03           RANKING
  12      1     12      +10.74      0.00     10.60           RANKING
  13      1     13      +10.74      0.00      7.22           RANKING
  14      1     14      +10.74      0.00     10.75           RANKING
  15      1     15      +10.74      0.00      9.39           RANKING
  16      1     16      +10.74      0.00      9.80           RANKING
  17      1     17      +10.74      0.00     12.14           RANKING
  18      1     18      +10.74      0.00      7.45           RANKING
  19      1     19      +10.74      0.00     12.21           RANKING
  20      1     20      +10.74      0.00      4.86           RANKING

Run time 152.633 sec
Idle time 0.286 sec
