REMARK  Name = ligands/ligand_47.pdb
REMARK  32 active torsions:
REMARK  status: ('A' for Active; 'I' for Inactive)
REMARK    1  A    between atoms: C1_1  and  S1_2
REMARK    2  A    between atoms: S1_2  and  C2_3
REMARK    3  A    between atoms: C2_3  and  C3_4
REMARK    4  A    between atoms: C3_4  and  C4_5
REMARK    5  A    between atoms: C4_5  and  N1_6
REMARK    6  A    between atoms: C4_5  and  C15_21
REMARK    7  A    between atoms: C5_7  and  C6_9
REMARK    8  A    between atoms: C6_9  and  N2_10
REMARK    9  A    between atoms: C6_9  and  C12_18
REMARK   10  A    between atoms: C7_11  and  O3_13
REMARK   11  A    between atoms: O3_13  and  C8_14
REMARK   12  A    between atoms: C8_14  and  C9_15
REMARK   13  A    between atoms: C8_14  and  C10_16
REMARK   14  A    between atoms: C8_14  and  C11_17
REMARK   15  A    between atoms: C12_18  and  C13_19
REMARK   16  A    between atoms: C12_18  and  C14_20
REMARK   17  A    between atoms: N3_23  and  C16_24
REMARK   18  A    between atoms: C16_24  and  C17_25
REMARK   19  A    between atoms: C16_24  and  C21_29
REMARK   20  A    between atoms: C17_25  and  C18_26
REMARK   21  A    between atoms: C18_26  and  C19_27
REMARK   22  A    between atoms: C18_26  and  C20_28
REMARK   23  A    between atoms: C21_29  and  O5_30
REMARK   24  A    between atoms: C21_29  and  C22_31
REMARK   25  A    between atoms: C22_31  and  C23_32
REMARK   26  A    between atoms: N4_34  and  C24_35
REMARK   27  A    between atoms: C24_35  and  C25_36
REMARK   28  A    between atoms: C24_35  and  C33_46
REMARK   29  A    between atoms: N5_38  and  C26_39
REMARK   30  A    between atoms: C26_39  and  C27_40
REMARK   31  A    between atoms: C33_46  and  C34_47
REMARK   32  A    between atoms: C33_46  and  C35_48
REMARK                            x       y       z     vdW  Elec       q    Type
REMARK                         _______ _______ _______ _____ _____    ______ ____
ROOT
ATOM      1  C16 UNL     1      -1.641  -1.765  -1.462  0.00  0.00    +0.102 C 
ENDROOT
BRANCH   1   4
ATOM      2  C15 UNL     1       0.550  -2.033  -2.605  0.00  0.00    +0.234 C 
ATOM      3  O4  UNL     1       0.576  -0.834  -2.907  0.00  0.00    -0.274 OA
ATOM      4  N3  UNL     1      -0.490  -2.575  -1.890  0.00  0.00    -0.308 N 
ATOM      5  H28 UNL     1      -0.650  -3.574  -1.908  0.00  0.00    +0.149 HD
BRANCH   2   6
ATOM      6  C4  UNL     1       1.651  -3.005  -3.109  0.00  0.00    +0.160 C 
BRANCH   6   7
ATOM      7  N1  UNL     1       2.873  -2.213  -3.309  0.00  0.00    -0.302 N 
ATOM      8  C5  UNL     1       3.641  -1.791  -2.237  0.00  0.00    +0.234 C 
ATOM      9  O1  UNL     1       3.466  -2.179  -1.082  0.00  0.00    -0.274 OA
ATOM     10  H9  UNL     1       2.808  -1.543  -4.068  0.00  0.00    +0.150 HD
BRANCH   8  11
ATOM     11  C6  UNL     1       4.798  -0.841  -2.620  0.00  0.00    +0.165 C 
BRANCH  11  12
ATOM     12  N2  UNL     1       5.132  -0.075  -1.426  0.00  0.00    -0.270 N 
ATOM     13  C7  UNL     1       5.044   1.280  -1.381  0.00  0.00    +0.401 C 
ATOM     14  O2  UNL     1       4.897   2.002  -2.354  0.00  0.00    -0.226 OA
ATOM     15  H11 UNL     1       5.039  -0.542  -0.531  0.00  0.00    +0.153 HD
BRANCH  13  16
ATOM     16  O3  UNL     1       5.133   1.679  -0.093  0.00  0.00    -0.445 OA
BRANCH  16  17
ATOM     17  C8  UNL     1       5.021   3.084   0.253  0.00  0.00    +0.107 C 
ATOM     18  C9  UNL     1       5.181   3.119   1.781  0.00  0.00    +0.055 C 
ATOM     19  C10 UNL     1       6.143   3.914  -0.384  0.00  0.00    +0.055 C 
ATOM     20  C11 UNL     1       3.633   3.637  -0.099  0.00  0.00    +0.055 C 
ENDBRANCH  16  17
ENDBRANCH  13  16
ENDBRANCH  11  12
BRANCH  11  21
ATOM     21  C12 UNL     1       6.047  -1.570  -3.166  0.00  0.00    +0.012 C 
ATOM     22  C13 UNL     1       5.839  -2.108  -4.584  0.00  0.00    +0.009 C 
ATOM     23  C14 UNL     1       6.530  -2.698  -2.247  0.00  0.00    +0.009 C 
ENDBRANCH  11  21
ENDBRANCH   8  11
ENDBRANCH   6   7
BRANCH   6  24
ATOM     24  C3  UNL     1       1.898  -4.268  -2.272  0.00  0.00    +0.042 C 
BRANCH  24  25
ATOM     25  C2  UNL     1       1.134  -5.464  -2.836  0.00  0.00    +0.071 C 
BRANCH  25  27
ATOM     26  C1  UNL     1       2.965  -7.230  -1.695  0.00  0.00    +0.084 C 
ATOM     27  S1  UNL     1       1.180  -6.910  -1.725  0.00  0.00    -0.164 S 
ENDBRANCH  25  27
ENDBRANCH  24  25
ENDBRANCH   6  24
ENDBRANCH   2   6
ENDBRANCH   1   4
BRANCH   1  28
ATOM     28  C21 UNL     1      -2.667  -1.692  -2.638  0.00  0.00    +0.143 C 
BRANCH  28  29
ATOM     29  O5  UNL     1      -3.334  -2.944  -2.827  0.00  0.00    -0.389 OA
ATOM     30  H40 UNL     1      -4.105  -2.967  -2.217  0.00  0.00    +0.210 HD
ENDBRANCH  28  29
BRANCH  28  31
ATOM     31  C22 UNL     1      -3.642  -0.516  -2.572  0.00  0.00    +0.129 C 
BRANCH  31  32
ATOM     32  C23 UNL     1      -4.652  -0.619  -1.454  0.00  0.00    +0.216 C 
ATOM     33  O6  UNL     1      -5.144  -1.701  -1.121  0.00  0.00    -0.276 OA
ATOM     34  N4  UNL     1      -4.990   0.591  -0.889  0.00  0.00    -0.304 N 
ATOM     35  H43 UNL     1      -4.323   1.348  -1.022  0.00  0.00    +0.149 HD
BRANCH  34  36
ATOM     36  C24 UNL     1      -5.690   0.644   0.404  0.00  0.00    +0.161 C 
BRANCH  36  37
ATOM     37  C25 UNL     1      -4.583   0.784   1.475  0.00  0.00    +0.234 C 
ATOM     38  O7  UNL     1      -3.481   1.260   1.201  0.00  0.00    -0.274 OA
ATOM     39  N5  UNL     1      -4.930   0.378   2.744  0.00  0.00    -0.310 N 
ATOM     40  H45 UNL     1      -5.847   0.002   2.924  0.00  0.00    +0.149 HD
BRANCH  39  41
ATOM     41  C26 UNL     1      -4.011   0.461   3.857  0.00  0.00    +0.139 C 
BRANCH  41  42
ATOM     42  C27 UNL     1      -4.277   1.679   4.705  0.00  0.00    -0.030 A 
ATOM     43  C28 UNL     1      -4.833   1.560   5.988  0.00  0.00    +0.005 A 
ATOM     44  C29 UNL     1      -5.028   2.696   6.783  0.00  0.00    +0.000 A 
ATOM     45  C30 UNL     1      -4.684   3.955   6.300  0.00  0.00    +0.000 A 
ATOM     46  C31 UNL     1      -4.145   4.082   5.021  0.00  0.00    +0.000 A 
ATOM     47  C32 UNL     1      -3.947   2.952   4.227  0.00  0.00    +0.005 A 
ENDBRANCH  41  42
ENDBRANCH  39  41
ENDBRANCH  36  37
BRANCH  36  48
ATOM     48  C33 UNL     1      -6.724   1.793   0.416  0.00  0.00    +0.012 C 
ATOM     49  C34 UNL     1      -6.088   3.188   0.427  0.00  0.00    +0.009 C 
ATOM     50  C35 UNL     1      -7.726   1.669   1.564  0.00  0.00    +0.009 C 
ENDBRANCH  36  48
ENDBRANCH  34  36
ENDBRANCH  31  32
ENDBRANCH  28  31
ENDBRANCH   1  28
BRANCH   1  51
ATOM     51  C17 UNL     1      -2.200  -2.354  -0.150  0.00  0.00    +0.028 C 
BRANCH  51  52
ATOM     52  C18 UNL     1      -1.170  -2.506   0.990  0.00  0.00    -0.015 C 
ATOM     53  C19 UNL     1      -0.546  -1.171   1.401  0.00  0.00    +0.007 C 
ATOM     54  C20 UNL     1      -1.834  -3.157   2.207  0.00  0.00    +0.007 C 
ENDBRANCH  51  52
ENDBRANCH   1  51
TORSDOF 22
